% Model:              Benchmark260518.mph
% Version:            COMSOL 6.2.0.339
% Date:               May 20 2026, 16:28
% Dimension:          2
% Nodes:              4096
% Expressions:        1
% Description:        速度大小
% Length unit:        m
% x                       y                        spf.U (m/s)
% mirrored_by_python_y_to_minus_y, coord_match_decimals=12
0.0005 -0.0315 8.73816793842e-07
0.0005 -0.0305 1.77252233065e-06
0.0005 -0.0295 2.00489390286e-06
0.0005 -0.0285 2.27555767314e-06
0.0005 -0.0275 2.51144042992e-06
0.0005 -0.0265 2.84408266804e-06
0.0005 -0.0255 3.32174751424e-06
0.0005 -0.0245 4.69611775358e-06
0.0005 -0.0235 9.01583103375e-06
0.0005 -0.0225 2.22542223347e-05
0.0005 -0.0215 6.96679844979e-05
0.0005 -0.0205 0.000186480005658
0.0005 -0.0195 0.00123274184712
0.0005 -0.0185 0.0042499040814
0.0005 -0.0175 0.00889007512995
0.0005 -0.0165 0.0140419035535
0.0005 -0.0155 0.0190083373053
0.0005 -0.0145 0.0223798403281
0.0005 -0.0135 0.0235284553583
0.0005 -0.0125 0.0154125780059
0.0005 -0.0115 0.00440723165287
0.0005 -0.0105 0.000707598370806
0.0005 -0.0095 0.000163391252668
0.0005 -0.0085 0.000280182898459
0.0005 -0.0075 0.000787892658396
0.0005 -0.0065 0.00159864974034
0.0005 -0.0055 0.00253887112511
0.0005 -0.0045 0.00348129135306
0.0005 -0.0035 0.00429907483052
0.0005 -0.0025 0.00487401045104
0.0005 -0.0015 0.00512056867437
0.0005 -0.0005 0.00499417275459
0.0005 0.0005 0.0045003581852
0.0005 0.0015 0.00370567723713
0.0005 0.0025 0.00274341443396
0.0005 0.0035 0.00179046342691
0.0005 0.0045 0.0010338500192
0.0005 0.0055 0.000592198556179
0.0005 0.0065 0.000412466548649
0.0005 0.0075 0.000308496645212
0.0005 0.0085 0.00018356978601
0.0005 0.0095 8.20020665429e-05
0.0005 0.0105 3.56406493518e-05
0.0005 0.0115 1.7950905478e-05
0.0005 0.0125 1.2090285864e-05
0.0005 0.0135 9.81754120077e-06
0.0005 0.0145 8.72165979134e-06
0.0005 0.0155 8.06398863074e-06
0.0005 0.0165 7.55411308911e-06
0.0005 0.0175 7.13842931609e-06
0.0005 0.0185 6.78453847389e-06
0.0005 0.0195 6.4875793885e-06
0.0005 0.0205 6.24718347843e-06
0.0005 0.0215 6.04018305265e-06
0.0005 0.0225 5.84417862273e-06
0.0005 0.0235 5.64916249798e-06
0.0005 0.0245 5.44058959831e-06
0.0005 0.0255 5.20499472956e-06
0.0005 0.0265 4.96013541452e-06
0.0005 0.0275 4.69020626516e-06
0.0005 0.0285 4.42348206834e-06
0.0005 0.0295 3.94982767663e-06
0.0005 0.0305 3.49895847124e-06
0.0005 0.0315 1.74029283436e-06
0.0015 -0.0315 1.71718990176e-06
0.0015 -0.0305 3.45184282602e-06
0.0015 -0.0295 3.78309748085e-06
0.0015 -0.0285 4.12643496627e-06
0.0015 -0.0275 4.41946456286e-06
0.0015 -0.0265 4.9411607476e-06
0.0015 -0.0255 5.99082164106e-06
0.0015 -0.0245 8.92807122563e-06
0.0015 -0.0235 1.72170916803e-05
0.0015 -0.0225 4.1371024679e-05
0.0015 -0.0215 0.00012600171465
0.0015 -0.0205 0.000362250547095
0.0015 -0.0195 0.00115757034374
0.0015 -0.0185 0.0035454743086
0.0015 -0.0175 0.00773082324579
0.0015 -0.0165 0.0124929652701
0.0015 -0.0155 0.0171282532506
0.0015 -0.0145 0.0207181089584
0.0015 -0.0135 0.0225440393939
0.0015 -0.0125 0.0199135559214
0.0015 -0.0115 0.0125247722045
0.0015 -0.0105 0.00641764361188
0.0015 -0.0095 0.00431077109138
0.0015 -0.0085 0.00447906900666
0.0015 -0.0075 0.00569107650974
0.0015 -0.0065 0.00731644901964
0.0015 -0.0055 0.0090190736309
0.0015 -0.0045 0.0106008586694
0.0015 -0.0035 0.0119137800782
0.0015 -0.0025 0.0128247818156
0.0015 -0.0015 0.0132176642148
0.0015 -0.0005 0.013013122421
0.0015 0.0005 0.0121739140545
0.0015 0.0015 0.0107041735085
0.0015 0.0025 0.00869208830645
0.0015 0.0035 0.00636003956984
0.0015 0.0045 0.00406587404711
0.0015 0.0055 0.00222606134435
0.0015 0.0065 0.00112596888321
0.0015 0.0075 0.000616415489667
0.0015 0.0085 0.00034146651633
0.0015 0.0095 0.00016068011526
0.0015 0.0105 6.75738792405e-05
0.0015 0.0115 3.24820061223e-05
0.0015 0.0125 2.04282253989e-05
0.0015 0.0135 1.58340967045e-05
0.0015 0.0145 1.37333636098e-05
0.0015 0.0155 1.25047858578e-05
0.0015 0.0165 1.15860851541e-05
0.0015 0.0175 1.08533805044e-05
0.0015 0.0185 1.02727265082e-05
0.0015 0.0195 9.83600964084e-06
0.0015 0.0205 9.52188949053e-06
0.0015 0.0215 9.27767098149e-06
0.0015 0.0225 9.05709913548e-06
0.0015 0.0235 8.84037155919e-06
0.0015 0.0245 8.61644531867e-06
0.0015 0.0255 8.38231270197e-06
0.0015 0.0265 8.16433358428e-06
0.0015 0.0275 7.94961263704e-06
0.0015 0.0285 7.76146798303e-06
0.0015 0.0295 7.25278228765e-06
0.0015 0.0305 6.72169023471e-06
0.0015 0.0315 3.38918353285e-06
0.0025 -0.0315 1.79781218269e-06
0.0025 -0.0305 3.54894950226e-06
0.0025 -0.0295 3.80894644532e-06
0.0025 -0.0285 4.08556522367e-06
0.0025 -0.0275 4.30630773469e-06
0.0025 -0.0265 4.891443813e-06
0.0025 -0.0255 6.49180529026e-06
0.0025 -0.0245 1.07403931742e-05
0.0025 -0.0235 2.20573509257e-05
0.0025 -0.0225 5.2320065607e-05
0.0025 -0.0215 0.000163615442684
0.0025 -0.0205 0.000483352372728
0.0025 -0.0195 0.00134117974287
0.0025 -0.0185 0.00341372671789
0.0025 -0.0175 0.00684226748808
0.0025 -0.0165 0.0106648865007
0.0025 -0.0155 0.0144121099709
0.0025 -0.0145 0.0177094093668
0.0025 -0.0135 0.019994948813
0.0025 -0.0125 0.0201321595923
0.0025 -0.0115 0.0178139899889
0.0025 -0.0105 0.0149369802398
0.0025 -0.0095 0.0132728270143
0.0025 -0.0085 0.013110179744
0.0025 -0.0075 0.0137887702904
0.0025 -0.0065 0.0147165547418
0.0025 -0.0055 0.0155604722957
0.0025 -0.0045 0.0161853974958
0.0025 -0.0035 0.0165605914563
0.0025 -0.0025 0.0167140427178
0.0025 -0.0015 0.0166807898108
0.0025 -0.0005 0.0164509367154
0.0025 0.0005 0.0159356958501
0.0025 0.0015 0.014989287818
0.0025 0.0025 0.0134537682236
0.0025 0.0035 0.0111830895067
0.0025 0.0045 0.00820607144142
0.0025 0.0055 0.00498403154505
0.0025 0.0065 0.00238678232426
0.0025 0.0075 0.000973192286236
0.0025 0.0085 0.000427343852725
0.0025 0.0095 0.000194202132191
0.0025 0.0105 7.60771482791e-05
0.0025 0.0115 3.5015679643e-05
0.0025 0.0125 2.02844660764e-05
0.0025 0.0135 1.45345475839e-05
0.0025 0.0145 1.19023426959e-05
0.0025 0.0155 1.03007966588e-05
0.0025 0.0165 9.09080232353e-06
0.0025 0.0175 8.15543447317e-06
0.0025 0.0185 7.50907346887e-06
0.0025 0.0195 7.13309840705e-06
0.0025 0.0205 6.95068062933e-06
0.0025 0.0215 6.86893799257e-06
0.0025 0.0225 6.82394074654e-06
0.0025 0.0235 6.79509438962e-06
0.0025 0.0245 6.79378908335e-06
0.0025 0.0255 6.84066089618e-06
0.0025 0.0265 6.94772947747e-06
0.0025 0.0275 7.08921394666e-06
0.0025 0.0285 7.22203694425e-06
0.0025 0.0295 6.9929696789e-06
0.0025 0.0305 6.82934754114e-06
0.0025 0.0315 3.56230108639e-06
0.0035 -0.0315 1.94755395585e-06
0.0035 -0.0305 3.72338644158e-06
0.0035 -0.0295 3.98435816428e-06
0.0035 -0.0285 4.4760889836e-06
0.0035 -0.0275 4.973368955e-06
0.0035 -0.0265 6.09288367795e-06
0.0035 -0.0255 8.9199558208e-06
0.0035 -0.0245 1.61357167627e-05
0.0035 -0.0235 3.68927538277e-05
0.0035 -0.0225 0.000105662958227
0.0035 -0.0215 0.000321339005131
0.0035 -0.0205 0.000893047051096
0.0035 -0.0195 0.00217762767346
0.0035 -0.0185 0.00436173183018
0.0035 -0.0175 0.00692167589832
0.0035 -0.0165 0.00909722618065
0.0035 -0.0155 0.0111050751415
0.0035 -0.0145 0.0133914509861
0.0035 -0.0135 0.0158859610471
0.0035 -0.0125 0.0178500096003
0.0035 -0.0115 0.018646398525
0.0035 -0.0105 0.0186548629901
0.0035 -0.0095 0.018430343588
0.0035 -0.0085 0.0182897018963
0.0035 -0.0075 0.0182086878599
0.0035 -0.0065 0.0180041979234
0.0035 -0.0055 0.0175528497693
0.0035 -0.0045 0.0168753249003
0.0035 -0.0035 0.0161179099309
0.0035 -0.0025 0.0154744141633
0.0035 -0.0015 0.0150956114007
0.0035 -0.0005 0.015016599274
0.0035 0.0005 0.015136588455
0.0035 0.0015 0.0152259410973
0.0035 0.0025 0.0149474513517
0.0035 0.0035 0.0139292735501
0.0035 0.0045 0.0117883137514
0.0035 0.0055 0.00843540927324
0.0035 0.0065 0.00466915226839
0.0035 0.0075 0.0019279194604
0.0035 0.0085 0.00070246243266
0.0035 0.0095 0.000275726416253
0.0035 0.0105 0.000103781587235
0.0035 0.0115 5.03167213793e-05
0.0035 0.0125 3.06601812832e-05
0.0035 0.0135 2.22800991233e-05
0.0035 0.0145 1.77902908623e-05
0.0035 0.0155 1.45387355839e-05
0.0035 0.0165 1.18775650426e-05
0.0035 0.0175 9.83764879146e-06
0.0035 0.0185 8.49018617876e-06
0.0035 0.0195 7.7371784535e-06
0.0035 0.0205 7.36876583764e-06
0.0035 0.0215 7.18846867265e-06
0.0035 0.0225 7.08709858154e-06
0.0035 0.0235 7.04084738762e-06
0.0035 0.0245 7.06596002403e-06
0.0035 0.0255 7.17359117469e-06
0.0035 0.0265 7.34851595894e-06
0.0035 0.0275 7.50606849424e-06
0.0035 0.0285 7.56085776913e-06
0.0035 0.0295 7.14089703386e-06
0.0035 0.0305 7.12987750792e-06
0.0035 0.0315 3.87107923864e-06
0.0045 -0.0315 2.07153569303e-06
0.0045 -0.0305 3.83236378812e-06
0.0045 -0.0295 4.02257839953e-06
0.0045 -0.0285 4.71179086162e-06
0.0045 -0.0275 5.6280699339e-06
0.0045 -0.0265 7.62462079191e-06
0.0045 -0.0255 1.25717083848e-05
0.0045 -0.0245 2.59965094936e-05
0.0045 -0.0235 6.43176602334e-05
0.0045 -0.0225 0.000212950780153
0.0045 -0.0215 0.000665098052291
0.0045 -0.0205 0.00183202638052
0.0045 -0.0195 0.00403428490876
0.0045 -0.0185 0.00664861272395
0.0045 -0.0175 0.00839964251273
0.0045 -0.0165 0.008672993455
0.0045 -0.0155 0.00814603551958
0.0045 -0.0145 0.00836393459917
0.0045 -0.0135 0.0103531489622
0.0045 -0.0125 0.0132280722674
0.0045 -0.0115 0.0156077592843
0.0045 -0.0105 0.0169776234599
0.0045 -0.0095 0.0174073549216
0.0045 -0.0085 0.017141556846
0.0045 -0.0075 0.0163491484162
0.0045 -0.0065 0.0151243212367
0.0045 -0.0055 0.0136040424984
0.0045 -0.0045 0.0120361346769
0.0045 -0.0035 0.0107077625701
0.0045 -0.0025 0.00984032711487
0.0045 -0.0015 0.00955241666643
0.0045 -0.0005 0.00988495142841
0.0045 0.0005 0.0108140900447
0.0045 0.0015 0.0121694580944
0.0045 0.0025 0.0135311965344
0.0045 0.0035 0.0142964645032
0.0045 0.0045 0.0138508279057
0.0045 0.0055 0.0115776209057
0.0045 0.0065 0.00754467338329
0.0045 0.0075 0.00347667551627
0.0045 0.0085 0.0011841237803
0.0045 0.0095 0.00040561257349
0.0045 0.0105 0.000157592256969
0.0045 0.0115 8.63905614124e-05
0.0045 0.0125 5.83763177372e-05
0.0045 0.0135 4.54024055949e-05
0.0045 0.0145 3.63388003734e-05
0.0045 0.0155 2.80521494617e-05
0.0045 0.0165 2.0675271573e-05
0.0045 0.0175 1.50460726083e-05
0.0045 0.0185 1.1399288736e-05
0.0045 0.0195 9.38527679505e-06
0.0045 0.0205 8.35265520152e-06
0.0045 0.0215 7.78190210464e-06
0.0045 0.0225 7.44231235666e-06
0.0045 0.0235 7.27428648948e-06
0.0045 0.0245 7.26716925945e-06
0.0045 0.0255 7.3888534967e-06
0.0045 0.0265 7.56493104703e-06
0.0045 0.0275 7.6543333398e-06
0.0045 0.0285 7.57333270847e-06
0.0045 0.0295 7.04635152972e-06
0.0045 0.0305 7.26345085749e-06
0.0045 0.0315 4.07561925589e-06
0.0055 -0.0315 2.16766996553e-06
0.0055 -0.0305 3.93975619999e-06
0.0055 -0.0295 4.10045193545e-06
0.0055 -0.0285 4.9971614804e-06
0.0055 -0.0275 6.47621402243e-06
0.0055 -0.0265 9.86044806605e-06
0.0055 -0.0255 1.8314602455e-05
0.0055 -0.0245 4.32655508175e-05
0.0055 -0.0235 0.000130992295325
0.0055 -0.0225 0.000431334569877
0.0055 -0.0215 0.00134737895267
0.0055 -0.0205 0.00356829350769
0.0055 -0.0195 0.00678023997011
0.0055 -0.0185 0.0092704548765
0.0055 -0.0175 0.00981346429019
0.0055 -0.0165 0.00848605586213
0.0055 -0.0155 0.00614026968951
0.0055 -0.0145 0.00423846610411
0.0055 -0.0135 0.00478524412929
0.0055 -0.0125 0.00713468163036
0.0055 -0.0115 0.00945816177812
0.0055 -0.0105 0.0109562385505
0.0055 -0.0095 0.0114015174969
0.0055 -0.0085 0.0109224889753
0.0055 -0.0075 0.00981435268845
0.0055 -0.0065 0.00836839390499
0.0055 -0.0055 0.00685801755892
0.0055 -0.0045 0.00554115185014
0.0055 -0.0035 0.00458109254465
0.0055 -0.0025 0.00404169558835
0.0055 -0.0015 0.00395229744187
0.0055 -0.0005 0.00438047097152
0.0055 0.0005 0.0054837584949
0.0055 0.0015 0.00744433545339
0.0055 0.0025 0.0101398037634
0.0055 0.0035 0.0128124438756
0.0055 0.0045 0.0143704343307
0.0055 0.0055 0.0138024596037
0.0055 0.0065 0.0104712031208
0.0055 0.0075 0.00561540275018
0.0055 0.0085 0.00210456065913
0.0055 0.0095 0.000748245144903
0.0055 0.0105 0.000330469390675
0.0055 0.0115 0.000189958015802
0.0055 0.0125 0.000146070859561
0.0055 0.0135 0.000121259804024
0.0055 0.0145 9.81979862726e-05
0.0055 0.0155 7.39153375777e-05
0.0055 0.0165 4.94436638821e-05
0.0055 0.0175 2.99802451975e-05
0.0055 0.0185 1.87971593889e-05
0.0055 0.0195 1.33630256077e-05
0.0055 0.0205 1.06029755666e-05
0.0055 0.0215 9.04886130506e-06
0.0055 0.0225 8.1429013219e-06
0.0055 0.0235 7.68827421944e-06
0.0055 0.0245 7.57228222562e-06
0.0055 0.0255 7.65886060705e-06
0.0055 0.0265 7.78585096942e-06
0.0055 0.0275 7.77305017817e-06
0.0055 0.0285 7.57806912194e-06
0.0055 0.0295 6.99962510971e-06
0.0055 0.0305 7.39989266022e-06
0.0055 0.0315 4.24011286067e-06
0.0065 -0.0315 2.25552857567e-06
0.0065 -0.0305 4.05844556596e-06
0.0065 -0.0295 4.23089689342e-06
0.0065 -0.0285 5.39579353531e-06
0.0065 -0.0275 7.6409929363e-06
0.0065 -0.0265 1.30985208168e-05
0.0065 -0.0255 2.79553002074e-05
0.0065 -0.0245 7.13757710047e-05
0.0065 -0.0235 0.000248479858101
0.0065 -0.0225 0.000831350748141
0.0065 -0.0215 0.00256364074989
0.0065 -0.0205 0.0059661349228
0.0065 -0.0195 0.00936309615715
0.0065 -0.0185 0.0104088184482
0.0065 -0.0175 0.00891655897387
0.0065 -0.0165 0.00620655376538
0.0065 -0.0155 0.00361845971363
0.0065 -0.0145 0.00190606179967
0.0065 -0.0135 0.00156886062933
0.0065 -0.0125 0.00251779546557
0.0065 -0.0115 0.00367106091904
0.0065 -0.0105 0.00448123749292
0.0065 -0.0095 0.00466979234888
0.0065 -0.0085 0.00425010996028
0.0065 -0.0075 0.00354270253566
0.0065 -0.0065 0.00281644417051
0.0065 -0.0055 0.00217747030603
0.0065 -0.0045 0.00167375438541
0.0065 -0.0035 0.00132652825472
0.0065 -0.0025 0.00116036045707
0.0065 -0.0015 0.00118391606198
0.0065 -0.0005 0.00142573150366
0.0065 0.0005 0.00207337512346
0.0065 0.0015 0.00355823446887
0.0065 0.0025 0.00633901918708
0.0065 0.0035 0.0101385839272
0.0065 0.0045 0.0135491830269
0.0065 0.0055 0.014876699877
0.0065 0.0065 0.0128826639152
0.0065 0.0075 0.00811687113259
0.0065 0.0085 0.0036637516345
0.0065 0.0095 0.0015743995963
0.0065 0.0105 0.000902936140531
0.0065 0.0115 0.000633411267992
0.0065 0.0125 0.000531627736636
0.0065 0.0135 0.000454403478303
0.0065 0.0145 0.000365695794522
0.0065 0.0155 0.000262587776112
0.0065 0.0165 0.000148984718589
0.0065 0.0175 6.79254084304e-05
0.0065 0.0185 3.55744116883e-05
0.0065 0.0195 2.20308548489e-05
0.0065 0.0205 1.5313603033e-05
0.0065 0.0215 1.15486851422e-05
0.0065 0.0225 9.39704787145e-06
0.0065 0.0235 8.33028101515e-06
0.0065 0.0245 7.96740223964e-06
0.0065 0.0255 7.95004144765e-06
0.0065 0.0265 7.98820451542e-06
0.0065 0.0275 7.8688784362e-06
0.0065 0.0285 7.58565028515e-06
0.0065 0.0295 6.97608336176e-06
0.0065 0.0305 7.53197158901e-06
0.0065 0.0315 4.38314378754e-06
0.0075 -0.0315 2.32784886203e-06
0.0075 -0.0305 4.19658611276e-06
0.0075 -0.0295 4.46558798632e-06
0.0075 -0.0285 6.02873432387e-06
0.0075 -0.0275 9.4046524718e-06
0.0075 -0.0265 1.79703488597e-05
0.0075 -0.0255 4.3403853467e-05
0.0075 -0.0245 0.000134368385905
0.0075 -0.0235 0.000459391258761
0.0075 -0.0225 0.00151146475582
0.0075 -0.0215 0.00430940983755
0.0075 -0.0205 0.0083816687924
0.0075 -0.0195 0.0106774688454
0.0075 -0.0185 0.00938870750267
0.0075 -0.0175 0.00607017439638
0.0075 -0.0165 0.00308504203604
0.0075 -0.0155 0.00134355685521
0.0075 -0.0145 0.000655965636297
0.0075 -0.0135 0.000605018567635
0.0075 -0.0125 0.000853789865477
0.0075 -0.0115 0.00121283930245
0.0075 -0.0105 0.00160342419818
0.0075 -0.0095 0.00180933716406
0.0075 -0.0085 0.00159513788269
0.0075 -0.0075 0.00119003880663
0.0075 -0.0065 0.000893686171745
0.0075 -0.0055 0.000693992041752
0.0075 -0.0045 0.000529666910682
0.0075 -0.0035 0.00038855945142
0.0075 -0.0025 0.000327496343448
0.0075 -0.0015 0.00036291568286
0.0075 -0.0005 0.000469224256124
0.0075 0.0005 0.000743956422477
0.0075 0.0015 0.0015189329887
0.0075 0.0025 0.00350779794367
0.0075 0.0035 0.00722256642228
0.0075 0.0045 0.0117006361436
0.0075 0.0055 0.0147069576525
0.0075 0.0065 0.0142993457903
0.0075 0.0075 0.0104285614094
0.0075 0.0085 0.00579305046814
0.0075 0.0095 0.00329912286281
0.0075 0.0105 0.0026351981418
0.0075 0.0115 0.00237491617586
0.0075 0.0125 0.00208693913208
0.0075 0.0135 0.00169835481094
0.0075 0.0145 0.00125595555593
0.0075 0.0155 0.000806544727297
0.0075 0.0165 0.000402661218983
0.0075 0.0175 0.000161570783564
0.0075 0.0185 7.59171388819e-05
0.0075 0.0195 4.24252935133e-05
0.0075 0.0205 2.64372334468e-05
0.0075 0.0215 1.7233146413e-05
0.0075 0.0225 1.21072177778e-05
0.0075 0.0235 9.67369606994e-06
0.0075 0.0245 8.72488893863e-06
0.0075 0.0255 8.42613772427e-06
0.0075 0.0265 8.28443656607e-06
0.0075 0.0275 8.0196559462e-06
0.0075 0.0285 7.63326156588e-06
0.0075 0.0295 6.97735593295e-06
0.0075 0.0305 7.63313925683e-06
0.0075 0.0315 4.48490455893e-06
0.0085 -0.0315 2.39803521094e-06
0.0085 -0.0305 4.3825622142e-06
0.0085 -0.0295 4.8670576419e-06
0.0085 -0.0285 7.04398193124e-06
0.0085 -0.0275 1.21211382974e-05
0.0085 -0.0265 2.61358145177e-05
0.0085 -0.0255 6.74020612355e-05
0.0085 -0.0245 0.000238333227916
0.0085 -0.0235 0.000812557073282
0.0085 -0.0225 0.00258267452151
0.0085 -0.0215 0.00633423771604
0.0085 -0.0205 0.01012516591
0.0085 -0.0195 0.0104426342629
0.0085 -0.0185 0.00715707177967
0.0085 -0.0175 0.00344213712831
0.0085 -0.0165 0.00135274149111
0.0085 -0.0155 0.000517972223665
0.0085 -0.0145 0.000254317032513
0.0085 -0.0135 0.000279038120229
0.0085 -0.0125 0.000412796130644
0.0085 -0.0115 0.000593742127047
0.0085 -0.0105 0.000966799087716
0.0085 -0.0095 0.00139682332551
0.0085 -0.0085 0.00129729376208
0.0085 -0.0075 0.000847187116591
0.0085 -0.0065 0.00056565694731
0.0085 -0.0055 0.000407738067532
0.0085 -0.0045 0.000286648457839
0.0085 -0.0035 0.000182746908703
0.0085 -0.0025 0.000129485243594
0.0085 -0.0015 0.000133080276888
0.0085 -0.0005 0.000170640348428
0.0085 0.0005 0.000309185689405
0.0085 0.0015 0.000715049685685
0.0085 0.0025 0.00189894511453
0.0085 0.0035 0.0048157321761
0.0085 0.0045 0.00939228784064
0.0085 0.0055 0.0134644644746
0.0085 0.0065 0.0144508836558
0.0085 0.0075 0.0117625023783
0.0085 0.0085 0.00772036989091
0.0085 0.0095 0.00571036838173
0.0085 0.0105 0.0057794320402
0.0085 0.0115 0.00602482232745
0.0085 0.0125 0.00576824056984
0.0085 0.0135 0.00492271973082
0.0085 0.0145 0.00364840056402
0.0085 0.0155 0.00223996430156
0.0085 0.0165 0.00107341468084
0.0085 0.0175 0.000421769902515
0.0085 0.0185 0.000181097550432
0.0085 0.0195 0.000100568399705
0.0085 0.0205 5.69356423927e-05
0.0085 0.0215 3.06395854065e-05
0.0085 0.0225 1.80607187072e-05
0.0085 0.0235 1.25715081291e-05
0.0085 0.0245 1.02036344395e-05
0.0085 0.0255 9.2325195391e-06
0.0085 0.0265 8.72721233354e-06
0.0085 0.0275 8.22982707964e-06
0.0085 0.0285 7.69820545343e-06
0.0085 0.0295 6.96955280713e-06
0.0085 0.0305 7.66604431854e-06
0.0085 0.0315 4.52598450676e-06
0.0095 -0.0315 2.49018788613e-06
0.0095 -0.0305 4.66219237944e-06
0.0095 -0.0295 5.52818976398e-06
0.0095 -0.0285 8.68780043432e-06
0.0095 -0.0275 1.63721643941e-05
0.0095 -0.0265 3.92014665817e-05
0.0095 -0.0255 0.000120672053847
0.0095 -0.0245 0.000416116714495
0.0095 -0.0235 0.0013705675237
0.0095 -0.0225 0.00402709357461
0.0095 -0.0215 0.00826627701314
0.0095 -0.0205 0.0108527713299
0.0095 -0.0195 0.00908692188535
0.0095 -0.0185 0.00492677257191
0.0095 -0.0175 0.00189968402346
0.0095 -0.0165 0.00066950448286
0.0095 -0.0155 0.00025254190295
0.0095 -0.0145 0.000135775417762
0.0095 -0.0135 0.000134572092669
0.0095 -0.0125 0.000189920796052
0.0095 -0.0115 0.000302089603577
0.0095 -0.0105 0.000606898825791
0.0095 -0.0095 0.00109272207564
0.0095 -0.0085 0.00109732432947
0.0095 -0.0075 0.000643302006008
0.0095 -0.0065 0.000356376700768
0.0095 -0.0055 0.000228121008716
0.0095 -0.0045 0.000153028512117
0.0095 -0.0035 0.00010155010384
0.0095 -0.0025 7.27179186602e-05
0.0095 -0.0015 6.42750183566e-05
0.0095 -0.0005 7.55648764757e-05
0.0095 0.0005 0.000152904375582
0.0095 0.0015 0.000395261826058
0.0095 0.0025 0.00109810187162
0.0095 0.0035 0.00315760588863
0.0095 0.0045 0.00721455471709
0.0095 0.0055 0.0116656383626
0.0095 0.0065 0.013524209302
0.0095 0.0075 0.0116540426759
0.0095 0.0085 0.00815420597966
0.0095 0.0095 0.00677467628491
0.0095 0.0105 0.00730404914572
0.0095 0.0115 0.00778300008875
0.0095 0.0125 0.00802723920331
0.0095 0.0135 0.00784301277492
0.0095 0.0145 0.00689612425922
0.0095 0.0155 0.00507046667661
0.0095 0.0165 0.00286236100848
0.0095 0.0175 0.00125901127831
0.0095 0.0185 0.00056861072701
0.0095 0.0195 0.000307588604274
0.0095 0.0205 0.000146901417399
0.0095 0.0215 6.22155107823e-05
0.0095 0.0225 3.12819444277e-05
0.0095 0.0235 1.82407134523e-05
0.0095 0.0245 1.27647902787e-05
0.0095 0.0255 1.04673705365e-05
0.0095 0.0265 9.32074293159e-06
0.0095 0.0275 8.47153052056e-06
0.0095 0.0285 7.74743605177e-06
0.0095 0.0295 6.92574311957e-06
0.0095 0.0305 7.60709192233e-06
0.0095 0.0315 4.49449085115e-06
0.0105 -0.0315 2.6174991589e-06
0.0105 -0.0305 5.06945570544e-06
0.0105 -0.0295 6.53527255909e-06
0.0105 -0.0285 1.12756326746e-05
0.0105 -0.0275 2.36894511269e-05
0.0105 -0.0265 5.95804248507e-05
0.0105 -0.0255 0.000206818209839
0.0105 -0.0245 0.000703290689339
0.0105 -0.0235 0.00222925278855
0.0105 -0.0225 0.00572210317947
0.0105 -0.0215 0.00975520830308
0.0105 -0.0205 0.0105726696371
0.0105 -0.0195 0.00724729854087
0.0105 -0.0185 0.00323283815361
0.0105 -0.0175 0.00112090675972
0.0105 -0.0165 0.000376261044098
0.0105 -0.0155 0.000139932502097
0.0105 -0.0145 8.53822699513e-05
0.0105 -0.0135 8.01016137598e-05
0.0105 -0.0125 0.000110655033665
0.0105 -0.0115 0.000199534802683
0.0105 -0.0105 0.000438726023051
0.0105 -0.0095 0.00100470291006
0.0105 -0.0085 0.00124809737492
0.0105 -0.0075 0.000764355624643
0.0105 -0.0065 0.000316575563633
0.0105 -0.0055 0.000160113862973
0.0105 -0.0045 9.4562055433e-05
0.0105 -0.0035 6.31312743881e-05
0.0105 -0.0025 4.78209067705e-05
0.0105 -0.0015 4.37389930285e-05
0.0105 -0.0005 5.38653520006e-05
0.0105 0.0005 9.70340456299e-05
0.0105 0.0015 0.000242262383788
0.0105 0.0025 0.000707359497421
0.0105 0.0035 0.002178771613
0.0105 0.0045 0.00557750565166
0.0105 0.0055 0.00994018725258
0.0105 0.0065 0.0121541475872
0.0105 0.0075 0.0104976697566
0.0105 0.0085 0.00678450262464
0.0105 0.0095 0.00507943350923
0.0105 0.0105 0.00494903436477
0.0105 0.0115 0.00488988862904
0.0105 0.0125 0.00553080046727
0.0105 0.0135 0.00677463787182
0.0105 0.0145 0.00786848580399
0.0105 0.0155 0.00772941815791
0.0105 0.0165 0.00585337711555
0.0105 0.0175 0.00335185734723
0.0105 0.0185 0.00163531312095
0.0105 0.0195 0.00080074593315
0.0105 0.0205 0.000366697903783
0.0105 0.0215 0.000145566948832
0.0105 0.0225 5.7798254125e-05
0.0105 0.0235 2.76656300018e-05
0.0105 0.0245 1.66612073131e-05
0.0105 0.0255 1.21838620463e-05
0.0105 0.0265 1.00525675574e-05
0.0105 0.0275 8.71777286277e-06
0.0105 0.0285 7.76155674347e-06
0.0105 0.0295 6.83846674343e-06
0.0105 0.0305 7.4369435246e-06
0.0105 0.0315 4.37386630244e-06
0.0115 -0.0315 2.80709352702e-06
0.0115 -0.0305 5.6346779241e-06
0.0115 -0.0295 7.89559856615e-06
0.0115 -0.0285 1.49617475211e-05
0.0115 -0.0275 3.54595326338e-05
0.0115 -0.0265 0.000104919012071
0.0115 -0.0255 0.000349337579981
0.0115 -0.0245 0.00112927500272
0.0115 -0.0235 0.00339069051742
0.0115 -0.0225 0.00744682861163
0.0115 -0.0215 0.0105737254211
0.0115 -0.0205 0.00951120384383
0.0115 -0.0195 0.00540196160649
0.0115 -0.0185 0.0020677595378
0.0115 -0.0175 0.000701322104887
0.0115 -0.0165 0.00025150839329
0.0115 -0.0155 0.000106077589568
0.0115 -0.0145 6.51149048689e-05
0.0115 -0.0135 5.93876086139e-05
0.0115 -0.0125 8.41184131739e-05
0.0115 -0.0115 0.000177210172176
0.0115 -0.0105 0.000472536634357
0.0115 -0.0095 0.00123511288046
0.0115 -0.0085 0.00171432156966
0.0115 -0.0075 0.0011198511556
0.0115 -0.0065 0.000409170384914
0.0115 -0.0055 0.000166053532647
0.0115 -0.0045 7.93097920633e-05
0.0115 -0.0035 4.83664960595e-05
0.0115 -0.0025 3.7428274154e-05
0.0115 -0.0015 3.71775858492e-05
0.0115 -0.0005 4.74002602332e-05
0.0115 0.0005 7.52780698646e-05
0.0115 0.0015 0.000178255773446
0.0115 0.0025 0.000539745336554
0.0115 0.0035 0.00171545836449
0.0115 0.0045 0.00467028551876
0.0115 0.0055 0.0088353216172
0.0115 0.0065 0.0110991248269
0.0115 0.0075 0.00928834737547
0.0115 0.0085 0.00502617239913
0.0115 0.0095 0.00259809999058
0.0115 0.0105 0.00198341400468
0.0115 0.0115 0.00165221636739
0.0115 0.0125 0.00215869104482
0.0115 0.0135 0.00354829889923
0.0115 0.0145 0.00567426627613
0.0115 0.0155 0.00770587934285
0.0115 0.0165 0.00805528738703
0.0115 0.0175 0.00625388072551
0.0115 0.0185 0.00367829388359
0.0115 0.0195 0.00176631751437
0.0115 0.0205 0.000759738332026
0.0115 0.0215 0.000290132268999
0.0115 0.0225 9.77438079164e-05
0.0115 0.0235 4.14570007436e-05
0.0115 0.0245 2.22345224273e-05
0.0115 0.0255 1.45874798939e-05
0.0115 0.0265 1.10172317438e-05
0.0115 0.0275 9.01308313942e-06
0.0115 0.0285 7.77007857641e-06
0.0115 0.0295 6.74433942579e-06
0.0115 0.0305 7.16071550221e-06
0.0115 0.0315 4.14822509064e-06
0.0125 -0.0315 3.07530662624e-06
0.0125 -0.0305 6.36125274681e-06
0.0125 -0.0295 9.53194179861e-06
0.0125 -0.0285 1.94841564123e-05
0.0125 -0.0275 4.96078547727e-05
0.0125 -0.0265 0.000167981168686
0.0125 -0.0255 0.00055117970284
0.0125 -0.0245 0.00173359771998
0.0125 -0.0235 0.00476477946335
0.0125 -0.0225 0.0089347361994
0.0125 -0.0215 0.0106515336912
0.0125 -0.0205 0.00798563399738
0.0125 -0.0195 0.00380562782193
0.0125 -0.0185 0.00131050509014
0.0125 -0.0175 0.000439123422342
0.0125 -0.0165 0.000175628034557
0.0125 -0.0155 8.97504455036e-05
0.0125 -0.0145 5.63485980984e-05
0.0125 -0.0135 5.0732968657e-05
0.0125 -0.0125 7.41682851588e-05
0.0125 -0.0115 0.000171217680001
0.0125 -0.0105 0.000499733267683
0.0125 -0.0095 0.00134753431438
0.0125 -0.0085 0.0020557989859
0.0125 -0.0075 0.00152929263214
0.0125 -0.0065 0.000595140374033
0.0125 -0.0055 0.000202993580762
0.0125 -0.0045 8.33907558821e-05
0.0125 -0.0035 4.5768172413e-05
0.0125 -0.0025 3.49975321999e-05
0.0125 -0.0015 3.65762239707e-05
0.0125 -0.0005 4.90385353937e-05
0.0125 0.0005 8.01295420466e-05
0.0125 0.0015 0.000179449016057
0.0125 0.0025 0.000505459121979
0.0125 0.0035 0.00159982443421
0.0125 0.0045 0.00444079000623
0.0125 0.0055 0.00853137682341
0.0125 0.0065 0.0106895689282
0.0125 0.0075 0.0085585560055
0.0125 0.0085 0.00408219024824
0.0125 0.0095 0.00143927574314
0.0125 0.0105 0.000877569311266
0.0125 0.0115 0.000615815589104
0.0125 0.0125 0.000785955151838
0.0125 0.0135 0.00144292731384
0.0125 0.0145 0.00286709631728
0.0125 0.0155 0.00523127324805
0.0125 0.0165 0.00753190020455
0.0125 0.0175 0.00799706469304
0.0125 0.0185 0.00612661773794
0.0125 0.0195 0.00335844773611
0.0125 0.0205 0.00137622505897
0.0125 0.0215 0.000475124417127
0.0125 0.0225 0.000149793438539
0.0125 0.0235 6.16835780024e-05
0.0125 0.0245 3.1075161416e-05
0.0125 0.0255 1.85407599459e-05
0.0125 0.0265 1.26438271662e-05
0.0125 0.0275 9.560468195e-06
0.0125 0.0285 7.8874531765e-06
0.0125 0.0295 6.72653989213e-06
0.0125 0.0305 6.9341334647e-06
0.0125 0.0315 3.93931484669e-06
0.0135 -0.0315 3.42769649122e-06
0.0135 -0.0305 7.26627355768e-06
0.0135 -0.0295 1.14523500561e-05
0.0135 -0.0285 2.44208560937e-05
0.0135 -0.0275 6.3384133846e-05
0.0135 -0.0265 0.000224437435156
0.0135 -0.0255 0.00077204512554
0.0135 -0.0245 0.00248941271953
0.0135 -0.0235 0.00620338326428
0.0135 -0.0225 0.00999444451742
0.0135 -0.0215 0.0100777494528
0.0135 -0.0205 0.00632401110594
0.0135 -0.0195 0.00256140468578
0.0135 -0.0185 0.000840053285855
0.0135 -0.0175 0.000295978783364
0.0135 -0.0165 0.000130653749273
0.0135 -0.0155 7.47646502426e-05
0.0135 -0.0145 5.00768481838e-05
0.0135 -0.0135 4.60851189238e-05
0.0135 -0.0125 6.72129276698e-05
0.0135 -0.0115 0.00014793194942
0.0135 -0.0105 0.000399264936759
0.0135 -0.0095 0.00118931141674
0.0135 -0.0085 0.00217747442816
0.0135 -0.0075 0.00187093123836
0.0135 -0.0065 0.000757702409117
0.0135 -0.0055 0.000231117587669
0.0135 -0.0045 9.24734075263e-05
0.0135 -0.0035 4.86203654556e-05
0.0135 -0.0025 3.69121734576e-05
0.0135 -0.0015 4.00727955198e-05
0.0135 -0.0005 5.73978570394e-05
0.0135 0.0005 9.89544977283e-05
0.0135 0.0015 0.000211679682905
0.0135 0.0025 0.000540775767739
0.0135 0.0035 0.00168448887751
0.0135 0.0045 0.00464790020647
0.0135 0.0055 0.00875290778646
0.0135 0.0065 0.0105985417828
0.0135 0.0075 0.00798046909502
0.0135 0.0085 0.00352589588483
0.0135 0.0095 0.00110921026734
0.0135 0.0105 0.000609876584554
0.0135 0.0115 0.000370945157176
0.0135 0.0125 0.00036480226095
0.0135 0.0135 0.000600344506813
0.0135 0.0145 0.00121091338296
0.0135 0.0155 0.00263076918422
0.0135 0.0165 0.00512075751187
0.0135 0.0175 0.00753811768356
0.0135 0.0185 0.00780820106551
0.0135 0.0195 0.00540928318801
0.0135 0.0205 0.00241546860896
0.0135 0.0215 0.000760851862882
0.0135 0.0225 0.000240389387253
0.0135 0.0235 0.000100417127517
0.0135 0.0245 4.85806147705e-05
0.0135 0.0255 2.66032599386e-05
0.0135 0.0265 1.59769322844e-05
0.0135 0.0275 1.08149897649e-05
0.0135 0.0285 8.35074382299e-06
0.0135 0.0295 6.91606480677e-06
0.0135 0.0305 6.95757186989e-06
0.0135 0.0315 3.90569691208e-06
0.0145 -0.0315 3.90490593894e-06
0.0145 -0.0305 8.47331965014e-06
0.0145 -0.0295 1.39911564429e-05
0.0145 -0.0285 3.06415428422e-05
0.0145 -0.0275 7.93741954236e-05
0.0145 -0.0265 0.000284328192296
0.0145 -0.0255 0.00103359000129
0.0145 -0.0245 0.00336886446893
0.0145 -0.0235 0.00756884486078
0.0145 -0.0225 0.0105568541577
0.0145 -0.0215 0.00905400176619
0.0145 -0.0205 0.00479689263319
0.0145 -0.0195 0.0016884122445
0.0145 -0.0185 0.000536030098548
0.0145 -0.0175 0.000211354588414
0.0145 -0.0165 0.00010740432045
0.0145 -0.0155 6.32692577035e-05
0.0145 -0.0145 4.46218420956e-05
0.0145 -0.0135 4.25681859541e-05
0.0145 -0.0125 6.03955496182e-05
0.0145 -0.0115 0.000121257879115
0.0145 -0.0105 0.000297664503583
0.0145 -0.0095 0.00100292576772
0.0145 -0.0085 0.00218008168522
0.0145 -0.0075 0.00205270194423
0.0145 -0.0065 0.000833519118245
0.0145 -0.0055 0.000241249643356
0.0145 -0.0045 9.98449280972e-05
0.0145 -0.0035 5.34672371465e-05
0.0145 -0.0025 4.13814774683e-05
0.0145 -0.0015 4.66303315866e-05
0.0145 -0.0005 7.0403515914e-05
0.0145 0.0005 0.000126333692567