% Model:              Benchmark260518.mph
% Version:            COMSOL 6.2.0.339
% Date:               May 20 2026, 00:05
% Dimension:          2
% Nodes:              4096
% Expressions:        1
% Description:        速度大小
% Length unit:        m
% x                       y                        spf.U (m/s)
% mirrored_by_python_y_to_minus_y, coord_match_decimals=12
0.0005 -0.0315 4.95754646951e-06
0.0005 -0.0305 9.82625326224e-06
0.0005 -0.0295 1.07152610238e-05
0.0005 -0.0285 1.21445398293e-05
0.0005 -0.0275 1.40456807632e-05
0.0005 -0.0265 1.75379619174e-05
0.0005 -0.0255 2.52103371479e-05
0.0005 -0.0245 4.63655771786e-05
0.0005 -0.0235 0.000143240589647
0.0005 -0.0225 0.000264027963951
0.0005 -0.0215 0.000430491081245
0.0005 -0.0205 0.000780217603799
0.0005 -0.0195 0.00141735292979
0.0005 -0.0185 0.00287686629414
0.0005 -0.0175 0.00545242000678
0.0005 -0.0165 0.00665064921715
0.0005 -0.0155 0.00607959410971
0.0005 -0.0145 0.00732526781984
0.0005 -0.0135 0.0134763835311
0.0005 -0.0125 0.0226556913944
0.0005 -0.0115 0.0337494853914
0.0005 -0.0105 0.0418860297083
0.0005 -0.0095 0.0443580800144
0.0005 -0.0085 0.0282428019478
0.0005 -0.0075 0.00591890961005
0.0005 -0.0065 0.00166668307134
0.0005 -0.0055 0.00234980556573
0.0005 -0.0045 0.00294837291119
0.0005 -0.0035 0.00344042606642
0.0005 -0.0025 0.00355316013894
0.0005 -0.0015 0.00302892949607
0.0005 -0.0005 0.00190026466788
0.0005 0.0005 0.00112470354674
0.0005 0.0015 0.00224711248893
0.0005 0.0025 0.00373424943586
0.0005 0.0035 0.00497623909085
0.0005 0.0045 0.00577530878614
0.0005 0.0055 0.0059871006625
0.0005 0.0065 0.00558069018438
0.0005 0.0075 0.00465260808259
0.0005 0.0085 0.00341568601295
0.0005 0.0095 0.00214793343257
0.0005 0.0105 0.00110929141497
0.0005 0.0115 0.000477856246778
0.0005 0.0125 0.000288920822269
0.0005 0.0135 0.000281560249554
0.0005 0.0145 0.000229048638098
0.0005 0.0155 0.000121853538021
0.0005 0.0165 4.57862241298e-05
0.0005 0.0175 2.0773510665e-05
0.0005 0.0185 1.20217369224e-05
0.0005 0.0195 8.93302067907e-06
0.0005 0.0205 7.6878884774e-06
0.0005 0.0215 7.06930852319e-06
0.0005 0.0225 6.65730659556e-06
0.0005 0.0235 6.35279963568e-06
0.0005 0.0245 6.09328308876e-06
0.0005 0.0255 5.83298221491e-06
0.0005 0.0265 5.57038530878e-06
0.0005 0.0275 5.28447321657e-06
0.0005 0.0285 4.9723631124e-06
0.0005 0.0295 4.42162257e-06
0.0005 0.0305 3.883698335e-06
0.0005 0.0315 1.92042527332e-06
0.0015 -0.0315 9.5615492645e-06
0.0015 -0.0305 1.83354547138e-05
0.0015 -0.0295 1.90306391675e-05
0.0015 -0.0285 2.13703983832e-05
0.0015 -0.0275 2.54728001978e-05
0.0015 -0.0265 3.51202086161e-05
0.0015 -0.0255 5.97978860611e-05
0.0015 -0.0245 0.000122960687185
0.0015 -0.0235 0.000221017688238
0.0015 -0.0225 0.000391775398122
0.0015 -0.0215 0.000791223365985
0.0015 -0.0205 0.00179913204107
0.0015 -0.0195 0.00396069308517
0.0015 -0.0185 0.00631975142222
0.0015 -0.0175 0.00829790316166
0.0015 -0.0165 0.00957790870972
0.0015 -0.0155 0.00888377207702
0.0015 -0.0145 0.0073925689929
0.0015 -0.0135 0.0105194206031
0.0015 -0.0125 0.0185992893884
0.0015 -0.0115 0.0296159182262
0.0015 -0.0105 0.0390253432969
0.0015 -0.0095 0.0433026836514
0.0015 -0.0085 0.0368068961384
0.0015 -0.0075 0.0185837325807
0.0015 -0.0065 0.00444451221551
0.0015 -0.0055 0.0024197581942
0.0015 -0.0045 0.00341127123835
0.0015 -0.0035 0.00340059670352
0.0015 -0.0025 0.00233930188846
0.0015 -0.0015 0.00207240786559
0.0015 -0.0005 0.00507100005288
0.0015 0.0005 0.00888733971235
0.0015 0.0015 0.0124556580885
0.0015 0.0025 0.0153663332711
0.0015 0.0035 0.0174513179339
0.0015 0.0045 0.0185904178938
0.0015 0.0055 0.0186564801629
0.0015 0.0065 0.0175957033335
0.0015 0.0075 0.0154671463828
0.0015 0.0085 0.0124818626404
0.0015 0.0095 0.00903715725322
0.0015 0.0105 0.00568752123913
0.0015 0.0115 0.00297610708848
0.0015 0.0125 0.00133210383881
0.0015 0.0135 0.000704663071023
0.0015 0.0145 0.000439831636329
0.0015 0.0155 0.000222684508885
0.0015 0.0165 8.88316497651e-05
0.0015 0.0175 4.09431928366e-05
0.0015 0.0185 2.21376139147e-05
0.0015 0.0195 1.50211113514e-05
0.0015 0.0205 1.21987624495e-05
0.0015 0.0215 1.09200885012e-05
0.0015 0.0225 1.02158342346e-05
0.0015 0.0235 9.77568802179e-06
0.0015 0.0245 9.46687215129e-06
0.0015 0.0255 9.22182980938e-06
0.0015 0.0265 9.02997740527e-06
0.0015 0.0275 8.85730552585e-06
0.0015 0.0285 8.6777146186e-06
0.0015 0.0295 8.10940590273e-06
0.0015 0.0305 7.44129742444e-06
0.0015 0.0315 3.72470928717e-06
0.0025 -0.0315 1.01263731093e-05
0.0025 -0.0305 1.82395453439e-05
0.0025 -0.0295 1.77883984497e-05
0.0025 -0.0285 2.10784311694e-05
0.0025 -0.0275 2.84801298668e-05
0.0025 -0.0265 4.87198601908e-05
0.0025 -0.0255 0.000103608948354
0.0025 -0.0245 0.00022534694523
0.0025 -0.0235 0.000465773060717
0.0025 -0.0225 0.000906487723246
0.0025 -0.0215 0.00201750177244
0.0025 -0.0205 0.00470974413517
0.0025 -0.0195 0.00839139801368
0.0025 -0.0185 0.0104216908914
0.0025 -0.0175 0.0104953706749
0.0025 -0.0165 0.0106659991705
0.0025 -0.0155 0.0104473629548
0.0025 -0.0145 0.00851710780035
0.0025 -0.0135 0.00764912888408
0.0025 -0.0125 0.0134382562779
0.0025 -0.0115 0.0240289213027
0.0025 -0.0105 0.0344535223292
0.0025 -0.0095 0.0405538781455
0.0025 -0.0085 0.039853937478
0.0025 -0.0075 0.0305792550928
0.0025 -0.0065 0.0181037124436
0.0025 -0.0055 0.00977264494976
0.0025 -0.0045 0.00698194406538
0.0025 -0.0035 0.00778087375505
0.0025 -0.0025 0.0110748572509
0.0025 -0.0015 0.0156615567286
0.0025 -0.0005 0.0203458533537
0.0025 0.0005 0.0243161598366
0.0025 0.0015 0.027160800638
0.0025 0.0025 0.0288965163319
0.0025 0.0035 0.0297358270936
0.0025 0.0045 0.0298690940777
0.0025 0.0055 0.0293719763637
0.0025 0.0065 0.028200487543
0.0025 0.0075 0.0262162667728
0.0025 0.0085 0.0232460275356
0.0025 0.0095 0.0191887674389
0.0025 0.0105 0.0142395968958
0.0025 0.0115 0.00901020962986
0.0025 0.0125 0.00452424286132
0.0025 0.0135 0.00181320675065
0.0025 0.0145 0.000731521877105
0.0025 0.0155 0.000323079610273
0.0025 0.0165 0.00012897836456
0.0025 0.0175 5.22180887727e-05
0.0025 0.0185 2.49560629324e-05
0.0025 0.0195 1.44832150916e-05
0.0025 0.0205 1.01798801039e-05
0.0025 0.0215 8.39061402132e-06
0.0025 0.0225 7.6097821675e-06
0.0025 0.0235 7.26711745986e-06
0.0025 0.0245 7.17245425364e-06
0.0025 0.0255 7.26195343375e-06
0.0025 0.0265 7.49558603181e-06
0.0025 0.0275 7.79740365388e-06
0.0025 0.0285 8.05657461772e-06
0.0025 0.0295 7.8333332817e-06
0.0025 0.0305 7.46840654482e-06
0.0025 0.0315 3.82411531518e-06
0.0035 -0.0315 1.10924735794e-05
0.0035 -0.0305 1.90888932611e-05
0.0035 -0.0295 1.82675385274e-05
0.0035 -0.0285 2.39213398864e-05
0.0035 -0.0275 3.71823853939e-05
0.0035 -0.0265 7.19101802466e-05
0.0035 -0.0255 0.000165047921966
0.0035 -0.0245 0.000422373820415
0.0035 -0.0235 0.000981300651291
0.0035 -0.0225 0.00218401540662
0.0035 -0.0215 0.004969397625
0.0035 -0.0205 0.00916665231861
0.0035 -0.0195 0.0118474862078
0.0035 -0.0185 0.0108561911018
0.0035 -0.0175 0.00829567466392
0.0035 -0.0165 0.00737621365897
0.0035 -0.0155 0.00806525972292
0.0035 -0.0145 0.00800395775716
0.0035 -0.0135 0.00611283514277
0.0035 -0.0125 0.00793994372605
0.0035 -0.0115 0.0172208971108
0.0035 -0.0105 0.0280952765093
0.0035 -0.0095 0.03604302874
0.0035 -0.0085 0.0392430016991
0.0035 -0.0075 0.0370141501968
0.0035 -0.0065 0.0311927639255
0.0035 -0.0055 0.0254436247371
0.0035 -0.0045 0.0228150534015
0.0035 -0.0035 0.023683938447
0.0035 -0.0025 0.0267031116894
0.0035 -0.0015 0.0302686204408
0.0035 -0.0005 0.0331998178049
0.0035 0.0005 0.0349284136251
0.0035 0.0015 0.0354598493797
0.0035 0.0025 0.0351661764881
0.0035 0.0035 0.0344897131941
0.0035 0.0045 0.0337702899807
0.0035 0.0055 0.0331299882541
0.0035 0.0065 0.0324478913397
0.0035 0.0075 0.0314709589112
0.0035 0.0085 0.0298797481438
0.0035 0.0095 0.0272326299165
0.0035 0.0105 0.023069369458
0.0035 0.0115 0.0172674150506
0.0035 0.0125 0.0106250049034
0.0035 0.0135 0.00499810093055
0.0035 0.0145 0.00186360337949
0.0035 0.0155 0.000687428943848
0.0035 0.0165 0.000245170401395
0.0035 0.0175 8.43379843735e-05
0.0035 0.0185 3.80023002521e-05
0.0035 0.0195 2.0248932042e-05
0.0035 0.0205 1.31409022062e-05
0.0035 0.0215 1.0163970221e-05
0.0035 0.0225 8.79275801497e-06
0.0035 0.0235 8.14180828548e-06
0.0035 0.0245 7.91438749558e-06
0.0035 0.0255 7.99043243382e-06
0.0035 0.0265 8.26613275805e-06
0.0035 0.0275 8.56499028847e-06
0.0035 0.0285 8.68362112708e-06
0.0035 0.0295 8.14370476697e-06
0.0035 0.0305 7.69284657658e-06
0.0035 0.0315 4.01942631389e-06
0.0045 -0.0315 1.18330542301e-05
0.0045 -0.0305 1.97626520301e-05
0.0045 -0.0295 1.87633591225e-05
0.0045 -0.0285 2.73235319364e-05
0.0045 -0.0275 4.84588230587e-05
0.0045 -0.0265 0.000102874274186
0.0045 -0.0255 0.000241692395305
0.0045 -0.0245 0.00070000803762
0.0045 -0.0235 0.00191216729631
0.0045 -0.0225 0.00469006121344
0.0045 -0.0215 0.0090654917753
0.0045 -0.0205 0.0122501176419
0.0045 -0.0195 0.0112907800654
0.0045 -0.0185 0.00740180246143
0.0045 -0.0175 0.0041356864718
0.0045 -0.0165 0.00316497413534
0.0045 -0.0155 0.00390847465661
0.0045 -0.0145 0.00502095157206
0.0045 -0.0135 0.00489272104528
0.0045 -0.0125 0.00401248145238
0.0045 -0.0115 0.00999580995204
0.0045 -0.0105 0.0200660075075
0.0045 -0.0095 0.0292936744928
0.0045 -0.0085 0.0352674488976
0.0045 -0.0075 0.0372410734037
0.0045 -0.0065 0.0364050175182
0.0045 -0.0055 0.0346566297578
0.0045 -0.0045 0.0337777967661
0.0045 -0.0035 0.0344572904681
0.0045 -0.0025 0.0360625451121
0.0045 -0.0015 0.0374360935689
0.0045 -0.0005 0.0376867695836
0.0045 0.0005 0.0365611837482
0.0045 0.0015 0.0344121659017
0.0045 0.0025 0.0319339747516
0.0045 0.0035 0.0298382785088
0.0045 0.0045 0.0285978352074
0.0045 0.0055 0.0283642332702
0.0045 0.0065 0.0289544018226
0.0045 0.0075 0.0298619748292
0.0045 0.0085 0.0304241827695
0.0045 0.0095 0.0300636919835
0.0045 0.0105 0.0282553367477
0.0045 0.0115 0.0243204063683
0.0045 0.0125 0.0179315533995
0.0045 0.0135 0.0103559104182
0.0045 0.0145 0.00437844855675
0.0045 0.0155 0.00147502722308
0.0045 0.0165 0.00050314349328
0.0045 0.0175 0.000167034635614
0.0045 0.0185 6.31782225501e-05
0.0045 0.0195 3.12034035665e-05
0.0045 0.0205 1.97229028139e-05
0.0045 0.0215 1.46776458216e-05
0.0045 0.0225 1.20563503354e-05
0.0045 0.0235 1.04968397655e-05
0.0045 0.0245 9.62941444904e-06
0.0045 0.0255 9.30092164153e-06
0.0045 0.0265 9.30438760381e-06
0.0045 0.0275 9.33107699703e-06
0.0045 0.0285 9.11235487605e-06
0.0045 0.0295 8.25456767889e-06
0.0045 0.0305 7.71517552493e-06
0.0045 0.0315 4.0654842434e-06
0.0055 -0.0315 1.26811087484e-05
0.0055 -0.0305 2.07791256381e-05
0.0055 -0.0295 1.98227990655e-05
0.0055 -0.0285 3.17359976047e-05
0.0055 -0.0275 6.3465539572e-05
0.0055 -0.0265 0.000148908543958
0.0055 -0.0255 0.000406047177563
0.0055 -0.0245 0.00122534762879
0.0055 -0.0235 0.00362257051908
0.0055 -0.0225 0.0080740743607
0.0055 -0.0215 0.0120079518181
0.0055 -0.0205 0.0117513922908
0.0055 -0.0195 0.00768322360688
0.0055 -0.0185 0.00359323623541
0.0055 -0.0175 0.00162791458161
0.0055 -0.0165 0.00126689828128
0.0055 -0.0155 0.00157535369545
0.0055 -0.0145 0.00220183221788
0.0055 -0.0135 0.0028312282492
0.0055 -0.0125 0.00259971532044
0.0055 -0.0115 0.00417997499318
0.0055 -0.0105 0.0113515849367
0.0055 -0.0095 0.0202380887165
0.0055 -0.0085 0.0278508778063
0.0055 -0.0075 0.0325176036255
0.0055 -0.0065 0.0344912409822
0.0055 -0.0055 0.035076456485
0.0055 -0.0045 0.0354499429852
0.0055 -0.0035 0.0359722292579
0.0055 -0.0025 0.0360931529845
0.0055 -0.0015 0.0349703877805
0.0055 -0.0005 0.0321932880542
0.0055 0.0005 0.0281625392413
0.0055 0.0015 0.0238340300212
0.0055 0.0025 0.0201679760471
0.0055 0.0035 0.0177688319197
0.0055 0.0045 0.0168295345708
0.0055 0.0055 0.0173709705601
0.0055 0.0065 0.0193551769659
0.0055 0.0075 0.0224552425579
0.0055 0.0085 0.0258688262965
0.0055 0.0095 0.0284864085355
0.0055 0.0105 0.0294424369373
0.0055 0.0115 0.0282325474812
0.0055 0.0125 0.0240580411782
0.0055 0.0135 0.0166843672897
0.0055 0.0145 0.00849756875299
0.0055 0.0155 0.00309829133337
0.0055 0.0165 0.000990574475681
0.0055 0.0175 0.000326270092573
0.0055 0.0185 0.000112075972202
0.0055 0.0195 5.74080898857e-05
0.0055 0.0205 3.73939667275e-05
0.0055 0.0215 2.80638435861e-05
0.0055 0.0225 2.18595050485e-05
0.0055 0.0235 1.7270747688e-05
0.0055 0.0245 1.40723050616e-05
0.0055 0.0255 1.21726395216e-05
0.0055 0.0265 1.11675722007e-05
0.0055 0.0275 1.04766530279e-05
0.0055 0.0285 9.71648687067e-06
0.0055 0.0295 8.48816979393e-06
0.0055 0.0305 7.75668088685e-06
0.0055 0.0315 4.06421350527e-06
0.0065 -0.0315 1.35196479497e-05
0.0065 -0.0305 2.19474610666e-05
0.0065 -0.0295 2.13075648209e-05
0.0065 -0.0285 3.69585680001e-05
0.0065 -0.0275 8.41132685936e-05
0.0065 -0.0265 0.000229097315142
0.0065 -0.0255 0.000713780839216
0.0065 -0.0245 0.00224297633681
0.0065 -0.0235 0.00611125358691
0.0065 -0.0225 0.0110162695994
0.0065 -0.0215 0.0123806884696
0.0065 -0.0205 0.00882496613589
0.0065 -0.0195 0.00426096337248
0.0065 -0.0185 0.00168921613563
0.0065 -0.0175 0.000761620028277
0.0065 -0.0165 0.000598758796027
0.0065 -0.0155 0.000750450731443
0.0065 -0.0145 0.00101861425246
0.0065 -0.0135 0.00127752146607
0.0065 -0.0125 0.00147423484131
0.0065 -0.0115 0.00157288100144
0.0065 -0.0105 0.00449922281919
0.0065 -0.0095 0.010623718349
0.0065 -0.0085 0.0176136481106
0.0065 -0.0075 0.0232340563923
0.0065 -0.0065 0.0266088285021
0.0065 -0.0055 0.0282336774095
0.0065 -0.0045 0.0288711795735
0.0065 -0.0035 0.0285847304438
0.0065 -0.0025 0.0267810675167
0.0065 -0.0015 0.0232138256133
0.0065 -0.0005 0.0185742138786
0.0065 0.0005 0.0139740942672
0.0065 0.0015 0.01028786667
0.0065 0.0025 0.00786499580945
0.0065 0.0035 0.00659581559422
0.0065 0.0045 0.00629050293433
0.0065 0.0055 0.00695895602238
0.0065 0.0065 0.00888596802167
0.0065 0.0075 0.0124886752252
0.0065 0.0085 0.0176921585484
0.0065 0.0095 0.0233292995779
0.0065 0.0105 0.0275778713721
0.0065 0.0115 0.029240028613
0.0065 0.0125 0.0278089700494
0.0065 0.0135 0.0223468579978
0.0065 0.0145 0.0136452269819
0.0065 0.0155 0.00584189670451
0.0065 0.0165 0.0018914738789
0.0065 0.0175 0.000646632269831
0.0065 0.0185 0.000245991108356
0.0065 0.0195 0.00012656791803
0.0065 0.0205 9.09495554252e-05
0.0065 0.0215 7.15390341086e-05
0.0065 0.0225 5.32385892246e-05
0.0065 0.0235 3.62431965807e-05
0.0065 0.0245 2.46644387311e-05
0.0065 0.0255 1.80503459405e-05
0.0065 0.0265 1.43546380527e-05
0.0065 0.0275 1.21611244792e-05
0.0065 0.0285 1.05333682485e-05
0.0065 0.0295 8.8201342942e-06
0.0065 0.0305 7.88973193419e-06
0.0065 0.0315 4.11652370827e-06
0.0075 -0.0315 1.4353785838e-05
0.0075 -0.0305 2.3231416694e-05
0.0075 -0.0295 2.31151459538e-05
0.0075 -0.0285 4.31479490479e-05
0.0075 -0.0275 0.000108816720126
0.0075 -0.0265 0.000359493219606
0.0075 -0.0255 0.0011806391894
0.0075 -0.0245 0.00372652765248
0.0075 -0.0235 0.00869594542907
0.0075 -0.0225 0.0124938668483
0.0075 -0.0215 0.010740237847
0.0075 -0.0205 0.00571541754251
0.0075 -0.0195 0.00223119436088
0.0075 -0.0185 0.000900566926151
0.0075 -0.0175 0.000426995173044
0.0075 -0.0165 0.000320231196032
0.0075 -0.0155 0.000384198396697
0.0075 -0.0145 0.000558388378325
0.0075 -0.0135 0.000727295316375
0.0075 -0.0125 0.000772861866736
0.0075 -0.0115 0.00083504667959
0.0075 -0.0105 0.00152421404008
0.0075 -0.0095 0.00397758817813
0.0075 -0.0085 0.00801289218191
0.0075 -0.0075 0.0121478692588
0.0075 -0.0065 0.0149671798014
0.0075 -0.0055 0.0161691151645
0.0075 -0.0045 0.0161603938458
0.0075 -0.0035 0.0150571775695
0.0075 -0.0025 0.012726837074
0.0075 -0.0015 0.00956199037919
0.0075 -0.0005 0.00648539621696
0.0075 0.0005 0.00426786389719
0.0075 0.0015 0.0030192557317
0.0075 0.0025 0.00234412840745
0.0075 0.0035 0.00193801171834
0.0075 0.0045 0.00176862315342
0.0075 0.0055 0.00194722823103
0.0075 0.0065 0.00277970726833
0.0075 0.0075 0.00498648815946
0.0075 0.0085 0.00951271077803
0.0075 0.0095 0.0162800359119
0.0075 0.0105 0.0233367617742
0.0075 0.0115 0.0280651039975
0.0075 0.0125 0.0292597541363
0.0075 0.0135 0.0262901613904
0.0075 0.0145 0.0187472972724
0.0075 0.0155 0.00961173659334
0.0075 0.0165 0.00355673441557
0.0075 0.0175 0.00130450291207
0.0075 0.0185 0.000644613302157
0.0075 0.0195 0.000405289875481
0.0075 0.0205 0.00032212663972
0.0075 0.0215 0.000255683734178
0.0075 0.0225 0.000166343957964
0.0075 0.0235 8.93795670826e-05
0.0075 0.0245 5.02094967578e-05
0.0075 0.0255 2.99366392107e-05
0.0075 0.0265 2.00608599613e-05
0.0075 0.0275 1.4917089063e-05
0.0075 0.0285 1.17896232443e-05
0.0075 0.0295 9.34656579058e-06
0.0075 0.0305 8.16903572249e-06
0.0075 0.0315 4.25161677703e-06
0.0085 -0.0315 1.51450333984e-05
0.0085 -0.0305 2.46227350338e-05
0.0085 -0.0295 2.53909940318e-05
0.0085 -0.0285 5.05216770185e-05
0.0085 -0.0275 0.000135389754679
0.0085 -0.0265 0.000507810282353
0.0085 -0.0255 0.0017846979582
0.0085 -0.0245 0.00544059593014
0.0085 -0.0235 0.0107542464485
0.0085 -0.0225 0.012470079996
0.0085 -0.0215 0.00843148702007
0.0085 -0.0205 0.00358576743802
0.0085 -0.0195 0.00127011791521
0.0085 -0.0185 0.00048838232297
0.0085 -0.0175 0.000255836896938
0.0085 -0.0165 0.000188442044094
0.0085 -0.0155 0.000211907366449
0.0085 -0.0145 0.000300748981816
0.0085 -0.0135 0.000434345789691
0.0085 -0.0125 0.000520403566274
0.0085 -0.0115 0.000634513734768
0.0085 -0.0105 0.0010051090224
0.0085 -0.0095 0.00180725023082
0.0085 -0.0085 0.00326483969923
0.0085 -0.0075 0.00497416273456
0.0085 -0.0065 0.0058958358111
0.0085 -0.0055 0.00586741976143
0.0085 -0.0045 0.00550179572299
0.0085 -0.0035 0.00481777937777
0.0085 -0.0025 0.00379140338737
0.0085 -0.0015 0.00270809476179
0.0085 -0.0005 0.0017377895381
0.0085 0.0005 0.00114766311898
0.0085 0.0015 0.000968175229686
0.0085 0.0025 0.000842065499503
0.0085 0.0035 0.000664723918104
0.0085 0.0045 0.000557725238632
0.0085 0.0055 0.000566571783749
0.0085 0.0065 0.000753303609648
0.0085 0.0075 0.00151491599861
0.0085 0.0085 0.00410754985689
0.0085 0.0095 0.00985715223567
0.0085 0.0105 0.0179595396779
0.0085 0.0115 0.0252482809865
0.0085 0.0125 0.0289050029487
0.0085 0.0135 0.0282134432423
0.0085 0.0145 0.0227033426958
0.0085 0.0155 0.0137932709926
0.0085 0.0165 0.00622995058241
0.0085 0.0175 0.00272100575011
0.0085 0.0185 0.00177734980071
0.0085 0.0195 0.00144881115388
0.0085 0.0205 0.00118139633463
0.0085 0.0215 0.000875660919198
0.0085 0.0225 0.000537036754547
0.0085 0.0235 0.000255710835047
0.0085 0.0245 0.000107784977546
0.0085 0.0255 5.32582641206e-05
0.0085 0.0265 3.09291175323e-05
0.0085 0.0275 1.99709536097e-05
0.0085 0.0285 1.40386557242e-05
0.0085 0.0295 1.03045492449e-05
0.0085 0.0305 8.69233239909e-06
0.0085 0.0315 4.49961607323e-06
0.0095 -0.0315 1.60843541521e-05
0.0095 -0.0305 2.63950728322e-05
0.0095 -0.0295 2.86587418139e-05
0.0095 -0.0285 5.99893546244e-05
0.0095 -0.0275 0.000165575886062
0.0095 -0.0265 0.00064705537385
0.0095 -0.0255 0.00247121749729
0.0095 -0.0245 0.00714157526175
0.0095 -0.0235 0.0121090289976
0.0095 -0.0225 0.011523961785
0.0095 -0.0215 0.00632516109008
0.0095 -0.0205 0.00234416962896
0.0095 -0.0195 0.000856688416071
0.0095 -0.0185 0.000326130733025
0.0095 -0.0175 0.000166308149395
0.0095 -0.0165 0.00011889383407
0.0095 -0.0155 0.000124103738291
0.0095 -0.0145 0.000165183456692
0.0095 -0.0135 0.000228905276066
0.0095 -0.0125 0.000308058651493
0.0095 -0.0115 0.000481199383815
0.0095 -0.0105 0.000889718447473
0.0095 -0.0095 0.0015754820206
0.0095 -0.0085 0.00265503449784
0.0095 -0.0075 0.00370616989086
0.0095 -0.0065 0.00349789564755
0.0095 -0.0055 0.00227905476047
0.0095 -0.0045 0.00152052326884
0.0095 -0.0035 0.00118329114965
0.0095 -0.0025 0.00091055489245
0.0095 -0.0015 0.000716991184391
0.0095 -0.0005 0.00048133110424
0.0095 0.0005 0.00031426733808
0.0095 0.0015 0.000298896978583
0.0095 0.0025 0.000277888058429
0.0095 0.0035 0.000209000105787
0.0095 0.0045 0.000170186913482
0.0095 0.0055 0.000190501047832
0.0095 0.0065 0.000270128433824
0.0095 0.0075 0.000484420987041
0.0095 0.0085 0.00157436977706
0.0095 0.0095 0.00547408966435
0.0095 0.0105 0.01297925633
0.0095 0.0115 0.0215897786983
0.0095 0.0125 0.0272489088291
0.0095 0.0135 0.0283207635749
0.0095 0.0145 0.0247457785244
0.0095 0.0155 0.0172013728957
0.0095 0.0165 0.00957056127775
0.0095 0.0175 0.00569198423124
0.0095 0.0185 0.00490447875476
0.0095 0.0195 0.00461136464057
0.0095 0.0205 0.00386429579975
0.0095 0.0215 0.00269103348789
0.0095 0.0225 0.00149546068917
0.0095 0.0235 0.000636953751207
0.0095 0.0245 0.000231866568402
0.0095 0.0255 0.000104370858365
0.0095 0.0265 5.39722100833e-05
0.0095 0.0275 3.06120575183e-05
0.0095 0.0285 1.86475522934e-05
0.0095 0.0295 1.22666780851e-05
0.0095 0.0305 9.72653612491e-06
0.0095 0.0315 4.95238417299e-06
0.0105 -0.0315 1.72291123803e-05
0.0105 -0.0305 2.87113368483e-05
0.0105 -0.0295 3.35743757606e-05
0.0105 -0.0285 7.60111771899e-05
0.0105 -0.0275 0.000215155600156
0.0105 -0.0265 0.000831115678219
0.0105 -0.0255 0.00328912515953
0.0105 -0.0245 0.00872933070272
0.0105 -0.0235 0.0128233696973
0.0105 -0.0225 0.0102242448131
0.0105 -0.0215 0.00463691394902
0.0105 -0.0205 0.00150491300471
0.0105 -0.0195 0.000531324243295
0.0105 -0.0185 0.000221488396145
0.0105 -0.0175 0.000116146120337
0.0105 -0.0165 8.16220063884e-05
0.0105 -0.0155 7.93336725551e-05
0.0105 -0.0145 9.67977363553e-05
0.0105 -0.0135 0.000129944205681
0.0105 -0.0125 0.000189260305358
0.0105 -0.0115 0.000317765457689
0.0105 -0.0105 0.000640839307263
0.0105 -0.0095 0.00122709791848
0.0105 -0.0085 0.00252159575243
0.0105 -0.0075 0.00380122702757
0.0105 -0.0065 0.00315085926895
0.0105 -0.0055 0.00153344537828
0.0105 -0.0045 0.000744200158482
0.0105 -0.0035 0.000440427955731
0.0105 -0.0025 0.000268195478531
0.0105 -0.0015 0.000197771336424
0.0105 -0.0005 0.000146781553059
0.0105 0.0005 0.000110221099369
0.0105 0.0015 9.40398585569e-05
0.0105 0.0025 8.07400167481e-05
0.0105 0.0035 6.37121580609e-05
0.0105 0.0045 5.46386916917e-05
0.0105 0.0055 6.62340590169e-05
0.0105 0.0065 0.000108723267152
0.0105 0.0075 0.000198686701415
0.0105 0.0085 0.000642570249247
0.0105 0.0095 0.00308653179312
0.0105 0.0105 0.00933740318743
0.0105 0.0115 0.018083371983
0.0105 0.0125 0.0248914605165
0.0105 0.0135 0.027084581967
0.0105 0.0145 0.0247126147747
0.0105 0.0155 0.0185783271494
0.0105 0.0165 0.0120569027946
0.0105 0.0175 0.0094389395828
0.0105 0.0185 0.00970647904064
0.0105 0.0195 0.00983949934351
0.0105 0.0205 0.00896834574493
0.0105 0.0215 0.00688339605665
0.0105 0.0225 0.00402213894493
0.0105 0.0235 0.00167830461692
0.0105 0.0245 0.000586282238742
0.0105 0.0255 0.000236448026647
0.0105 0.0265 0.000113223299933
0.0105 0.0275 5.52221695322e-05
0.0105 0.0285 2.84133519168e-05
0.0105 0.0295 1.63953217646e-05
0.0105 0.0305 1.17304516998e-05
0.0105 0.0315 5.76350014509e-06
0.0115 -0.0315 1.85369334151e-05
0.0115 -0.0305 3.14613234345e-05
0.0115 -0.0295 4.01887238795e-05
0.0115 -0.0285 0.000101248362814
0.0115 -0.0275 0.000338129321864
0.0115 -0.0265 0.00121706894985
0.0115 -0.0255 0.00433616931252
0.0115 -0.0245 0.0101258675711
0.0115 -0.0235 0.0129514282842
0.0115 -0.0225 0.00886638994022
0.0115 -0.0215 0.00343803623899
0.0115 -0.0205 0.00100561131253
0.0115 -0.0195 0.000324611161255
0.0115 -0.0185 0.000150500842867
0.0115 -0.0175 8.47961007771e-05
0.0115 -0.0165 6.10486214709e-05
0.0115 -0.0155 5.72158120206e-05
0.0115 -0.0145 6.54500532563e-05
0.0115 -0.0135 8.55182365611e-05
0.0115 -0.0125 0.000126627706076
0.0115 -0.0115 0.000215855314567
0.0115 -0.0105 0.000428093823279
0.0115 -0.0095 0.000908156518438
0.0115 -0.0085 0.00247619980311
0.0115 -0.0075 0.00374804625736
0.0115 -0.0065 0.00257888291491
0.0115 -0.0055 0.000950679180658
0.0115 -0.0045 0.000399696006366
0.0115 -0.0035 0.000214110155054
0.0115 -0.0025 0.000126120554069
0.0115 -0.0015 8.23515632654e-05
0.0115 -0.0005 5.83356332077e-05
0.0115 0.0005 4.42644897317e-05
0.0115 0.0015 3.63713357642e-05
0.0115 0.0025 3.11762099615e-05
0.0115 0.0035 2.72886098238e-05
0.0115 0.0045 2.64382601935e-05
0.0115 0.0055 3.17676348169e-05
0.0115 0.0065 5.56949051789e-05
0.0115 0.0075 0.000108538610358
0.0115 0.0085 0.000339445121195
0.0115 0.0095 0.00204976034339
0.0115 0.0105 0.00730770037717
0.0115 0.0115 0.0155780441221
0.0115 0.0125 0.0225763757177
0.0115 0.0135 0.0251037386537
0.0115 0.0145 0.0230443090472
0.0115 0.0155 0.0174527483034
0.0115 0.0165 0.0120066077641
0.0115 0.0175 0.010988583509
0.0115 0.0185 0.011960283822
0.0115 0.0195 0.0124418397693
0.0115 0.0205 0.0125710846886
0.0115 0.0215 0.0116409729269
0.0115 0.0225 0.00853769913163
0.0115 0.0235 0.00440567841937
0.0115 0.0245 0.00169757031579
0.0115 0.0255 0.000682891696354
0.0115 0.0265 0.000292360920186
0.0115 0.0275 0.00011232217837
0.0115 0.0285 4.98301479168e-05
0.0115 0.0295 2.44648432025e-05
0.0115 0.0305 1.5406171467e-05
0.0115 0.0315 7.20560514378e-06
0.0125 -0.0315 1.99464261163e-05
0.0125 -0.0305 3.43680812403e-05
0.0125 -0.0295 4.72719842708e-05
0.0125 -0.0285 0.000126868721411
0.0125 -0.0275 0.000485219514964
0.0125 -0.0265 0.00173613891571
0.0125 -0.0255 0.00551270968116
0.0125 -0.0245 0.0112365209797
0.0125 -0.0235 0.012557533775
0.0125 -0.0225 0.00755266406151
0.0125 -0.0215 0.00268822886758
0.0125 -0.0205 0.000802583182564
0.0125 -0.0195 0.000251329639371
0.0125 -0.0185 0.000113022915554
0.0125 -0.0175 6.5777803321e-05
0.0125 -0.0165 4.93515205243e-05
0.0125 -0.0155 4.6428194537e-05
0.0125 -0.0145 5.16594328752e-05
0.0125 -0.0135 6.58132847996e-05
0.0125 -0.0125 9.76595417837e-05
0.0125 -0.0115 0.000174950816255
0.0125 -0.0105 0.000393967264295
0.0125 -0.0095 0.00112394437074
0.0125 -0.0085 0.00305250120488
0.0125 -0.0075 0.00386736168485
0.0125 -0.0065 0.00210784522632
0.0125 -0.0055 0.000626336595158
0.0125 -0.0045 0.000259564573483
0.0125 -0.0035 0.000126734754078
0.0125 -0.0025 7.31147842724e-05
0.0125 -0.0015 4.59991590461e-05
0.0125 -0.0005 3.16556663704e-05
0.0125 0.0005 2.36164370402e-05
0.0125 0.0015 1.90123780458e-05
0.0125 0.0025 1.66217036202e-05
0.0125 0.0035 1.61268763252e-05
0.0125 0.0045 1.78818606153e-05
0.0125 0.0055 2.43534867308e-05
0.0125 0.0065 5.08771038251e-05
0.0125 0.0075 0.000117978007563
0.0125 0.0085 0.00034502624914
0.0125 0.0095 0.00194436358039
0.0125 0.0105 0.00690194522615
0.0125 0.0115 0.0146697190553
0.0125 0.0125 0.0210807581674
0.0125 0.0135 0.0231231858407
0.0125 0.0145 0.0205814217041
0.0125 0.0155 0.0145064808308
0.0125 0.0165 0.00915396626349
0.0125 0.0175 0.0084096723845
0.0125 0.0185 0.00845534717623
0.0125 0.0195 0.00875406459024
0.0125 0.0205 0.0106064009067
0.0125 0.0215 0.0128634562491
0.0125 0.0225 0.0126046175443
0.0125 0.0235 0.00877680373265
0.0125 0.0245 0.00429863887933
0.0125 0.0255 0.00176348659538
0.0125 0.0265 0.000722423836495
0.0125 0.0275 0.000261229790647
0.0125 0.0285 9.21983588747e-05
0.0125 0.0295 3.87225022646e-05
0.0125 0.0305 2.21390068871e-05
0.0125 0.0315 9.94003072587e-06
0.0135 -0.0315 2.1291621188e-05
0.0135 -0.0305 3.70374012929e-05
0.0135 -0.0295 5.29868507312e-05
0.0135 -0.0285 0.000145229266254
0.0135 -0.0275 0.00057624150878
0.0135 -0.0265 0.00218598010509
0.0135 -0.0255 0.00661419118924
0.0135 -0.0245 0.0120486888652
0.0135 -0.0235 0.0118399948175
0.0135 -0.0225 0.00631208564369
0.0135 -0.0215 0.00213830508132
0.0135 -0.0205 0.000663724926104
0.0135 -0.0195 0.000209653419561
0.0135 -0.0185 9.25660203151e-05
0.0135 -0.0175 5.47388632811e-05
0.0135 -0.0165 4.26335254926e-05
0.0135 -0.0155 4.0992860931e-05
0.0135 -0.0145 4.55882348661e-05
0.0135 -0.0135 5.79620881466e-05
0.0135 -0.0125 8.7659667845e-05
0.0135 -0.0115 0.000170725245014
0.0135 -0.0105 0.000429179708523
0.0135 -0.0095 0.00150372466255
0.0135 -0.0085 0.00376036389215
0.0135 -0.0075 0.00411476717388
0.0135 -0.0065 0.00193434442276
0.0135 -0.0055 0.000529070861594
0.0135 -0.0045 0.000201272194328
0.0135 -0.0035 9.18840197523e-05
0.0135 -0.0025 5.14737134302e-05
0.0135 -0.0015 3.26351789025e-05
0.0135 -0.0005 2.26833694377e-05
0.0135 0.0005 1.6945174081e-05
0.0135 0.0015 1.38111241704e-05
0.0135 0.0025 1.27539751615e-05
0.0135 0.0035 1.39084908991e-05
0.0135 0.0045 1.83167316885e-05
0.0135 0.0055 2.97881177922e-05
0.0135 0.0065 7.84611007016e-05
0.0135 0.0075 0.000216240980317
0.0135 0.0085 0.000654533137259
0.0135 0.0095 0.0027767917329
0.0135 0.0105 0.0081794180787
0.0135 0.0115 0.0155535391944
0.0135 0.0125 0.020838002493
0.0135 0.0135 0.0217814623989
0.0135 0.0145 0.0182000415384
0.0135 0.0155 0.0110848027422
0.0135 0.0165 0.00527923775268
0.0135 0.0175 0.00413883391281
0.0135 0.0185 0.00344643805849
0.0135 0.0195 0.00363753020068
0.0135 0.0205 0.00588982082044
0.0135 0.0215 0.00990950987428
0.0135 0.0225 0.0132354298626
0.0135 0.0235 0.0125146461959
0.0135 0.0245 0.00815782795244
0.0135 0.0255 0.0038208973924
0.0135 0.0265 0.00148253958756
0.0135 0.0275 0.000518478284726
0.0135 0.0285 0.000158558109767
0.0135 0.0295 6.39469147682e-05
0.0135 0.0305 3.56647847767e-05
0.0135 0.0315 1.58733605474e-05
0.0145 -0.0315 2.23310179785e-05
0.0145 -0.0305 3.9027065667e-05
0.0145 -0.0295 5.67430025497e-05
0.0145 -0.0285 0.000158223468129
0.0145 -0.0275 0.000638513979342
0.0145 -0.0265 0.00254903385716
0.0145 -0.0255 0.00754155314164
0.0145 -0.0245 0.0126223335285
0.0145 -0.0235 0.0110777646337
0.0145 -0.0225 0.00519788252649
0.0145 -0.0215 0.00159569013341
0.0145 -0.0205 0.000487837281289
0.0145 -0.0195 0.000171252808517
0.0145 -0.0185 7.81263948344e-05
0.0145 -0.0175 4.79976764973e-05
0.0145 -0.0165 3.87371958153e-05
0.0145 -0.0155 3.82261950974e-05
0.0145 -0.0145 4.31110184984e-05
0.0145 -0.0135 5.56271609924e-05
0.0145 -0.0125 8.62765442401e-05
0.0145 -0.0115 0.000176400999112
0.0145 -0.0105 0.000452349732695
0.0145 -0.0095 0.00167400472495
0.0145 -0.0085 0.00407195537333
0.0145 -0.0075 0.00418190288012
0.0145 -0.0065 0.00181703497483
0.0145 -0.0055 0.000487894321434
0.0145 -0.0045 0.000177373860439
0.0145 -0.0035 7.76999215783e-05
0.0145 -0.0025 4.31054661707e-05
0.0145 -0.0015 2.79048004558e-05
0.0145 -0.0005 2.0067240944e-05
0.0145 0.0005 1.55708039854e-05
0.0145 0.0015 1.33587234595e-05
0.0145 0.0025 1.3365247546e-05
0.0145 0.0035 1.64419722703e-05
0.0145 0.0045 2.65232342685e-05
0.0145 0.0055 5.90133377599e-05
0.0145 0.0065 0.000170110646669