% Model:              Benchmark260518.mph
% Version:            COMSOL 6.2.0.339
% Date:               May 20 2026, 00:59
% Dimension:          2
% Nodes:              4096
% Expressions:        1
% Description:        速度大小
% Length unit:        m
% x                       y                        spf.U (m/s)
5.0E-4                    -0.0315                  1.121904614993115E-6
5.0E-4                    -0.0305                  2.2285330914544025E-6
5.0E-4                    -0.0295                  2.3926440071692137E-6
5.0E-4                    -0.0285                  2.632840708251306E-6
5.0E-4                    -0.0275                  2.8324199962249096E-6
5.0E-4                    -0.0265                  2.981442870188626E-6
5.0E-4                    -0.0255                  3.1058402893004857E-6
5.0E-4                    -0.0245                  3.229380657231178E-6
5.0E-4                    -0.0235                  3.3388262683023286E-6
5.0E-4                    -0.0225                  3.442765828623908E-6
5.0E-4                    -0.0215                  3.5446537516793655E-6
5.0E-4                    -0.0205                  3.6418804724327505E-6
5.0E-4                    -0.0195                  3.733362706796496E-6
5.0E-4                    -0.0185                  3.7881529616086973E-6
5.0E-4                    -0.0175                  3.858482688141474E-6
5.0E-4                    -0.0165                  3.947947411916676E-6
5.0E-4                    -0.0155                  4.013991640904936E-6
5.0E-4                    -0.0145                  4.201690458411127E-6
5.0E-4                    -0.0135                  4.42203752951131E-6
5.0E-4                    -0.0125                  4.900652550491628E-6
5.0E-4                    -0.0115                  6.253288197285024E-6
5.0E-4                    -0.0105                  8.584567285013936E-6
5.0E-4                    -0.0095                  1.1463868415574841E-5
5.0E-4                    -0.0085                  1.4706355919319348E-5
5.0E-4                    -0.0075                  2.0439071005563126E-5
5.0E-4                    -0.0065                  3.5236160932124024E-5
5.0E-4                    -0.0055                  9.734803482731686E-5
5.0E-4                    -0.0045                  2.546715482306259E-4
5.0E-4                    -0.0035                  7.27763258138132E-4
5.0E-4                    -0.0025                  9.767372609417926E-4
5.0E-4                    -0.0015                  0.0375614265900786
5.0E-4                    -5.0E-4                  0.08995379936923924
5.0E-4                    5.0E-4                   0.10153586887101844
5.0E-4                    0.0015                   0.05220551576795593
5.0E-4                    0.0025                   0.0030248587292952974
5.0E-4                    0.0035                   0.0015002730661784814
5.0E-4                    0.0045                   2.48816054328935E-4
5.0E-4                    0.0055                   1.4733986706652087E-4
5.0E-4                    0.0065                   5.91437482154853E-5
5.0E-4                    0.0075                   2.049078147131892E-5
5.0E-4                    0.0085                   9.161124665356659E-6
5.0E-4                    0.0095                   5.134998351937924E-6
5.0E-4                    0.0105                   3.5048303329087425E-6
5.0E-4                    0.0115                   2.776560441043621E-6
5.0E-4                    0.0125                   2.3959917317937188E-6
5.0E-4                    0.0135                   2.1635880961436495E-6
5.0E-4                    0.0145                   2.0111008173458313E-6
5.0E-4                    0.0155                   1.915824861128503E-6
5.0E-4                    0.0165                   1.8646732094632654E-6
5.0E-4                    0.0175                   1.8324703496801803E-6
5.0E-4                    0.0185                   1.8232196589224042E-6
5.0E-4                    0.0195                   1.8314318756254858E-6
5.0E-4                    0.0205                   1.8344389748372295E-6
5.0E-4                    0.0215                   1.840909874112173E-6
5.0E-4                    0.0225                   1.8340944489979815E-6
5.0E-4                    0.0235                   1.8156508095688942E-6
5.0E-4                    0.0245                   1.786977073457181E-6
5.0E-4                    0.0255                   1.747822668062889E-6
5.0E-4                    0.0265                   1.7215378740163165E-6
5.0E-4                    0.0275                   1.702450699668643E-6
5.0E-4                    0.0285                   1.6819888038155804E-6
5.0E-4                    0.0295                   1.6328901234605436E-6
5.0E-4                    0.0305                   1.5894306963094562E-6
5.0E-4                    0.0315                   8.115469426723011E-7
0.0015                    -0.0315                  2.1999351957798478E-6
0.0015                    -0.0305                  4.369438167853124E-6
0.0015                    -0.0295                  4.6400481457152855E-6
0.0015                    -0.0285                  4.93172149068682E-6
0.0015                    -0.0275                  5.093778755714833E-6
0.0015                    -0.0265                  5.2155434978463706E-6
0.0015                    -0.0255                  5.320337832036037E-6
0.0015                    -0.0245                  5.4396878543383075E-6
0.0015                    -0.0235                  5.560477494040175E-6
0.0015                    -0.0225                  5.6881356614107876E-6
0.0015                    -0.0215                  5.8230511202466085E-6
0.0015                    -0.0205                  5.958364531459391E-6
0.0015                    -0.0195                  6.0865454404005066E-6
0.0015                    -0.0185                  6.181982200932734E-6
0.0015                    -0.0175                  6.305598630243646E-6
0.0015                    -0.0165                  6.492531833753783E-6
0.0015                    -0.0155                  6.769772868477768E-6
0.0015                    -0.0145                  7.369143527934199E-6
0.0015                    -0.0135                  8.453401813939874E-6
0.0015                    -0.0125                  1.0804963878549432E-5
0.0015                    -0.0115                  1.6107776723079185E-5
0.0015                    -0.0105                  2.632656870511426E-5
0.0015                    -0.0095                  4.182929487991137E-5
0.0015                    -0.0085                  5.876436611679276E-5
0.0015                    -0.0075                  8.398217572973958E-5
0.0015                    -0.0065                  1.607151469171741E-4
0.0015                    -0.0055                  3.8347937842117503E-4
0.0015                    -0.0045                  8.56926059264552E-4
0.0015                    -0.0035                  0.0018426809648948155
0.0015                    -0.0025                  0.0021001882126392424
0.0015                    -0.0015                  0.036522299443450985
0.0015                    -5.0E-4                  0.08658812168438017
0.0015                    5.0E-4                   0.10111169863247862
0.0015                    0.0015                   0.059785783090910545
0.0015                    0.0025                   0.00821176748746012
0.0015                    0.0035                   0.0037564868638488083
0.0015                    0.0045                   8.199861070964088E-4
0.0015                    0.0055                   3.73757031919593E-4
0.0015                    0.0065                   1.557019125871504E-4
0.0015                    0.0075                   5.7398225098339065E-5
0.0015                    0.0085                   2.6815901563317298E-5
0.0015                    0.0095                   1.561184028960112E-5
0.0015                    0.0105                   1.0825652437893691E-5
0.0015                    0.0115                   8.400097372978627E-6
0.0015                    0.0125                   6.952615428909329E-6
0.0015                    0.0135                   5.9897092573050035E-6
0.0015                    0.0145                   5.3081766277349835E-6
0.0015                    0.0155                   4.8099091445911795E-6
0.0015                    0.0165                   4.437635689484268E-6
0.0015                    0.0175                   4.139288817991912E-6
0.0015                    0.0185                   3.904319888753432E-6
0.0015                    0.0195                   3.7226194133624413E-6
0.0015                    0.0205                   3.5721587329781546E-6
0.0015                    0.0215                   3.4606377371417166E-6
0.0015                    0.0225                   3.373042492349041E-6
0.0015                    0.0235                   3.307563123431319E-6
0.0015                    0.0245                   3.2614269829603592E-6
0.0015                    0.0255                   3.230709084635994E-6
0.0015                    0.0265                   3.2331454233246823E-6
0.0015                    0.0275                   3.2576242391101574E-6
0.0015                    0.0285                   3.293293792184377E-6
0.0015                    0.0295                   3.2414453260293055E-6
0.0015                    0.0305                   3.139324182759805E-6
0.0015                    0.0315                   1.595493935337975E-6
0.0025                    -0.0315                  2.2701889610362064E-6
0.0025                    -0.0305                  4.498386611186733E-6
0.0025                    -0.0295                  4.815955473785702E-6
0.0025                    -0.0285                  5.0610937568334825E-6
0.0025                    -0.0275                  5.025704509413717E-6
0.0025                    -0.0265                  4.962361759083839E-6
0.0025                    -0.0255                  4.896953046018849E-6
0.0025                    -0.0245                  4.861129430685444E-6
0.0025                    -0.0235                  4.860927062201538E-6
0.0025                    -0.0225                  4.894208279722686E-6
0.0025                    -0.0215                  4.954980513876521E-6
0.0025                    -0.0205                  5.0340307816803286E-6
0.0025                    -0.0195                  5.121452103813746E-6
0.0025                    -0.0185                  5.225022129320671E-6
0.0025                    -0.0175                  5.3794891958072595E-6
0.0025                    -0.0165                  5.684913332308876E-6
0.0025                    -0.0155                  6.358738074793733E-6
0.0025                    -0.0145                  7.764113733682671E-6
0.0025                    -0.0135                  1.065459466707096E-5
0.0025                    -0.0125                  1.687082290921653E-5
0.0025                    -0.0115                  3.0612476432389374E-5
0.0025                    -0.0105                  5.950634530454687E-5
0.0025                    -0.0095                  1.1380032807077904E-4
0.0025                    -0.0085                  1.7704050536993573E-4
0.0025                    -0.0075                  2.7143309087014676E-4
0.0025                    -0.0065                  5.960284557483777E-4
0.0025                    -0.0055                  0.001418711741880327
0.0025                    -0.0045                  0.0025034753301317473
0.0025                    -0.0035                  0.0032346751186726266
0.0025                    -0.0025                  0.002912449797355943
0.0025                    -0.0015                  0.034291899337118126
0.0025                    -5.0E-4                  0.08238292395764354
0.0025                    5.0E-4                   0.10013427318651649
0.0025                    0.0015                   0.06647286395345392
0.0025                    0.0025                   0.013781053579498895
0.0025                    0.0035                   0.004917267142546784
0.0025                    0.0045                   0.0017990627356196283
0.0025                    0.0055                   6.678989803815085E-4
0.0025                    0.0065                   2.7893043443259964E-4
0.0025                    0.0075                   1.0401646476930612E-4
0.0025                    0.0085                   5.163247901766171E-5
0.0025                    0.0095                   3.138210083692466E-5
0.0025                    0.0105                   2.1616590584920186E-5
0.0025                    0.0115                   1.58144174450425E-5
0.0025                    0.0125                   1.2136724496474995E-5
0.0025                    0.0135                   9.704170815026768E-6
0.0025                    0.0145                   8.049123724235129E-6
0.0025                    0.0155                   6.912732905297621E-6
0.0025                    0.0165                   6.089430609189045E-6
0.0025                    0.0175                   5.4423598010334205E-6
0.0025                    0.0185                   4.900008396440724E-6
0.0025                    0.0195                   4.435010329656218E-6
0.0025                    0.0205                   4.044406089103178E-6
0.0025                    0.0215                   3.73322200828709E-6
0.0025                    0.0225                   3.5106203884172596E-6
0.0025                    0.0235                   3.3780732161151166E-6
0.0025                    0.0245                   3.3295074995876764E-6
0.0025                    0.0255                   3.3525022566933174E-6
0.0025                    0.0265                   3.427713083480956E-6
0.0025                    0.0275                   3.525258512874341E-6
0.0025                    0.0285                   3.6095570101331636E-6
0.0025                    0.0295                   3.489960888619771E-6
0.0025                    0.0305                   3.2685691960500313E-6
0.0025                    0.0315                   1.650096467087414E-6
0.0035                    -0.0315                  2.38345941636687E-6
0.0035                    -0.0305                  4.6321658464934215E-6
0.0035                    -0.0295                  4.991319677791379E-6
0.0035                    -0.0285                  5.425859269352599E-6
0.0035                    -0.0275                  5.482116531114648E-6
0.0035                    -0.0265                  5.4316381769214814E-6
0.0035                    -0.0255                  5.337908762837153E-6
0.0035                    -0.0245                  5.260878162841551E-6
0.0035                    -0.0235                  5.2228603568650555E-6
0.0035                    -0.0225                  5.233610135219724E-6
0.0035                    -0.0215                  5.293001275697886E-6
0.0035                    -0.0205                  5.397298343296808E-6
0.0035                    -0.0195                  5.5465528879189675E-6
0.0035                    -0.0185                  5.760121460571501E-6
0.0035                    -0.0175                  6.116304137413009E-6
0.0035                    -0.0165                  6.822887226909207E-6
0.0035                    -0.0155                  8.341838220748847E-6
0.0035                    -0.0145                  1.1656597268732324E-5
0.0035                    -0.0135                  1.8514074452042743E-5
0.0035                    -0.0125                  3.249521368109252E-5
0.0035                    -0.0115                  6.61909671576293E-5
0.0035                    -0.0105                  1.522497261864942E-4
0.0035                    -0.0095                  2.8798917135388377E-4
0.0035                    -0.0085                  4.057987231019051E-4
0.0035                    -0.0075                  7.158976930338828E-4
0.0035                    -0.0065                  0.0018320160360792894
0.0035                    -0.0055                  0.0036292503943340985
0.0035                    -0.0045                  0.005136823366454785
0.0035                    -0.0035                  0.005305858510763869
0.0035                    -0.0025                  0.004432011465443617
0.0035                    -0.0015                  0.031618078893940284
0.0035                    -5.0E-4                  0.07730554072164979
0.0035                    5.0E-4                   0.09806351466426111
0.0035                    0.0015                   0.07295442937719408
0.0035                    0.0025                   0.02216646589068693
0.0035                    0.0035                   0.0043414570356851605
0.0035                    0.0045                   0.0034494680577735947
0.0035                    0.0055                   0.0013212921146414762
0.0035                    0.0065                   5.219875362096464E-4
0.0035                    0.0075                   2.0888582555297403E-4
0.0035                    0.0085                   1.144716012767628E-4
0.0035                    0.0095                   7.026271389586065E-5
0.0035                    0.0105                   4.4326208968947136E-5
0.0035                    0.0115                   2.9730696611782755E-5
0.0035                    0.0125                   2.08899209619545E-5
0.0035                    0.0135                   1.4955590894802201E-5
0.0035                    0.0145                   1.1248121038234346E-5
0.0035                    0.0155                   9.03605368825423E-6
0.0035                    0.0165                   7.668247007067808E-6
0.0035                    0.0175                   6.735328797175153E-6
0.0035                    0.0185                   6.021556697668176E-6
0.0035                    0.0195                   5.4338856840311555E-6
0.0035                    0.0205                   4.94319517779261E-6
0.0035                    0.0215                   4.548628804480454E-6
0.0035                    0.0225                   4.257129508822224E-6
0.0035                    0.0235                   4.072980371499243E-6
0.0035                    0.0245                   3.990807233249529E-6
0.0035                    0.0255                   3.992442581820388E-6
0.0035                    0.0265                   4.0460093949897875E-6
0.0035                    0.0275                   4.093245072746656E-6
0.0035                    0.0285                   4.059397536947436E-6
0.0035                    0.0295                   3.7364151065067115E-6
0.0035                    0.0305                   3.3913769953569714E-6
0.0035                    0.0315                   1.7217183921661156E-6
0.0045                    -0.0315                  2.50191131808519E-6
0.0045                    -0.0305                  4.6997733328088645E-6
0.0045                    -0.0295                  4.9268383321532585E-6
0.0045                    -0.0285                  5.4594184345565095E-6
0.0045                    -0.0275                  5.6360095550670265E-6
0.0045                    -0.0265                  5.661595957784044E-6
0.0045                    -0.0255                  5.590069604256164E-6
0.0045                    -0.0245                  5.503715964804153E-6
0.0045                    -0.0235                  5.446711274061673E-6
0.0045                    -0.0225                  5.447075314688427E-6
0.0045                    -0.0215                  5.519155303675389E-6
0.0045                    -0.0205                  5.673547850712947E-6
0.0045                    -0.0195                  5.931534291933323E-6
0.0045                    -0.0185                  6.354816385701995E-6
0.0045                    -0.0175                  7.113495909705362E-6
0.0045                    -0.0165                  8.660187096583577E-6
0.0045                    -0.0155                  1.2085417757135717E-5
0.0045                    -0.0145                  1.9756224175924404E-5
0.0045                    -0.0135                  3.74596937761432E-5
0.0045                    -0.0125                  7.493982105834837E-5
0.0045                    -0.0115                  1.5360278046841982E-4
0.0045                    -0.0105                  3.9665969489007923E-4
0.0045                    -0.0095                  8.152865789793175E-4
0.0045                    -0.0085                  0.0012227974916129314
0.0045                    -0.0075                  0.0017448189452664736
0.0045                    -0.0065                  0.002894987035713944
0.0045                    -0.0055                  0.004176748709861478
0.0045                    -0.0045                  0.004306012474036432
0.0045                    -0.0035                  0.003271590074364673
0.0045                    -0.0025                  0.004407794399655595
0.0045                    -0.0015                  0.029177950305824932
0.0045                    -5.0E-4                  0.07099185672975966
0.0045                    5.0E-4                   0.09379042335500316
0.0045                    0.0015                   0.07786607109025988
0.0045                    0.0025                   0.03405007086824151
0.0045                    0.0035                   0.0015706139044981595
0.0045                    0.0045                   0.005893004185164839
0.0045                    0.0055                   0.0031215339150546637
0.0045                    0.0065                   0.001305105502244763
0.0045                    0.0075                   5.87465350955936E-4
0.0045                    0.0085                   3.43032753160148E-4
0.0045                    0.0095                   1.8355456239102988E-4
0.0045                    0.0105                   9.864388768573981E-5
0.0045                    0.0115                   6.157653582335732E-5
0.0045                    0.0125                   3.818084374161496E-5
0.0045                    0.0135                   2.3870651474938063E-5
0.0045                    0.0145                   1.5841733272758532E-5
0.0045                    0.0155                   1.1481624599095429E-5
0.0045                    0.0165                   9.139241583001791E-6
0.0045                    0.0175                   7.803363924928456E-6
0.0045                    0.0185                   6.932288965123696E-6
0.0045                    0.0195                   6.2759122053746245E-6
0.0045                    0.0205                   5.742357114264224E-6
0.0045                    0.0215                   5.308831907634826E-6
0.0045                    0.0225                   4.976765758693038E-6
0.0045                    0.0235                   4.749856079270956E-6
0.0045                    0.0245                   4.6219310162383555E-6
0.0045                    0.0255                   4.569307220027408E-6
0.0045                    0.0265                   4.546488554661936E-6
0.0045                    0.0275                   4.4765483835596526E-6
0.0045                    0.0285                   4.282872693578887E-6
0.0045                    0.0295                   3.809946585598029E-6
0.0045                    0.0305                   3.434257815603116E-6
0.0045                    0.0315                   1.7666181317844791E-6
0.0055                    -0.0315                  2.615712416317767E-6
0.0055                    -0.0305                  4.783421092296414E-6
0.0055                    -0.0295                  4.858764906872191E-6
0.0055                    -0.0285                  5.414463930662352E-6
0.0055                    -0.0275                  5.6740045671969135E-6
0.0055                    -0.0265                  5.789176422688362E-6
0.0055                    -0.0255                  5.7715087210604675E-6
0.0055                    -0.0245                  5.702663109586015E-6
0.0055                    -0.0235                  5.643803221224916E-6
0.0055                    -0.0225                  5.645799780369078E-6
0.0055                    -0.0215                  5.74708801352752E-6
0.0055                    -0.0205                  5.985453791186617E-6
0.0055                    -0.0195                  6.424700190072103E-6
0.0055                    -0.0185                  7.215333921761905E-6
0.0055                    -0.0175                  8.73348074449996E-6
0.0055                    -0.0165                  1.1934525625407967E-5
0.0055                    -0.0155                  1.939520869074214E-5
0.0055                    -0.0145                  3.805611108826457E-5
0.0055                    -0.0135                  8.480179660676782E-5
0.0055                    -0.0125                  2.183369770928636E-4
0.0055                    -0.0115                  5.036969488614224E-4
0.0055                    -0.0105                  0.0011919341972504174
0.0055                    -0.0095                  0.002688836956279316
0.0055                    -0.0085                  0.004903000031434018
0.0055                    -0.0075                  0.0074526802330972825
0.0055                    -0.0065                  0.010030284094293662
0.0055                    -0.0055                  0.01191021937143801
0.0055                    -0.0045                  0.011824568614558818
0.0055                    -0.0035                  0.00924778893271251
0.0055                    -0.0025                  0.00882064247589034
0.0055                    -0.0015                  0.026794295397458284
0.0055                    -5.0E-4                  0.06225086103327346
0.0055                    5.0E-4                   0.08578382838340824
0.0055                    0.0015                   0.07924990326660278
0.0055                    0.0025                   0.047941049578388545
0.0055                    0.0035                   0.012193481137928687
0.0055                    0.0045                   0.0049089528533074215
0.0055                    0.0055                   0.00594181649932896
0.0055                    0.0065                   0.0036916293980814247
0.0055                    0.0075                   0.0019427075407387135
0.0055                    0.0085                   9.795949284065418E-4
0.0055                    0.0095                   5.009156750569684E-4
0.0055                    0.0105                   2.683656726159543E-4
0.0055                    0.0115                   1.4265392060598556E-4
0.0055                    0.0125                   7.150654369873037E-5
0.0055                    0.0135                   3.94145489161587E-5
0.0055                    0.0145                   2.310128318090145E-5
0.0055                    0.0155                   1.4820640597291113E-5
0.0055                    0.0165                   1.0766164150265205E-5
0.0055                    0.0175                   8.810238283530452E-6
0.0055                    0.0185                   7.754230829674904E-6
0.0055                    0.0195                   7.061525636742848E-6
0.0055                    0.0205                   6.529571987349746E-6
0.0055                    0.0215                   6.096608421632769E-6
0.0055                    0.0225                   5.7512961438322315E-6
0.0055                    0.0235                   5.492632776703179E-6
0.0055                    0.0245                   5.310503361288366E-6
0.0055                    0.0255                   5.175537069275646E-6
0.0055                    0.0265                   5.036279897839356E-6
0.0055                    0.0275                   4.819020291309877E-6
0.0055                    0.0285                   4.475314116534387E-6
0.0055                    0.0295                   3.8948460548084065E-6
0.0055                    0.0305                   3.497226633913768E-6
0.0055                    0.0315                   1.812525992332832E-6
0.0065                    -0.0315                  2.7253597923141302E-6
0.0065                    -0.0305                  4.8718268899560835E-6
0.0065                    -0.0295                  4.791722353471706E-6
0.0065                    -0.0285                  5.330827620227941E-6
0.0065                    -0.0275                  5.626693413193107E-6
0.0065                    -0.0265                  5.806912977673064E-6
0.0065                    -0.0255                  5.844232405934655E-6
0.0065                    -0.0245                  5.80299607380883E-6
0.0065                    -0.0235                  5.750064340118979E-6
0.0065                    -0.0225                  5.759836779227518E-6
0.0065                    -0.0215                  5.9066059942815985E-6
0.0065                    -0.0205                  6.277428825288952E-6
0.0065                    -0.0195                  7.015776628283106E-6
0.0065                    -0.0185                  8.44157625893402E-6
0.0065                    -0.0175                  1.1336893041781774E-5
0.0065                    -0.0165                  1.7706487837764413E-5
0.0065                    -0.0155                  3.2812526975836656E-5
0.0065                    -0.0145                  7.559366605437849E-5
0.0065                    -0.0135                  2.162099261843847E-4
0.0065                    -0.0125                  6.11743287881491E-4
0.0065                    -0.0115                  0.0014935697201629364
0.0065                    -0.0105                  0.0036872746147260504
0.0065                    -0.0095                  0.00774997933111356
0.0065                    -0.0085                  0.012392144712411512
0.0065                    -0.0075                  0.016363317606453643
0.0065                    -0.0065                  0.019798253935595343
0.0065                    -0.0055                  0.022866013171127155