% Model:              Benchmark260518.mph
% Version:            COMSOL 6.2.0.339
% Date:               May 21 2026, 00:58
% Dimension:          2
% Nodes:              4096
% Expressions:        1
% Description:        速度大小
% Length unit:        m
% x                       y                        spf.U (m/s)
5.0E-4                    -0.0315                  1.6155836659041577E-6
5.0E-4                    -0.0305                  3.2172761109974737E-6
5.0E-4                    -0.0295                  3.577042427459333E-6
5.0E-4                    -0.0285                  3.9778551091556035E-6
5.0E-4                    -0.0275                  4.186525341385318E-6
5.0E-4                    -0.0265                  4.370994265151119E-6
5.0E-4                    -0.0255                  4.511289824296042E-6
5.0E-4                    -0.0245                  4.633233229864268E-6
5.0E-4                    -0.0235                  4.738512322298222E-6
5.0E-4                    -0.0225                  4.829697609328451E-6
5.0E-4                    -0.0215                  4.907718148620095E-6
5.0E-4                    -0.0205                  4.975848119692326E-6
5.0E-4                    -0.0195                  5.033603988804867E-6
5.0E-4                    -0.0185                  5.08401743046015E-6
5.0E-4                    -0.0175                  5.129454279463173E-6
5.0E-4                    -0.0165                  5.1748067319461485E-6
5.0E-4                    -0.0155                  5.22624147947109E-6
5.0E-4                    -0.0145                  5.287926249105279E-6
5.0E-4                    -0.0135                  5.367839276238254E-6
5.0E-4                    -0.0125                  5.4774580022126506E-6
5.0E-4                    -0.0115                  5.633623872376958E-6
5.0E-4                    -0.0105                  5.87581456306356E-6
5.0E-4                    -0.0095                  6.29814378923279E-6
5.0E-4                    -0.0085                  7.135588160394645E-6
5.0E-4                    -0.0075                  9.057653693973309E-6
5.0E-4                    -0.0065                  1.5578617361786268E-5
5.0E-4                    -0.0055                  3.7123297177624126E-5
5.0E-4                    -0.0045                  1.0607226419078069E-4
5.0E-4                    -0.0035                  2.0372016655641006E-4
5.0E-4                    -0.0025                  2.5598363989326977E-4
5.0E-4                    -0.0015                  3.7580338414828444E-4
5.0E-4                    -5.0E-4                  0.003250794418258574
5.0E-4                    5.0E-4                   0.012711944380531725
5.0E-4                    0.0015                   0.0188095392334679
5.0E-4                    0.0025                   0.016308644716898454
5.0E-4                    0.0035                   0.012136327887981245
5.0E-4                    0.0045                   0.00719983378835157
5.0E-4                    0.0055                   0.0031478341015003133
5.0E-4                    0.0065                   9.240224945788462E-4
5.0E-4                    0.0075                   2.021728013614653E-4
5.0E-4                    0.0085                   6.905085500530279E-5
5.0E-4                    0.0095                   8.551018245656341E-5
5.0E-4                    0.0105                   3.674165190077301E-4
5.0E-4                    0.0115                   0.001469516599146648
5.0E-4                    0.0125                   0.003961155688069327
5.0E-4                    0.0135                   0.007193565782081166
5.0E-4                    0.0145                   0.009165461637416583
5.0E-4                    0.0155                   0.005743281210762514
5.0E-4                    0.0165                   0.0012008877225163854
5.0E-4                    0.0175                   2.84336707287265E-4
5.0E-4                    0.0185                   7.483017018619794E-5
5.0E-4                    0.0195                   2.6764014073439882E-5
5.0E-4                    0.0205                   1.2704495667336672E-5
5.0E-4                    0.0215                   7.947842737956839E-6
5.0E-4                    0.0225                   6.338569753539347E-6
5.0E-4                    0.0235                   5.507990237184012E-6
5.0E-4                    0.0245                   5.0362460666978825E-6
5.0E-4                    0.0255                   4.734658641627699E-6
5.0E-4                    0.0265                   4.5035962263168895E-6
5.0E-4                    0.0275                   4.2867309438737036E-6
5.0E-4                    0.0285                   4.076892113407201E-6
5.0E-4                    0.0295                   3.7051918670696345E-6
5.0E-4                    0.0305                   3.3854300106721567E-6
5.0E-4                    0.0315                   1.7080420506552046E-6
0.0015                    -0.0315                  3.1524366153666484E-6
0.0015                    -0.0305                  6.19818583513659E-6
0.0015                    -0.0295                  6.600872272724232E-6
0.0015                    -0.0285                  7.026915059147337E-6
0.0015                    -0.0275                  7.160288270646084E-6
0.0015                    -0.0265                  7.28291636225965E-6
0.0015                    -0.0255                  7.374244138095952E-6
0.0015                    -0.0245                  7.460424164448106E-6
0.0015                    -0.0235                  7.54001113831845E-6
0.0015                    -0.0225                  7.612231732153052E-6
0.0015                    -0.0215                  7.675166450924785E-6
0.0015                    -0.0205                  7.729584833127984E-6
0.0015                    -0.0195                  7.773629738161548E-6
0.0015                    -0.0185                  7.80932064129277E-6
0.0015                    -0.0175                  7.839213871719912E-6
0.0015                    -0.0165                  7.869188392308254E-6
0.0015                    -0.0155                  7.907359668197224E-6
0.0015                    -0.0145                  7.96155827511683E-6
0.0015                    -0.0135                  8.045544447798196E-6
0.0015                    -0.0125                  8.18053248261962E-6
0.0015                    -0.0115                  8.401122637321791E-6
0.0015                    -0.0105                  8.78476670344098E-6
0.0015                    -0.0095                  9.521007483687627E-6
0.0015                    -0.0085                  1.1108953362925613E-5
0.0015                    -0.0075                  1.5092718606931851E-5
0.0015                    -0.0065                  2.729947466145077E-5
0.0015                    -0.0055                  6.494504250947127E-5
0.0015                    -0.0045                  1.8156716022821795E-4
0.0015                    -0.0035                  3.669120211140482E-4
0.0015                    -0.0025                  6.217742971064224E-4
0.0015                    -0.0015                  0.002173568236391257
0.0015                    -5.0E-4                  0.008795956311057085
0.0015                    5.0E-4                   0.017068348512650922
0.0015                    0.0015                   0.01906140923977938
0.0015                    0.0025                   0.015286934473401218
0.0015                    0.0035                   0.00993934628413234
0.0015                    0.0045                   0.004848504761479458
0.0015                    0.0055                   0.0017592916123510733
0.0015                    0.0065                   5.562123184774865E-4
0.0015                    0.0075                   1.7150489773842052E-4
0.0015                    0.0085                   6.401687320175376E-5
0.0015                    0.0095                   7.682442117380706E-5
0.0015                    0.0105                   2.4199873625012952E-4
0.0015                    0.0115                   8.012234031774206E-4
0.0015                    0.0125                   0.0025770167711757544
0.0015                    0.0135                   0.006115973698274763
0.0015                    0.0145                   0.008874949169095757
0.0015                    0.0155                   0.006900231629915654
0.0015                    0.0165                   0.0026935400420481127
0.0015                    0.0175                   6.421597907701326E-4
0.0015                    0.0185                   1.7247071441673286E-4
0.0015                    0.0195                   6.142734793458813E-5
0.0015                    0.0205                   2.696080325794435E-5
0.0015                    0.0215                   1.5212585621623302E-5
0.0015                    0.0225                   1.0937078347508318E-5
0.0015                    0.0235                   9.07851744889446E-6
0.0015                    0.0245                   8.171109902879596E-6
0.0015                    0.0255                   7.6927814055143E-6
0.0015                    0.0265                   7.4186324337668365E-6
0.0015                    0.0275                   7.231049758686076E-6
0.0015                    0.0285                   7.103251857787592E-6
0.0015                    0.0295                   6.745745562580253E-6
0.0015                    0.0305                   6.4832546753450425E-6
0.0015                    0.0315                   3.3418078386473498E-6
0.0025                    -0.0315                  3.34700541777721E-6
0.0025                    -0.0305                  6.3459230901860645E-6
0.0025                    -0.0295                  6.4103636843033255E-6
0.0025                    -0.0285                  6.617727116500707E-6
0.0025                    -0.0275                  6.505051814588403E-6
0.0025                    -0.0265                  6.368002947527103E-6
0.0025                    -0.0255                  6.228000879303831E-6
0.0025                    -0.0245                  6.108655146449342E-6
0.0025                    -0.0235                  6.009205417917955E-6
0.0025                    -0.0225                  5.926219516784249E-6
0.0025                    -0.0215                  5.854282816161127E-6
0.0025                    -0.0205                  5.7881707786107815E-6
0.0025                    -0.0195                  5.723995892909802E-6
0.0025                    -0.0185                  5.6591576966780954E-6
0.0025                    -0.0175                  5.5933094271830894E-6
0.0025                    -0.0165                  5.528239321471645E-6
0.0025                    -0.0155                  5.468275671901405E-6
0.0025                    -0.0145                  5.421541431729028E-6
0.0025                    -0.0135                  5.401702457664279E-6
0.0025                    -0.0125                  5.432407788533835E-6
0.0025                    -0.0115                  5.557354670317773E-6
0.0025                    -0.0105                  5.868617773847355E-6
0.0025                    -0.0095                  6.592000014170742E-6
0.0025                    -0.0085                  8.354625017151304E-6
0.0025                    -0.0075                  1.2989921110499891E-5
0.0025                    -0.0065                  2.556012670932496E-5
0.0025                    -0.0055                  6.163754864331942E-5
0.0025                    -0.0045                  1.8415557459393192E-4
0.0025                    -0.0035                  4.6090489053380755E-4
0.0025                    -0.0025                  0.0013342312435169654
0.0025                    -0.0015                  0.005244843583384052
0.0025                    -5.0E-4                  0.012776745591723784
0.0025                    5.0E-4                   0.018498456791564064
0.0025                    0.0015                   0.01795539581651929
0.0025                    0.0025                   0.01292692650763088
0.0025                    0.0035                   0.007155530523339097
0.0025                    0.0045                   0.0029590691070607773
0.0025                    0.0055                   0.0010187326927948465
0.0025                    0.0065                   3.311947587165881E-4
0.0025                    0.0075                   1.0948051671340832E-4
0.0025                    0.0085                   5.340613806862295E-5
0.0025                    0.0095                   6.136821067973005E-5
0.0025                    0.0105                   1.6317996994595068E-4
0.0025                    0.0115                   5.616729738296347E-4
0.0025                    0.0125                   0.0018765784421115928
0.0025                    0.0135                   0.005064735431471252
0.0025                    0.0145                   0.008422840602883579
0.0025                    0.0155                   0.007685772305869241
0.0025                    0.0165                   0.003802947553143175
0.0025                    0.0175                   0.0011734454649957626
0.0025                    0.0185                   3.401968910238206E-4
0.0025                    0.0195                   1.0907327904040716E-4
0.0025                    0.0205                   4.227414255051118E-5
0.0025                    0.0215                   1.9533224778407727E-5
0.0025                    0.0225                   1.1426069035482602E-5
0.0025                    0.0235                   8.29856426266987E-6
0.0025                    0.0245                   7.012151501553145E-6
0.0025                    0.0255                   6.5111130644311865E-6
0.0025                    0.0265                   6.383771248373309E-6
0.0025                    0.0275                   6.424979396229018E-6
0.0025                    0.0285                   6.548269946499035E-6
0.0025                    0.0295                   6.433489157778395E-6
0.0025                    0.0305                   6.661273454758075E-6
0.0025                    0.0315                   3.6208940124079817E-6
0.0035                    -0.0315                  3.645726240411786E-6
0.0035                    -0.0305                  6.633295526106588E-6
0.0035                    -0.0295                  6.543060223285336E-6
0.0035                    -0.0285                  6.9476517398607565E-6
0.0035                    -0.0275                  6.946622757469461E-6
0.0035                    -0.0265                  6.844161214691554E-6
0.0035                    -0.0255                  6.682989032973747E-6
0.0035                    -0.0245                  6.521784177806424E-6
0.0035                    -0.0235                  6.3737971197734665E-6
0.0035                    -0.0225                  6.242996234885837E-6
0.0035                    -0.0215                  6.125953038442443E-6
0.0035                    -0.0205                  6.01704830858428E-6
0.0035                    -0.0195                  5.91025283601173E-6
0.0035                    -0.0185                  5.800853177365859E-6
0.0035                    -0.0175                  5.686448351035481E-6
0.0035                    -0.0165                  5.567838877622752E-6
0.0035                    -0.0155                  5.449845062142132E-6
0.0035                    -0.0145                  5.342637250488102E-6
0.0035                    -0.0135                  5.264563969271007E-6
0.0035                    -0.0125                  5.2482384507264615E-6
0.0035                    -0.0115                  5.3547994262348155E-6
0.0035                    -0.0105                  5.711175134100933E-6
0.0035                    -0.0095                  6.616205767278856E-6
0.0035                    -0.0085                  8.879846855886995E-6
0.0035                    -0.0075                  1.467574412562983E-5
0.0035                    -0.0065                  3.0230858240208566E-5
0.0035                    -0.0055                  7.642105204927788E-5
0.0035                    -0.0045                  2.640730412934624E-4
0.0035                    -0.0035                  8.15712883730408E-4
0.0035                    -0.0025                  0.0028884543271333967
0.0035                    -0.0015                  0.008493069805266469
0.0035                    -5.0E-4                  0.015586389713198086
0.0035                    5.0E-4                   0.01865692999965862
0.0035                    0.0015                   0.01577736062606506
0.0035                    0.0025                   0.009836172764988289
0.0035                    0.0035                   0.004600865559782553
0.0035                    0.0045                   0.0016967584917958118
0.0035                    0.0055                   5.80889194242107E-4
0.0035                    0.0065                   1.8336440952280677E-4
0.0035                    0.0075                   6.481725766834123E-5
0.0035                    0.0085                   3.7878633311518034E-5
0.0035                    0.0095                   4.3512151697287855E-5
0.0035                    0.0105                   9.716797558535947E-5
0.0035                    0.0115                   3.4946779625753187E-4
0.0035                    0.0125                   0.0012672319010761442
0.0035                    0.0135                   0.0038492340109865988
0.0035                    0.0145                   0.007572155677128974
0.0035                    0.0155                   0.008537664070849637
0.0035                    0.0165                   0.005503563766117274
0.0035                    0.0175                   0.002233417555072646
0.0035                    0.0185                   7.350015475209587E-4
0.0035                    0.0195                   2.3183471707804605E-4
0.0035                    0.0205                   7.427633827767E-5
0.0035                    0.0215                   3.029421228550023E-5
0.0035                    0.0225                   1.5645502755007517E-5
0.0035                    0.0235                   1.0047212816536956E-5
0.0035                    0.0245                   7.837524197984652E-6
0.0035                    0.0255                   7.0211202559863986E-6
0.0035                    0.0265                   6.800596858809353E-6
0.0035                    0.0275                   6.7882382281878345E-6
0.0035                    0.0285                   6.819320106209284E-6
0.0035                    0.0295                   6.545014395369295E-6
0.0035                    0.0305                   7.034995625656783E-6
0.0035                    0.0315                   4.005680917018267E-6
0.0045                    -0.0315                  3.829375507890694E-6
0.0045                    -0.0305                  6.736067831811772E-6
0.0045                    -0.0295                  6.421729472328806E-6
0.0045                    -0.0285                  6.9374595529152105E-6
0.0045                    -0.0275                  7.098609304456855E-6
0.0045                    -0.0265                  7.115489511409896E-6
0.0045                    -0.0255                  7.009404449807719E-6
0.0045                    -0.0245                  6.860324715152414E-6
0.0045                    -0.0235                  6.702027414053916E-6
0.0045                    -0.0225                  6.551192878265118E-6
0.0045                    -0.0215                  6.410701132299939E-6
0.0045                    -0.0205                  6.276780888656037E-6
0.0045                    -0.0195                  6.14251499761059E-6
0.0045                    -0.0185                  6.000848512882251E-6
0.0045                    -0.0175                  5.846951167909878E-6
0.0045                    -0.0165                  5.680077895353066E-6
0.0045                    -0.0155                  5.50515810484081E-6
0.0045                    -0.0145                  5.33480813495232E-6
0.0045                    -0.0135                  5.192993890227506E-6
0.0045                    -0.0125                  5.123356153008487E-6
0.0045                    -0.0115                  5.2092503423972024E-6
0.0045                    -0.0105                  5.6266991641393486E-6
0.0045                    -0.0095                  6.786692277601529E-6
0.0045                    -0.0085                  9.767321111798269E-6
0.0045                    -0.0075                  1.7587200900069936E-5
0.0045                    -0.0065                  4.00541922941592E-5
0.0045                    -0.0055                  1.074572074407914E-4
0.0045                    -0.0045                  3.9726870227853734E-4
0.0045                    -0.0035                  0.0014349349713207163
0.0045                    -0.0025                  0.0049645023682059405
0.0045                    -0.0015                  0.011633210111276495
0.0045                    -5.0E-4                  0.017396130171107162
0.0045                    5.0E-4                   0.01772186990009315
0.0045                    0.0015                   0.012870155625218987
0.0045                    0.0025                   0.006755598482998531
0.0045                    0.0035                   0.0026835199349190017
0.0045                    0.0045                   9.219112695125166E-4
0.0045                    0.0055                   3.110250841199508E-4
0.0045                    0.0065                   1.0628073132285894E-4
0.0045                    0.0075                   4.412422038732764E-5
0.0045                    0.0085                   2.7413810402654844E-5
0.0045                    0.0095                   3.162803754192315E-5
0.0045                    0.0105                   6.784114755419124E-5
0.0045                    0.0115                   2.1405916039069856E-4
0.0045                    0.0125                   7.628622199964389E-4
0.0045                    0.0135                   0.0025429924771844053
0.0045                    0.0145                   0.006082270847370516
0.0045                    0.0155                   0.008659908708747593
0.0045                    0.0165                   0.0072786353648983705
0.0045                    0.0175                   0.0038107111136138645
0.0045                    0.0185                   0.0013945966126490987
0.0045                    0.0195                   4.3142352193947635E-4
0.0045                    0.0205                   1.2634460862760211E-4
0.0045                    0.0215                   4.949852528352888E-5
0.0045                    0.0225                   2.277946899528386E-5
0.0045                    0.0235                   1.2894507797178777E-5
0.0045                    0.0245                   9.015399809829345E-6
0.0045                    0.0255                   7.585247430671153E-6
0.0045                    0.0265                   7.108394194212943E-6
0.0045                    0.0275                   6.924639950049432E-6
0.0045                    0.0285                   6.7954771070323605E-6
0.0045                    0.0295                   6.426648340689312E-6
0.0045                    0.0305                   7.194480306717428E-6
0.0045                    0.0315                   4.2379158979754085E-6
0.0055                    -0.0315                  3.992058805729535E-6
0.0055                    -0.0305                  6.847817095694607E-6
0.0055                    -0.0295                  6.3150999294040635E-6
0.0055                    -0.0285                  6.869019729374121E-6
0.0055                    -0.0275                  7.153280919180583E-6
0.0055                    -0.0265                  7.313213117805183E-6
0.0055                    -0.0255                  7.3143346244426414E-6
0.0055                    -0.0245                  7.229620722549492E-6
0.0055                    -0.0235                  7.104455512068888E-6
0.0055                    -0.0225                  6.969022641415774E-6
0.0055                    -0.0215                  6.835244424532881E-6
0.0055                    -0.0205                  6.7037027195390925E-6
0.0055                    -0.0195                  6.567858523811898E-6
0.0055                    -0.0185                  6.418324546206546E-6
0.0055                    -0.0175                  6.246760422263638E-6
0.0055                    -0.0165                  6.049422838332436E-6
0.0055                    -0.0155                  5.830182557950085E-6
0.0055                    -0.0145                  5.603705379858176E-6
0.0055                    -0.0135                  5.4009652674200165E-6
0.0055                    -0.0125                  5.281519860087389E-6
0.0055                    -0.0115                  5.364510502053299E-6
0.0055                    -0.0105                  5.908851081385869E-6
0.0055                    -0.0095                  7.527663213379183E-6
0.0055                    -0.0085                  1.1817065671881067E-5
0.0055                    -0.0075                  2.34383693483903E-5
0.0055                    -0.0065                  5.9548264713865445E-5
0.0055                    -0.0055                  1.9405810073427147E-4
0.0055                    -0.0045                  6.845184801550199E-4
0.0055                    -0.0035                  0.0024656731258758786
0.0055                    -0.0025                  0.007442987623305077
0.0055                    -0.0015                  0.014476763124838308
0.0055                    -5.0E-4                  0.018286548539938167
0.0055                    5.0E-4                   0.015914201030687206
0.0055                    0.0015                   0.009736094444450881
0.0055                    0.0025                   0.004265216310183455
0.0055                    0.0035                   0.0014913549308498454
0.0055                    0.0045                   4.7997291345974855E-4
0.0055                    0.0055                   1.5027277462016528E-4
0.0055                    0.0065                   5.880782570668638E-5
0.0055                    0.0075                   3.0099222961469868E-5
0.0055                    0.0085                   2.0845700764639365E-5
0.0055                    0.0095                   2.4059193229534632E-5
0.0055                    0.0105                   4.679242942872211E-5
0.0055                    0.0115                   1.2178680229071425E-4
0.0055                    0.0125                   4.3503305518363255E-4
0.0055                    0.0135                   0.0014938150917732259
0.0055                    0.0145                   0.004221300821173417
0.0055                    0.0155                   0.007677473672192354
0.0055                    0.0165                   0.008467024293135844
0.0055                    0.0175                   0.005751208473018078
0.0055                    0.0185                   0.002514225420763434
0.0055                    0.0195                   8.164273427557774E-4
0.0055                    0.0205                   2.531507242988553E-4
0.0055                    0.0215                   8.702383330088214E-5
0.0055                    0.0225                   3.585744963693477E-5
0.0055                    0.0235                   1.7525528972558802E-5
0.0055                    0.0245                   1.0861797164707762E-5
0.0055                    0.0255                   8.389327476310321E-6
0.0055                    0.0265                   7.459664372690065E-6
0.0055                    0.0275                   7.020869522418768E-6
0.0055                    0.0285                   6.739924154009417E-6
0.0055                    0.0295                   6.328713541004055E-6
0.0055                    0.0305                   7.383597136642803E-6
0.0055                    0.0315                   4.470357917231955E-6
0.0065                    -0.0315                  4.134318462872799E-6
0.0065                    -0.0305                  6.955915265851839E-6
0.0065                    -0.0295                  6.218303542621661E-6
0.0065                    -0.0285                  6.758534141236637E-6
0.0065                    -0.0275                  7.103774169735219E-6
0.0065                    -0.0265                  7.372482998829409E-6
0.0065                    -0.0255                  7.483368390584305E-6
0.0065                    -0.0245                  7.484790494323402E-6
0.0065                    -0.0235                  7.418367380382081E-6
0.0065                    -0.0225                  7.321841482308032E-6
0.0065                    -0.0215                  7.2160943288869214E-6
0.0065                    -0.0205                  7.107874754039394E-6
0.0065                    -0.0195                  6.992759224743525E-6
0.0065                    -0.0185                  6.8595227152474425E-6
0.0065                    -0.0175                  6.695181450868888E-6
0.0065                    -0.0165                  6.490648570476042E-6
0.0065                    -0.0155                  6.24639260866098E-6
0.0065                    -0.0145                  5.978256640238823E-6
0.0065                    -0.0135                  5.7265072673554865E-6
0.0065                    -0.0125                  5.5757521618330066E-6
0.0065                    -0.0115                  5.7042388636090425E-6
0.0065                    -0.0105                  6.5099920462796755E-6
0.0065                    -0.0095                  8.980450567175421E-6
0.0065                    -0.0085                  1.563372624835216E-5
0.0065                    -0.0075                  3.4743212998456264E-5
0.0065                    -0.0065                  9.255289710263039E-5
0.0065                    -0.0055                  3.405172357249274E-4