% Model:              Benchmark260518.mph
% Version:            COMSOL 6.2.0.339
% Date:               May 19 2026, 21:57
% Dimension:          2
% Nodes:              4096
% Expressions:        1
% Description:        速度大小
% Length unit:        m
% x                       y                        spf.U (m/s)
5.0E-4                    -0.0315                  2.86946672338383E-6
5.0E-4                    -0.0305                  5.765102474965311E-6
5.0E-4                    -0.0295                  6.505343519797499E-6
5.0E-4                    -0.0285                  7.342269627508992E-6
5.0E-4                    -0.0275                  7.856343019201689E-6
5.0E-4                    -0.0265                  8.358888098936404E-6
5.0E-4                    -0.0255                  8.776167643511168E-6
5.0E-4                    -0.0245                  9.145892400906865E-6
5.0E-4                    -0.0235                  9.478859149244996E-6
5.0E-4                    -0.0225                  9.822053637822255E-6
5.0E-4                    -0.0215                  1.0258819867876581E-5
5.0E-4                    -0.0205                  1.0853473142160662E-5
5.0E-4                    -0.0195                  1.1725763494332442E-5
5.0E-4                    -0.0185                  1.2897628895459772E-5
5.0E-4                    -0.0175                  1.437977403208999E-5
5.0E-4                    -0.0165                  1.6136971683736822E-5
5.0E-4                    -0.0155                  1.8216282622388945E-5
5.0E-4                    -0.0145                  2.089621290367238E-5
5.0E-4                    -0.0135                  2.4840716894231434E-5
5.0E-4                    -0.0125                  3.0347596872958545E-5
5.0E-4                    -0.0115                  4.006391955141959E-5
5.0E-4                    -0.0105                  6.030745672125327E-5
5.0E-4                    -0.0095                  1.0339890931038483E-4
5.0E-4                    -0.0085                  2.0959647975808245E-4
5.0E-4                    -0.0075                  3.3277441065491365E-4
5.0E-4                    -0.0065                  3.685640367018632E-4
5.0E-4                    -0.0055                  4.048256387023696E-4
5.0E-4                    -0.0045                  7.518246686604738E-4
5.0E-4                    -0.0035                  0.001532482662481689
5.0E-4                    -0.0025                  0.0026731477635193114
5.0E-4                    -0.0015                  0.004010983588707911
5.0E-4                    -5.0E-4                  0.005334943875797754
5.0E-4                    5.0E-4                   0.006434021283780127
5.0E-4                    0.0015                   0.007124639839976041
5.0E-4                    0.0025                   0.007288638210159559
5.0E-4                    0.0035                   0.006889368312160958
5.0E-4                    0.0045                   0.0059682706450612435
5.0E-4                    0.0055                   0.004644468591355419
5.0E-4                    0.0065                   0.003066755878907788
5.0E-4                    0.0075                   0.00148983789231625
5.0E-4                    0.0085                   0.001057234356608208
5.0E-4                    0.0095                   0.0019840454802082914
5.0E-4                    0.0105                   0.0023149173141914377
5.0E-4                    0.0115                   0.0019369450862312956
5.0E-4                    0.0125                   0.0012563858124535507
5.0E-4                    0.0135                   6.924184966476771E-4
5.0E-4                    0.0145                   3.672569204331966E-4
5.0E-4                    0.0155                   2.3273756675975374E-4
5.0E-4                    0.0165                   2.3303341992313246E-4
5.0E-4                    0.0175                   3.723498982499053E-4
5.0E-4                    0.0185                   5.700355480131152E-4
5.0E-4                    0.0195                   7.669400322333966E-4
5.0E-4                    0.0205                   0.0020934066091000294
5.0E-4                    0.0215                   0.0043537561061961355
5.0E-4                    0.0225                   0.04637231507469829
5.0E-4                    0.0235                   0.08218143557346314
5.0E-4                    0.0245                   0.06718610986076774
5.0E-4                    0.0255                   0.026391105927060007
5.0E-4                    0.0265                   6.213824392709629E-4
5.0E-4                    0.0275                   5.119506998457121E-4
5.0E-4                    0.0285                   1.2031897162628854E-4
5.0E-4                    0.0295                   3.73139692169929E-5
5.0E-4                    0.0305                   1.1602887290076809E-5
5.0E-4                    0.0315                   3.474407479240779E-6
0.0015                    -0.0315                  5.570386340774575E-6
0.0015                    -0.0305                  1.1011209993707902E-5
0.0015                    -0.0295                  1.1861942095506789E-5
0.0015                    -0.0285                  1.2829813599412836E-5
0.0015                    -0.0275                  1.3324409854817096E-5
0.0015                    -0.0265                  1.3848639579146731E-5
0.0015                    -0.0255                  1.430900085857148E-5
0.0015                    -0.0245                  1.472717450511482E-5
0.0015                    -0.0235                  1.5110613402684684E-5
0.0015                    -0.0225                  1.553808762916539E-5
0.0015                    -0.0215                  1.6168283923959645E-5
0.0015                    -0.0205                  1.7206291754035042E-5
0.0015                    -0.0195                  1.8961488914732843E-5
0.0015                    -0.0185                  2.1663124032915658E-5
0.0015                    -0.0175                  2.5380522608897507E-5
0.0015                    -0.0165                  2.998622314083418E-5
0.0015                    -0.0155                  3.576433213705035E-5
0.0015                    -0.0145                  4.375555995606916E-5
0.0015                    -0.0135                  5.603238927923413E-5
0.0015                    -0.0125                  7.595054097888845E-5
0.0015                    -0.0115                  1.068364997880462E-4
0.0015                    -0.0105                  1.534530627205427E-4
0.0015                    -0.0095                  2.5588185844448576E-4
0.0015                    -0.0085                  4.6516639460758287E-4
0.0015                    -0.0075                  7.423958673927455E-4
0.0015                    -0.0065                  0.0011627002193406936
0.0015                    -0.0055                  0.0022216925625737527
0.0015                    -0.0045                  0.004287206754556949
0.0015                    -0.0035                  0.007149076224638796
0.0015                    -0.0025                  0.010452480347870788
0.0015                    -0.0015                  0.013769850951357488
0.0015                    -5.0E-4                  0.01669021186157948
0.0015                    5.0E-4                   0.018917675712838224
0.0015                    0.0015                   0.020275632542517682
0.0015                    0.0025                   0.020684088864130847
0.0015                    0.0035                   0.02014316959689568
0.0015                    0.0045                   0.01870775533247299
0.0015                    0.0055                   0.016475622781649928
0.0015                    0.0065                   0.013534804429069054
0.0015                    0.0075                   0.009981350040299796
0.0015                    0.0085                   0.006002908748914847
0.0015                    0.0095                   0.0023102557984981354
0.0015                    0.0105                   0.002000476401239669
0.0015                    0.0115                   0.0032340786750616763
0.0015                    0.0125                   0.002983268557412663
0.0015                    0.0135                   0.0020694433578597156
0.0015                    0.0145                   0.0012533979442320077
0.0015                    0.0155                   8.473000318005881E-4
0.0015                    0.0165                   7.834843824140297E-4
0.0015                    0.0175                   9.701099429816092E-4
0.0015                    0.0185                   0.0012987795027464318
0.0015                    0.0195                   0.0020182704613487686
0.0015                    0.0205                   0.004241973933624057
0.0015                    0.0215                   0.012749049439131122
0.0015                    0.0225                   0.056163787715947024
0.0015                    0.0235                   0.0810454292313345
0.0015                    0.0245                   0.06244069807361051
0.0015                    0.0255                   0.023627684179339917
0.0015                    0.0265                   9.284585924990833E-4
0.0015                    0.0275                   0.001120312043055957
0.0015                    0.0285                   2.6013963358571693E-4
0.0015                    0.0295                   7.321224447984527E-5
0.0015                    0.0305                   2.216160829299536E-5
0.0015                    0.0315                   6.77574427760466E-6
0.0025                    -0.0315                  5.876174488093927E-6
0.0025                    -0.0305                  1.1132477002981203E-5
0.0025                    -0.0295                  1.1276558411991538E-5
0.0025                    -0.0285                  1.1818443969906495E-5
0.0025                    -0.0275                  1.1885848322605085E-5
0.0025                    -0.0265                  1.1983953019269548E-5
0.0025                    -0.0255                  1.2106535578586272E-5
0.0025                    -0.0245                  1.2261317454713023E-5
0.0025                    -0.0235                  1.2455740763829066E-5
0.0025                    -0.0225                  1.2796502898924556E-5
0.0025                    -0.0215                  1.3554638850584175E-5
0.0025                    -0.0205                  1.522556908807978E-5
0.0025                    -0.0195                  1.8626885561102283E-5
0.0025                    -0.0185                  2.4736204508295503E-5
0.0025                    -0.0175                  3.413925911057145E-5
0.0025                    -0.0165                  4.666733143145315E-5
0.0025                    -0.0155                  6.214927103385231E-5
0.0025                    -0.0145                  8.529227426173203E-5
0.0025                    -0.0135                  1.2189572304515613E-4
0.0025                    -0.0125                  1.7472429956750358E-4
0.0025                    -0.0115                  2.7121995612678333E-4
0.0025                    -0.0105                  3.9063136952340976E-4
0.0025                    -0.0095                  5.654258340748617E-4
0.0025                    -0.0085                  8.968866830144969E-4
0.0025                    -0.0075                  0.0016610690901249757
0.0025                    -0.0065                  0.0035773139344077057
0.0025                    -0.0055                  0.007060797644133106
0.0025                    -0.0045                  0.011587875345442996
0.0025                    -0.0035                  0.01631900939444614
0.0025                    -0.0025                  0.020623565811456693
0.0025                    -0.0015                  0.02412849313220561
0.0025                    -5.0E-4                  0.026729234400337698
0.0025                    5.0E-4                   0.028508714756344748
0.0025                    0.0015                   0.029601711511950003
0.0025                    0.0025                   0.030126010030002166
0.0025                    0.0035                   0.030155712372452965
0.0025                    0.0045                   0.029698769176461484
0.0025                    0.0055                   0.028678792961997268
0.0025                    0.0065                   0.02691403710498802
0.0025                    0.0075                   0.024135917527865133
0.0025                    0.0085                   0.020085240941737137
0.0025                    0.0095                   0.014692641358035516
0.0025                    0.0105                   0.008393551179996453
0.0025                    0.0115                   0.002593557856073134
0.0025                    0.0125                   0.002014524856232498
0.0025                    0.0135                   0.003780966079648143
0.0025                    0.0145                   0.0038004696483981927
0.0025                    0.0155                   0.0032652208762681788
0.0025                    0.0165                   0.0027844451212359457
0.0025                    0.0175                   0.002559565236021739
0.0025                    0.0185                   0.0026111636424369835
0.0025                    0.0195                   0.0035256389605477253
0.0025                    0.0205                   0.002498361842910468
0.0025                    0.0215                   0.023348126514935744
0.0025                    0.0225                   0.06361870773869648
0.0025                    0.0235                   0.0786509588030292
0.0025                    0.0245                   0.05609401609511588
0.0025                    0.0255                   0.019303881480360476
0.0025                    0.0265                   3.456516736168503E-4
0.0025                    0.0275                   0.0013656664715170415
0.0025                    0.0285                   3.316830824648919E-4
0.0025                    0.0295                   8.562593777923515E-5
0.0025                    0.0305                   2.3488791277361823E-5
0.0025                    0.0315                   7.016875512752295E-6
0.0035                    -0.0315                  6.391911199819269E-6
0.0035                    -0.0305                  1.1549827101966388E-5
0.0035                    -0.0295                  1.1299020013058083E-5
0.0035                    -0.0285                  1.2130622693995035E-5
0.0035                    -0.0275                  1.24074607868229E-5
0.0035                    -0.0265                  1.267982003429972E-5
0.0035                    -0.0255                  1.3000274880022413E-5
0.0035                    -0.0245                  1.3463999265149928E-5
0.0035                    -0.0235                  1.415240932668988E-5
0.0035                    -0.0225                  1.5326070745332375E-5
0.0035                    -0.0215                  1.7606126916098386E-5
0.0035                    -0.0205                  2.2255968734803698E-5
0.0035                    -0.0195                  3.148674034086294E-5
0.0035                    -0.0185                  5.010071724791439E-5
0.0035                    -0.0175                  8.342142387455873E-5
0.0035                    -0.0165                  1.2759719577681353E-4
0.0035                    -0.0155                  1.7737449019029978E-4
0.0035                    -0.0145                  2.500005226954866E-4
0.0035                    -0.0135                  4.1254518865024717E-4
0.0035                    -0.0125                  6.320726390269048E-4
0.0035                    -0.0115                  9.048369546784952E-4
0.0035                    -0.0105                  0.001218346087927368
0.0035                    -0.0095                  0.00159707474498457
0.0035                    -0.0085                  0.0025068600704152497
0.0035                    -0.0075                  0.004825906583727572
0.0035                    -0.0065                  0.009068661653617402
0.0035                    -0.0055                  0.014572762380349295
0.0035                    -0.0045                  0.020055211843600387
0.0035                    -0.0035                  0.02457356159884567
0.0035                    -0.0025                  0.02782537109188417
0.0035                    -0.0015                  0.029962172742028354
0.0035                    -5.0E-4                  0.03129698590154514
0.0035                    5.0E-4                   0.032116780605569384
0.0035                    0.0015                   0.03262956596842576
0.0035                    0.0025                   0.03302776094120812
0.0035                    0.0035                   0.03345337350584602
0.0035                    0.0045                   0.03393681545556497
0.0035                    0.0055                   0.03437047131498177
0.0035                    0.0065                   0.03452048656112791
0.0035                    0.0075                   0.03401791111462298
0.0035                    0.0085                   0.032348330784680523
0.0035                    0.0095                   0.02896093997754137
0.0035                    0.0105                   0.023530428439492324
0.0035                    0.0115                   0.01626124495192267
0.0035                    0.0125                   0.008347101483620063
0.0035                    0.0135                   0.0024875420454218682
0.0035                    0.0145                   0.004396763942162744
0.0035                    0.0155                   0.006578664871730531
0.0035                    0.0165                   0.00706056022483377
0.0035                    0.0175                   0.006608041486502828
0.0035                    0.0185                   0.005874050828760304
0.0035                    0.0195                   0.005271641484777506
0.0035                    0.0205                   0.005753274155109019
0.0035                    0.0215                   0.03683712477389913
0.0035                    0.0225                   0.06919497039603831
0.0035                    0.0235                   0.07463003565045458
0.0035                    0.0245                   0.04814700436817126
0.0035                    0.0255                   0.014138707056384148
0.0035                    0.0265                   4.3718957108963315E-4
0.0035                    0.0275                   0.001397209201764728
0.0035                    0.0285                   3.661060942208112E-4
0.0035                    0.0295                   1.0212796242035545E-4
0.0035                    0.0305                   2.6462831417928253E-5
0.0035                    0.0315                   7.610258664152429E-6
0.0045                    -0.0315                  6.731256098644623E-6
0.0045                    -0.0305                  1.1690533939626331E-5
0.0045                    -0.0295                  1.0910606761730255E-5
0.0045                    -0.0285                  1.1854067661304702E-5
0.0045                    -0.0275                  1.2407882311088311E-5
0.0045                    -0.0265                  1.3027537118440007E-5
0.0045                    -0.0255                  1.3808086062524068E-5
0.0045                    -0.0245                  1.4990231387614554E-5
0.0045                    -0.0235                  1.6866777223262824E-5
0.0045                    -0.0225                  2.0147194678182614E-5
0.0045                    -0.0215                  2.651731277702165E-5
0.0045                    -0.0205                  3.925798332550161E-5
0.0045                    -0.0195                  6.582242439528756E-5
0.0045                    -0.0185                  1.2237437871805943E-4
0.0045                    -0.0175                  2.578712861864381E-4
0.0045                    -0.0165                  4.6950808758745616E-4
0.0045                    -0.0155                  7.025292798476391E-4
0.0045                    -0.0145                  0.0010016808909205355
0.0045                    -0.0135                  0.001588702759489603
0.0045                    -0.0125                  0.0024055889929205407
0.0045                    -0.0115                  0.003152236981861624
0.0045                    -0.0105                  0.003755690632139535
0.0045                    -0.0095                  0.004522644688244849
0.0045                    -0.0085                  0.006444180131958725
0.0045                    -0.0075                  0.01043937968139568
0.0045                    -0.0065                  0.01596845148815809
0.0045                    -0.0055                  0.02149615867617117
0.0045                    -0.0045                  0.025788366660512648
0.0045                    -0.0035                  0.02847692873137487
0.0045                    -0.0025                  0.029800913919848192
0.0045                    -0.0015                  0.03009930577955139
0.0045                    -5.0E-4                  0.02966358414974283
0.0045                    5.0E-4                   0.02888845244934165
0.0045                    0.0015                   0.028256233073669215
0.0045                    0.0025                   0.02815177955779905
0.0045                    0.0035                   0.028768138882406515
0.0045                    0.0045                   0.03012130330136562
0.0045                    0.0055                   0.032042408962453826
0.0045                    0.0065                   0.03420909585876611
0.0045                    0.0075                   0.036204597232546626
0.0045                    0.0085                   0.037536460241982025
0.0045                    0.0095                   0.03764505846683074
0.0045                    0.0105                   0.03593815312111589
0.0045                    0.0115                   0.03191092294293194
0.0045                    0.0125                   0.0254793547052722
0.0045                    0.0135                   0.017174709176657085
0.0045                    0.0145                   0.00861524108881548
0.0045                    0.0155                   0.003079399710568756
0.0045                    0.0165                   0.004919034027740689
0.0045                    0.0175                   0.006536218410686255
0.0045                    0.0185                   0.006051626667746461
0.0045                    0.0195                   0.0030972457544747247
0.0045                    0.0205                   0.01865321990289465
0.0045                    0.0215                   0.04988169698628423
0.0045                    0.0225                   0.07133981967915541
0.0045                    0.0235                   0.06841622086055583
0.0045                    0.0245                   0.03901755357355577
0.0045                    0.0255                   0.008911691600034228
0.0045                    0.0265                   8.101969720534702E-4
0.0045                    0.0275                   0.0012674886965288927
0.0045                    0.0285                   3.8063500471717196E-4
0.0045                    0.0295                   1.105558817705017E-4
0.0045                    0.0305                   3.020250615004677E-5
0.0045                    0.0315                   8.617455358365266E-6
0.0055                    -0.0315                  7.067795565427772E-6
0.0055                    -0.0305                  1.1908443144134029E-5
0.0055                    -0.0295                  1.0609323922838232E-5
0.0055                    -0.0285                  1.1530003228789367E-5
0.0055                    -0.0275                  1.229288542447274E-5
0.0055                    -0.0265                  1.3371992325118323E-5
0.0055                    -0.0255                  1.4947655227474494E-5
0.0055                    -0.0245                  1.7544138728675113E-5
0.0055                    -0.0235                  2.1956737654791126E-5
0.0055                    -0.0225                  2.9861850924132857E-5
0.0055                    -0.0215                  4.5714098768604274E-5
0.0055                    -0.0205                  8.079978415936656E-5
0.0055                    -0.0195                  1.58773290032937E-4
0.0055                    -0.0185                  3.6281725815822855E-4
0.0055                    -0.0175                  8.146847519962766E-4
0.0055                    -0.0165                  0.001510274567791618
0.0055                    -0.0155                  0.002468921471552412
0.0055                    -0.0145                  0.0038735235909633466
0.0055                    -0.0135                  0.00575567208763096
0.0055                    -0.0125                  0.007581445360176661
0.0055                    -0.0115                  0.008712473844712002
0.0055                    -0.0105                  0.009187173433186133
0.0055                    -0.0095                  0.009748942967728158
0.0055                    -0.0085                  0.011748316330033927
0.0055                    -0.0075                  0.015901294322659517
0.0055                    -0.0065                  0.02094816284764749
0.0055                    -0.0055                  0.025104560069843202
0.0055                    -0.0045                  0.027532239295509846
0.0055                    -0.0035                  0.028261973630885614
0.0055                    -0.0025                  0.027427918077732753
0.0055                    -0.0015                  0.025245988943067378
0.0055                    -5.0E-4                  0.02237987866867252
0.0055                    5.0E-4                   0.0196960108489058
0.0055                    0.0015                   0.01781714714711186
0.0055                    0.0025                   0.017023681225926155
0.0055                    0.0035                   0.017400182761650434
0.0055                    0.0045                   0.018987157868308305
0.0055                    0.0055                   0.021768933625125067
0.0055                    0.0065                   0.025536579542220578
0.0055                    0.0075                   0.029861420092987104
0.0055                    0.0085                   0.03416703359166428
0.0055                    0.0095                   0.03781748625044224
0.0055                    0.0105                   0.04023446719612545
0.0055                    0.0115                   0.04084716163839086
0.0055                    0.0125                   0.039124427010834
0.0055                    0.0135                   0.03474588892880189
0.0055                    0.0145                   0.027903263987701012
0.0055                    0.0155                   0.019602601702491555
0.0055                    0.0165                   0.011639335741829536
0.0055                    0.0175                   0.006416520530629287
0.0055                    0.0185                   0.006569063686883642
0.0055                    0.0195                   0.015524617944585562
0.0055                    0.0205                   0.03570933097145337
0.0055                    0.0215                   0.05832099085096269
0.0055                    0.0225                   0.06891846945529088
0.0055                    0.0235                   0.05971992902784117
0.0055                    0.0245                   0.029872743858422073
0.0055                    0.0255                   0.004993211139692664
0.0055                    0.0265                   0.0017515468181788594
0.0055                    0.0275                   0.001517455877236085
0.0055                    0.0285                   5.281838041331343E-4
0.0055                    0.0295                   1.4060872680626596E-4
0.0055                    0.0305                   4.051996203910498E-5
0.0055                    0.0315                   1.154997553367112E-5
0.0065                    -0.0315                  7.402580760021906E-6
0.0065                    -0.0305                  1.2195131625408932E-5
0.0065                    -0.0295                  1.0439474369612048E-5
0.0065                    -0.0285                  1.1297812257270616E-5
0.0065                    -0.0275                  1.2243341072977635E-5
0.0065                    -0.0265                  1.3946938152112348E-5
0.0065                    -0.0255                  1.6917599690791645E-5
0.0065                    -0.0245                  2.227959417816526E-5
0.0065                    -0.0235                  3.2121292349310795E-5
0.0065                    -0.0225                  5.0415697326130024E-5
0.0065                    -0.0215                  8.654844473141619E-5
0.0065                    -0.0205                  1.7590040752550167E-4
0.0065                    -0.0195                  4.42699106253391E-4
0.0065                    -0.0185                  0.0010790265552954432
0.0065                    -0.0175                  0.0023501478750896014
0.0065                    -0.0165                  0.004435937427125267
0.0065                    -0.0155                  0.007258572101537133
0.0065                    -0.0145                  0.01035591264025324
0.0065                    -0.0135                  0.012931052001056863
0.0065                    -0.0125                  0.014356684392780109
0.0065                    -0.0115                  0.014643777498683513
0.0065                    -0.0105                  0.014210743757981195
0.0065                    -0.0095                  0.01370046252182697
0.0065                    -0.0085                  0.014675745412247157
0.0065                    -0.0075                  0.018172442055200497
0.0065                    -0.0065                  0.022433596103523346
0.0065                    -0.0055                  0.025377836162191428