% Model:              Benchmark260518.mph
% Version:            COMSOL 6.2.0.339
% Date:               May 19 2026, 15:16
% Dimension:          2
% Nodes:              4096
% Expressions:        1
% Description:        速度大小
% Length unit:        m
% x                       y                        spf.U (m/s)
5.0E-4                    -0.0315                  2.4843216427531885E-6
5.0E-4                    -0.0305                  4.773370570457969E-6
5.0E-4                    -0.0295                  5.0515696788067036E-6
5.0E-4                    -0.0285                  5.519493283216999E-6
5.0E-4                    -0.0275                  5.7079770326402095E-6
5.0E-4                    -0.0265                  5.861162377334856E-6
5.0E-4                    -0.0255                  5.966866525955372E-6
5.0E-4                    -0.0245                  6.039060655261088E-6
5.0E-4                    -0.0235                  6.10091308359397E-6
5.0E-4                    -0.0225                  6.157579658173957E-6
5.0E-4                    -0.0215                  6.217247515990113E-6
5.0E-4                    -0.0205                  6.291167458552354E-6
5.0E-4                    -0.0195                  6.378870820699059E-6
5.0E-4                    -0.0185                  6.479450704824332E-6
5.0E-4                    -0.0175                  6.603541220896809E-6
5.0E-4                    -0.0165                  6.7538129415582505E-6
5.0E-4                    -0.0155                  6.923660886955219E-6
5.0E-4                    -0.0145                  7.11826420731766E-6
5.0E-4                    -0.0135                  7.323095934545929E-6
5.0E-4                    -0.0125                  7.503445411073989E-6
5.0E-4                    -0.0115                  7.685178963334998E-6
5.0E-4                    -0.0105                  7.820942743102848E-6
5.0E-4                    -0.0095                  7.956937109122473E-6
5.0E-4                    -0.0085                  8.100719371683636E-6
5.0E-4                    -0.0075                  8.27540118448333E-6
5.0E-4                    -0.0065                  8.58497093235749E-6
5.0E-4                    -0.0055                  9.147351320097053E-6
5.0E-4                    -0.0045                  1.0372717245902826E-5
5.0E-4                    -0.0035                  1.2903528782214414E-5
5.0E-4                    -0.0025                  1.9682792255686333E-5
5.0E-4                    -0.0015                  4.171186946483702E-5
5.0E-4                    -5.0E-4                  1.0771320963819765E-4
5.0E-4                    5.0E-4                   1.8865329002979543E-4
5.0E-4                    0.0015                   2.1087722619879515E-4
5.0E-4                    0.0025                   3.9100337502222043E-4
5.0E-4                    0.0035                   0.002215540614340788
5.0E-4                    0.0045                   0.01629343880022467
5.0E-4                    0.0055                   0.029032567118547768
5.0E-4                    0.0065                   0.029538729440014178
5.0E-4                    0.0075                   0.02534382056726144
5.0E-4                    0.0085                   0.018176326082459258
5.0E-4                    0.0095                   0.010528728659625666
5.0E-4                    0.0105                   0.004311267318225097
5.0E-4                    0.0115                   0.0010576096773142218
5.0E-4                    0.0125                   1.1945673360332996E-4
5.0E-4                    0.0135                   3.416926478746456E-5
5.0E-4                    0.0145                   1.3503833061781034E-5
5.0E-4                    0.0155                   7.20239893402495E-6
5.0E-4                    0.0165                   5.724913463119702E-6
5.0E-4                    0.0175                   5.352039491128177E-6
5.0E-4                    0.0185                   5.172712299898925E-6
5.0E-4                    0.0195                   5.071504687108659E-6
5.0E-4                    0.0205                   5.0171319366585245E-6
5.0E-4                    0.0215                   4.987900598972045E-6
5.0E-4                    0.0225                   4.918339258698384E-6
5.0E-4                    0.0235                   4.884338541601856E-6
5.0E-4                    0.0245                   4.847307709596993E-6
5.0E-4                    0.0255                   4.793477655712435E-6
5.0E-4                    0.0265                   4.728549320176596E-6
5.0E-4                    0.0275                   4.633135608765278E-6
5.0E-4                    0.0285                   4.493898799761938E-6
5.0E-4                    0.0295                   4.138586749331097E-6
5.0E-4                    0.0305                   3.9909654435121946E-6
5.0E-4                    0.0315                   2.1032905387993776E-6
0.0015                    -0.0315                  4.753642738145169E-6
0.0015                    -0.0305                  8.8416373433098E-6
0.0015                    -0.0295                  8.726895867144371E-6
0.0015                    -0.0285                  9.074000780294532E-6
0.0015                    -0.0275                  9.113723298901588E-6
0.0015                    -0.0265                  9.171364687281864E-6
0.0015                    -0.0255                  9.207524265391735E-6
0.0015                    -0.0245                  9.233104413379613E-6
0.0015                    -0.0235                  9.264258325919795E-6
0.0015                    -0.0225                  9.305088040370104E-6
0.0015                    -0.0215                  9.3628554598462E-6
0.0015                    -0.0205                  9.44892014740068E-6
0.0015                    -0.0195                  9.564312878843793E-6
0.0015                    -0.0185                  9.7105471356003E-6
0.0015                    -0.0175                  9.900183086060329E-6
0.0015                    -0.0165                  1.0137127618340505E-5
0.0015                    -0.0155                  1.0414308324884872E-5
0.0015                    -0.0145                  1.0730805814084175E-5
0.0015                    -0.0135                  1.1061221728080645E-5
0.0015                    -0.0125                  1.1359704887622673E-5
0.0015                    -0.0115                  1.1632455597265617E-5
0.0015                    -0.0105                  1.1828161874140554E-5
0.0015                    -0.0095                  1.1988481419284257E-5
0.0015                    -0.0085                  1.2138136259511793E-5
0.0015                    -0.0075                  1.2335003964487245E-5
0.0015                    -0.0065                  1.2740997458054466E-5
0.0015                    -0.0055                  1.3603239867154522E-5
0.0015                    -0.0045                  1.5595404038190528E-5
0.0015                    -0.0035                  2.0131326055106628E-5
0.0015                    -0.0025                  3.217764931934302E-5
0.0015                    -0.0015                  6.776470641881385E-5
0.0015                    -5.0E-4                  1.6542611781738677E-4
0.0015                    5.0E-4                   2.9274419628124766E-4
0.0015                    0.0015                   4.874998195448488E-4
0.0015                    0.0025                   4.144051689138803E-4
0.0015                    0.0035                   0.0060635890652250965
0.0015                    0.0045                   0.020357674146377062
0.0015                    0.0055                   0.029703907840372655
0.0015                    0.0065                   0.029511512019831553
0.0015                    0.0075                   0.02456921334593453
0.0015                    0.0085                   0.016692703793849236
0.0015                    0.0095                   0.00870628273160955
0.0015                    0.0105                   0.0031439231454551478
0.0015                    0.0115                   8.338317902091711E-4
0.0015                    0.0125                   2.0436494663233584E-4
0.0015                    0.0135                   5.267511199280455E-5
0.0015                    0.0145                   2.178430929425546E-5
0.0015                    0.0155                   1.1697356706916839E-5
0.0015                    0.0165                   8.885509085054018E-6
0.0015                    0.0175                   8.0959043416344E-6
0.0015                    0.0185                   7.782376162582746E-6
0.0015                    0.0195                   7.6229567045052765E-6
0.0015                    0.0205                   7.539128644380515E-6
0.0015                    0.0215                   7.493145984994267E-6
0.0015                    0.0225                   7.4234604397192905E-6
0.0015                    0.0235                   7.399078096123148E-6
0.0015                    0.0245                   7.388366831556269E-6
0.0015                    0.0255                   7.377163921956244E-6
0.0015                    0.0265                   7.374948781800374E-6
0.0015                    0.0275                   7.364855842060101E-6
0.0015                    0.0285                   7.35879463934981E-6
0.0015                    0.0295                   7.124644798590305E-6
0.0015                    0.0305                   7.349527422821686E-6
0.0015                    0.0315                   3.994159753757433E-6
0.0025                    -0.0315                  5.066884058696751E-6
0.0025                    -0.0305                  8.756119403908289E-6
0.0025                    -0.0295                  7.639127357819631E-6
0.0025                    -0.0285                  7.5109615149728475E-6
0.0025                    -0.0275                  7.237232796028977E-6
0.0025                    -0.0265                  7.0436969915994645E-6
0.0025                    -0.0255                  6.880033921836105E-6
0.0025                    -0.0245                  6.7581179885377534E-6
0.0025                    -0.0235                  6.669991061852785E-6
0.0025                    -0.0225                  6.615518845510946E-6
0.0025                    -0.0215                  6.5940266175797265E-6
0.0025                    -0.0205                  6.6069079281093615E-6
0.0025                    -0.0195                  6.657592856560818E-6
0.0025                    -0.0185                  6.750948981272352E-6
0.0025                    -0.0175                  6.891527225748879E-6
0.0025                    -0.0165                  7.0816462346682665E-6
0.0025                    -0.0155                  7.31839815284974E-6
0.0025                    -0.0145                  7.589083676542661E-6
0.0025                    -0.0135                  7.870770740939057E-6
0.0025                    -0.0125                  8.133638439314843E-6
0.0025                    -0.0115                  8.339195780206021E-6
0.0025                    -0.0105                  8.463281511898914E-6
0.0025                    -0.0095                  8.494870925727223E-6
0.0025                    -0.0085                  8.463375612329809E-6
0.0025                    -0.0075                  8.447786041339701E-6
0.0025                    -0.0065                  8.594883255544158E-6
0.0025                    -0.0055                  9.196661511586851E-6
0.0025                    -0.0045                  1.0861116003190513E-5
0.0025                    -0.0035                  1.5118460849903918E-5
0.0025                    -0.0025                  2.5620898169088354E-5
0.0025                    -0.0015                  5.0852951702540275E-5
0.0025                    -5.0E-4                  1.0633670869244577E-4
0.0025                    5.0E-4                   1.9266599024510503E-4
0.0025                    0.0015                   5.259342613821304E-4
0.0025                    0.0025                   0.001233218101700545
0.0025                    0.0035                   0.009407714962177757
0.0025                    0.0045                   0.0227660095524599
0.0025                    0.0055                   0.03004239215783348
0.0025                    0.0065                   0.029021853387578907
0.0025                    0.0075                   0.02323965400178684
0.0025                    0.0085                   0.014689453876961252
0.0025                    0.0095                   0.006876008197698014
0.0025                    0.0105                   0.0023112352371996796
0.0025                    0.0115                   6.757001109511117E-4
0.0025                    0.0125                   1.7674799806330807E-4
0.0025                    0.0135                   4.4952771043625736E-5
0.0025                    0.0145                   1.7738138255551286E-5
0.0025                    0.0155                   9.49739054520508E-6
0.0025                    0.0165                   6.696999368359181E-6
0.0025                    0.0175                   5.767665700502305E-6
0.0025                    0.0185                   5.452826769406737E-6
0.0025                    0.0195                   5.32243179907106E-6
0.0025                    0.0205                   5.261939934961812E-6
0.0025                    0.0215                   5.23840453450806E-6
0.0025                    0.0225                   5.250241214832772E-6
0.0025                    0.0235                   5.292196105709587E-6
0.0025                    0.0245                   5.368754702685236E-6
0.0025                    0.0255                   5.478094710681687E-6
0.0025                    0.0265                   5.624307768579132E-6
0.0025                    0.0275                   5.797536354253935E-6
0.0025                    0.0285                   6.045529331820032E-6
0.0025                    0.0295                   6.1995034443050105E-6
0.0025                    0.0305                   7.224921158830574E-6
0.0025                    0.0315                   4.217065149121653E-6
0.0035                    -0.0315                  5.66167101346052E-6
0.0035                    -0.0305                  9.25336949275103E-6
0.0035                    -0.0295                  7.55175597319549E-6
0.0035                    -0.0285                  7.524088945307174E-6
0.0035                    -0.0275                  7.329068180578606E-6
0.0035                    -0.0265                  7.179157825778939E-6
0.0035                    -0.0255                  7.015214216727059E-6
0.0035                    -0.0245                  6.8734722165505404E-6
0.0035                    -0.0235                  6.757046013657947E-6
0.0035                    -0.0225                  6.670494027519703E-6
0.0035                    -0.0215                  6.615696876449131E-6
0.0035                    -0.0205                  6.595835376480781E-6
0.0035                    -0.0195                  6.6158513360821445E-6
0.0035                    -0.0185                  6.682539176143642E-6
0.0035                    -0.0175                  6.8034375284408185E-6
0.0035                    -0.0165                  6.984476402514804E-6
0.0035                    -0.0155                  7.2268935747939706E-6
0.0035                    -0.0145                  7.524418031096786E-6
0.0035                    -0.0135                  7.860626355009162E-6
0.0035                    -0.0125                  8.20699799303213E-6
0.0035                    -0.0115                  8.525310598863275E-6
0.0035                    -0.0105                  8.772264345868271E-6
0.0035                    -0.0095                  8.917353095217135E-6
0.0035                    -0.0085                  8.966887860942221E-6
0.0035                    -0.0075                  8.996958404812618E-6
0.0035                    -0.0065                  9.194471115482682E-6
0.0035                    -0.0055                  9.929452446120238E-6
0.0035                    -0.0045                  1.1958990658039578E-5
0.0035                    -0.0035                  1.682887210309292E-5
0.0035                    -0.0025                  2.7467546096995894E-5
0.0035                    -0.0015                  5.035521465797699E-5
0.0035                    -5.0E-4                  9.95603307751252E-5
0.0035                    5.0E-4                   1.8593615596034193E-4
0.0035                    0.0015                   4.619305239322461E-4
0.0035                    0.0025                   0.0029484944446125745
0.0035                    0.0035                   0.012638445291769409
0.0035                    0.0045                   0.024706468057291313
0.0035                    0.0055                   0.03010227401034307
0.0035                    0.0065                   0.0281073277267862
0.0035                    0.0075                   0.021415119222887163
0.0035                    0.0085                   0.012467180336345982
0.0035                    0.0095                   0.005263949095460724
0.0035                    0.0105                   0.0016695906003291057
0.0035                    0.0115                   5.017428447952988E-4
0.0035                    0.0125                   1.4484907601191528E-4
0.0035                    0.0135                   4.363076422058327E-5
0.0035                    0.0145                   1.7847697347457953E-5
0.0035                    0.0155                   9.749888336688395E-6
0.0035                    0.0165                   6.94319444348499E-6
0.0035                    0.0175                   5.922475645354396E-6
0.0035                    0.0185                   5.533769880945084E-6
0.0035                    0.0195                   5.365203769214498E-6
0.0035                    0.0205                   5.290043807082845E-6
0.0035                    0.0215                   5.272289126032687E-6
0.0035                    0.0225                   5.2994975707202636E-6
0.0035                    0.0235                   5.365838947993984E-6
0.0035                    0.0245                   5.464748852526022E-6
0.0035                    0.0255                   5.588439181044308E-6
0.0035                    0.0265                   5.731726305463121E-6
0.0035                    0.0275                   5.866000586816304E-6
0.0035                    0.0285                   6.048329807152261E-6
0.0035                    0.0295                   6.122032417660552E-6
0.0035                    0.0305                   7.645640628285618E-6
0.0035                    0.0315                   4.719704317304175E-6
0.0045                    -0.0315                  5.9894377526661376E-6
0.0045                    -0.0305                  9.456689937990034E-6
0.0045                    -0.0295                  7.310498131630498E-6
0.0045                    -0.0285                  7.341739357032761E-6
0.0045                    -0.0275                  7.288241697578991E-6
0.0045                    -0.0265                  7.2604434436203594E-6
0.0045                    -0.0255                  7.162534168912518E-6
0.0045                    -0.0245                  7.0455516375767165E-6
0.0045                    -0.0235                  6.9288969346231214E-6
0.0045                    -0.0225                  6.8279952230181195E-6
0.0045                    -0.0215                  6.750556365115963E-6
0.0045                    -0.0205                  6.703123631339264E-6
0.0045                    -0.0195                  6.693070787404903E-6
0.0045                    -0.0185                  6.729778168218531E-6
0.0045                    -0.0175                  6.824066858323496E-6
0.0045                    -0.0165                  6.986506932043475E-6
0.0045                    -0.0155                  7.2248884366697E-6
0.0045                    -0.0145                  7.5414031561453936E-6
0.0045                    -0.0135                  7.929934836870361E-6
0.0045                    -0.0125                  8.373040619241155E-6
0.0045                    -0.0115                  8.838552038034086E-6
0.0045                    -0.0105                  9.280133777301334E-6
0.0045                    -0.0095                  9.648166728624562E-6
0.0045                    -0.0085                  9.923480289022639E-6
0.0045                    -0.0075                  1.0177372106758474E-5
0.0045                    -0.0065                  1.0654943736540126E-5
0.0045                    -0.0055                  1.1899801186738913E-5
0.0045                    -0.0045                  1.49557190609742E-5
0.0045                    -0.0035                  2.1724326323033808E-5
0.0045                    -0.0025                  3.534632592459883E-5
0.0045                    -0.0015                  6.241929055846023E-5
0.0045                    -5.0E-4                  1.2860886252238725E-4
0.0045                    5.0E-4                   2.6870346475818665E-4
0.0045                    0.0015                   8.390154788118952E-4
0.0045                    0.0025                   0.005105357310124874
0.0045                    0.0035                   0.015612529307470006
0.0045                    0.0045                   0.026110581798790614
0.0045                    0.0055                   0.02980433564914523
0.0045                    0.0065                   0.02680866763777289
0.0045                    0.0075                   0.019258939511222102
0.0045                    0.0085                   0.010274966153288854
0.0045                    0.0095                   0.0039307897233593105
0.0045                    0.0105                   0.0011892683013280537
0.0045                    0.0115                   3.464200504654691E-4
0.0045                    0.0125                   1.0432941287499993E-4
0.0045                    0.0135                   3.8293111608244904E-5
0.0045                    0.0145                   1.72175119544602E-5
0.0045                    0.0155                   9.909301102231147E-6
0.0045                    0.0165                   7.1892095723264585E-6
0.0045                    0.0175                   6.13997338312796E-6
0.0045                    0.0185                   5.699747505374179E-6
0.0045                    0.0195                   5.499009978118499E-6
0.0045                    0.0205                   5.414983932697915E-6
0.0045                    0.0215                   5.404723016750031E-6
0.0045                    0.0225                   5.447244145890226E-6
0.0045                    0.0235                   5.526183133274882E-6
0.0045                    0.0245                   5.6263640057547E-6
0.0045                    0.0255                   5.728618928873232E-6
0.0045                    0.0265                   5.814320343446222E-6
0.0045                    0.0275                   5.844398740386984E-6
0.0045                    0.0285                   5.9077020390065625E-6
0.0045                    0.0295                   5.930028903955594E-6
0.0045                    0.0305                   7.8319993621416E-6
0.0045                    0.0315                   5.005989342137696E-6
0.0055                    -0.0315                  6.272923369329518E-6
0.0055                    -0.0305                  9.663362292686855E-6
0.0055                    -0.0295                  7.1323091867879485E-6
0.0055                    -0.0285                  7.177768314255634E-6
0.0055                    -0.0275                  7.2323555176665445E-6
0.0055                    -0.0265                  7.346867431403223E-6
0.0055                    -0.0255                  7.360569578054506E-6
0.0055                    -0.0245                  7.313077448801365E-6
0.0055                    -0.0235                  7.23146799956618E-6
0.0055                    -0.0225                  7.141934433716935E-6
0.0055                    -0.0215                  7.059524937836998E-6
0.0055                    -0.0205                  6.995170352406292E-6
0.0055                    -0.0195                  6.959002960402613E-6
0.0055                    -0.0185                  6.963004851368733E-6
0.0055                    -0.0175                  7.021734947231138E-6
0.0055                    -0.0165                  7.15151412372191E-6
0.0055                    -0.0155                  7.368480618274009E-6
0.0055                    -0.0145                  7.686222608133033E-6
0.0055                    -0.0135                  8.113382186220532E-6
0.0055                    -0.0125                  8.650735131437776E-6
0.0055                    -0.0115                  9.286467008112099E-6
0.0055                    -0.0105                  9.990868895514129E-6
0.0055                    -0.0095                  1.0720205516528204E-5
0.0055                    -0.0085                  1.1451151285407085E-5
0.0055                    -0.0075                  1.2279081962692913E-5
0.0055                    -0.0065                  1.3594373710819615E-5
0.0055                    -0.0055                  1.6309785937528636E-5
0.0055                    -0.0045                  2.2237738319086252E-5
0.0055                    -0.0035                  3.449148764645294E-5
0.0055                    -0.0025                  5.997720481399434E-5
0.0055                    -0.0015                  1.1537565229668941E-4
0.0055                    -5.0E-4                  2.4218178746850016E-4
0.0055                    5.0E-4                   5.181235141601002E-4
0.0055                    0.0015                   0.0018494599521381421
0.0055                    0.0025                   0.007631177168212565
0.0055                    0.0035                   0.018267914515970277
0.0055                    0.0045                   0.026924650280431898
0.0055                    0.0055                   0.02906794733816211
0.0055                    0.0065                   0.025174615362214162
0.0055                    0.0075                   0.016984217987995577
0.0055                    0.0085                   0.008333818114154646
0.0055                    0.0095                   0.002927143895452393
0.0055                    0.0105                   8.767114490440228E-4
0.0055                    0.0115                   2.563634235026511E-4
0.0055                    0.0125                   7.88163508981106E-5
0.0055                    0.0135                   3.35435410703336E-5
0.0055                    0.0145                   1.6763052521171967E-5
0.0055                    0.0155                   1.0232364808626309E-5
0.0055                    0.0165                   7.592885492479471E-6
0.0055                    0.0175                   6.497080496445129E-6
0.0055                    0.0185                   6.005759510147496E-6
0.0055                    0.0195                   5.78108432129446E-6
0.0055                    0.0205                   5.696218913706288E-6
0.0055                    0.0215                   5.695397144148517E-6
0.0055                    0.0225                   5.744829941938556E-6
0.0055                    0.0235                   5.817733943750918E-6
0.0055                    0.0245                   5.888961957058962E-6
0.0055                    0.0255                   5.9297283782084425E-6
0.0055                    0.0265                   5.91645906838989E-6
0.0055                    0.0275                   5.8212516983985125E-6
0.0055                    0.0285                   5.787129615691258E-6
0.0055                    0.0295                   5.787772037964238E-6
0.0055                    0.0305                   7.995740843456101E-6
0.0055                    0.0315                   5.232285377142711E-6
0.0065                    -0.0315                  6.504950480775237E-6
0.0065                    -0.0305                  9.83963664952393E-6
0.0065                    -0.0295                  6.970951735817564E-6
0.0065                    -0.0285                  6.984648089144881E-6
0.0065                    -0.0275                  7.085748211870585E-6
0.0065                    -0.0265                  7.305204195525992E-6
0.0065                    -0.0255                  7.430112539246516E-6
0.0065                    -0.0245                  7.472455637818025E-6
0.0065                    -0.0235                  7.451251326370211E-6
0.0065                    -0.0225                  7.39619761771791E-6
0.0065                    -0.0215                  7.3275548920750465E-6
0.0065                    -0.0205                  7.259918385234488E-6
0.0065                    -0.0195                  7.20550223506784E-6
0.0065                    -0.0185                  7.177991640460234E-6
0.0065                    -0.0175                  7.1947766819453105E-6
0.0065                    -0.0165                  7.277550529097752E-6
0.0065                    -0.0155                  7.451334743369075E-6
0.0065                    -0.0145                  7.742692431733143E-6
0.0065                    -0.0135                  8.178044267272773E-6
0.0065                    -0.0125                  8.782506112631747E-6
0.0065                    -0.0115                  9.578259263452433E-6
0.0065                    -0.0105                  1.058078326832858E-5
0.0065                    -0.0095                  1.1800842088546335E-5
0.0065                    -0.0085                  1.3283730366645618E-5
0.0065                    -0.0075                  1.5258574579869288E-5
0.0065                    -0.0065                  1.8506704672631504E-5
0.0065                    -0.0055                  2.4935242436018324E-5