% Model:              Benchmark260518.mph
% Version:            COMSOL 6.2.0.339
% Date:               May 20 2026, 04:49
% Dimension:          2
% Nodes:              4096
% Expressions:        1
% Description:        速度大小
% Length unit:        m
% x                       y                        spf.U (m/s)
5.0E-4                    -0.0315                  1.1015963113495834E-6
5.0E-4                    -0.0305                  2.213832121044142E-6
5.0E-4                    -0.0295                  2.4448215695783296E-6
5.0E-4                    -0.0285                  2.7210380988241247E-6
5.0E-4                    -0.0275                  2.898770667041749E-6
5.0E-4                    -0.0265                  3.031376130614315E-6
5.0E-4                    -0.0255                  3.1435941742876106E-6
5.0E-4                    -0.0245                  3.2410953828789696E-6
5.0E-4                    -0.0235                  3.327710393493274E-6
5.0E-4                    -0.0225                  3.4046884981966944E-6
5.0E-4                    -0.0215                  3.47725969477231E-6
5.0E-4                    -0.0205                  3.5459197745177495E-6
5.0E-4                    -0.0195                  3.608410572157424E-6
5.0E-4                    -0.0185                  3.6729238613347666E-6
5.0E-4                    -0.0175                  3.732328455493751E-6
5.0E-4                    -0.0165                  3.7897294794946764E-6
5.0E-4                    -0.0155                  3.850100696417184E-6
5.0E-4                    -0.0145                  3.914005575243436E-6
5.0E-4                    -0.0135                  3.977132779114097E-6
5.0E-4                    -0.0125                  4.040177371929117E-6
5.0E-4                    -0.0115                  4.102708724141462E-6
5.0E-4                    -0.0105                  4.156697301433946E-6
5.0E-4                    -0.0095                  4.205077203455893E-6
5.0E-4                    -0.0085                  4.241114045398269E-6
5.0E-4                    -0.0075                  4.265875732194203E-6
5.0E-4                    -0.0065                  4.280054415896651E-6
5.0E-4                    -0.0055                  4.284232632810476E-6
5.0E-4                    -0.0045                  4.279946370759618E-6
5.0E-4                    -0.0035                  4.276076099631044E-6
5.0E-4                    -0.0025                  4.276988709802373E-6
5.0E-4                    -0.0015                  4.268366488895966E-6
5.0E-4                    -5.0E-4                  4.270293926828717E-6
5.0E-4                    5.0E-4                   4.284309025923049E-6
5.0E-4                    0.0015                   4.297182628641128E-6
5.0E-4                    0.0025                   4.326915641733746E-6
5.0E-4                    0.0035                   4.3669516625064944E-6
5.0E-4                    0.0045                   4.4006125843171255E-6
5.0E-4                    0.0055                   4.452850506857309E-6
5.0E-4                    0.0065                   4.575705390805494E-6
5.0E-4                    0.0075                   4.748248042445373E-6
5.0E-4                    0.0085                   5.189505562075518E-6
5.0E-4                    0.0095                   6.760376048694443E-6
5.0E-4                    0.0105                   1.0508200614895744E-5
5.0E-4                    0.0115                   1.764318774112122E-5
5.0E-4                    0.0125                   3.0190953504493187E-5
5.0E-4                    0.0135                   5.363997262729057E-5
5.0E-4                    0.0145                   1.1956185923386662E-4
5.0E-4                    0.0155                   3.548504056147871E-4
5.0E-4                    0.0165                   7.422083802716587E-4
5.0E-4                    0.0175                   0.001021136213520424
5.0E-4                    0.0185                   9.660062279288908E-4
5.0E-4                    0.0195                   0.005374505338037398
5.0E-4                    0.0205                   0.023491186396887097
5.0E-4                    0.0215                   0.03509359725749857
5.0E-4                    0.0225                   0.030272219148350196
5.0E-4                    0.0235                   0.02230968295214857
5.0E-4                    0.0245                   0.013571197172592728
5.0E-4                    0.0255                   0.0065111017898465675
5.0E-4                    0.0265                   0.002169982668127038
5.0E-4                    0.0275                   4.8788071879988056E-4
5.0E-4                    0.0285                   6.854572248434157E-5
5.0E-4                    0.0295                   2.1502712557029394E-5
5.0E-4                    0.0305                   8.618722724042628E-6
5.0E-4                    0.0315                   2.9010493006039903E-6
0.0015                    -0.0315                  2.1558249137146356E-6
0.0015                    -0.0305                  4.312453376206547E-6
0.0015                    -0.0295                  4.656228233905184E-6
0.0015                    -0.0285                  4.986404171727491E-6
0.0015                    -0.0275                  5.1247983897581136E-6
0.0015                    -0.0265                  5.2218354406155045E-6
0.0015                    -0.0255                  5.302010373536791E-6
0.0015                    -0.0245                  5.377509190442321E-6
0.0015                    -0.0235                  5.449727434442281E-6
0.0015                    -0.0225                  5.518928710856119E-6
0.0015                    -0.0215                  5.588655511131842E-6
0.0015                    -0.0205                  5.6582232633946205E-6
0.0015                    -0.0195                  5.7250119938632045E-6
0.0015                    -0.0185                  5.795720241570781E-6
0.0015                    -0.0175                  5.863834458657444E-6
0.0015                    -0.0165                  5.93239935487426E-6
0.0015                    -0.0155                  6.007056477896317E-6
0.0015                    -0.0145                  6.08886354400981E-6
0.0015                    -0.0135                  6.173911408471187E-6
0.0015                    -0.0125                  6.262233476168478E-6
0.0015                    -0.0115                  6.351609102652845E-6
0.0015                    -0.0105                  6.432108048165531E-6
0.0015                    -0.0095                  6.5027954199899065E-6
0.0015                    -0.0085                  6.554699819026426E-6
0.0015                    -0.0075                  6.586662549925889E-6
0.0015                    -0.0065                  6.599055187512255E-6
0.0015                    -0.0055                  6.59344172465793E-6
0.0015                    -0.0045                  6.573790597875182E-6
0.0015                    -0.0035                  6.551397677679955E-6
0.0015                    -0.0025                  6.532196023153597E-6
0.0015                    -0.0015                  6.505952058598119E-6
0.0015                    -5.0E-4                  6.494157252835249E-6
0.0015                    5.0E-4                   6.502331430001989E-6
0.0015                    0.0015                   6.523878369598873E-6
0.0015                    0.0025                   6.582199039394443E-6
0.0015                    0.0035                   6.6802397942696395E-6
0.0015                    0.0045                   6.816482811022144E-6
0.0015                    0.0055                   7.046026975015935E-6
0.0015                    0.0065                   7.4927628512210075E-6
0.0015                    0.0075                   8.35356705850741E-6
0.0015                    0.0085                   1.0398290548314924E-5
0.0015                    0.0095                   1.5499664273220497E-5
0.0015                    0.0105                   2.6372665477956E-5
0.0015                    0.0115                   4.69508659267887E-5
0.0015                    0.0125                   8.571308257938541E-5
0.0015                    0.0135                   1.7153987813975477E-4
0.0015                    0.0145                   4.7466743200752563E-4
0.0015                    0.0155                   0.0011676901554126976
0.0015                    0.0165                   0.0018286733144464752
0.0015                    0.0175                   0.0017105760678612259
0.0015                    0.0185                   0.003293000861798707
0.0015                    0.0195                   0.016093774551873528
0.0015                    0.0205                   0.03122911098461674
0.0015                    0.0215                   0.03483719626226444
0.0015                    0.0225                   0.028514267710616815
0.0015                    0.0235                   0.01963705715154312
0.0015                    0.0245                   0.010954354299016894
0.0015                    0.0255                   0.004646234249172428
0.0015                    0.0265                   0.001436387221824818
0.0015                    0.0275                   4.000239063616692E-4
0.0015                    0.0285                   1.2417423923716432E-4
0.0015                    0.0295                   4.129305830385995E-5
0.0015                    0.0305                   1.7588898218398102E-5
0.0015                    0.0315                   6.127197080902641E-6
0.0025                    -0.0315                  2.217132372449822E-6
0.0025                    -0.0305                  4.397765277225146E-6
0.0025                    -0.0295                  4.7192189841223386E-6
0.0025                    -0.0285                  4.968034032946279E-6
0.0025                    -0.0275                  4.930898755097137E-6
0.0025                    -0.0265                  4.853287060569336E-6
0.0025                    -0.0255                  4.76221098693724E-6
0.0025                    -0.0245                  4.684599293123231E-6
0.0025                    -0.0235                  4.6223851650449235E-6
0.0025                    -0.0225                  4.575676090436463E-6
0.0025                    -0.0215                  4.542242430881088E-6
0.0025                    -0.0205                  4.519810143294025E-6
0.0025                    -0.0195                  4.506622305057395E-6
0.0025                    -0.0185                  4.5004549664920786E-6
0.0025                    -0.0175                  4.5011695853943534E-6
0.0025                    -0.0165                  4.508796592037003E-6
0.0025                    -0.0155                  4.5246820567006235E-6
0.0025                    -0.0145                  4.550239825481083E-6
0.0025                    -0.0135                  4.586378833770738E-6
0.0025                    -0.0125                  4.632244208574013E-6
0.0025                    -0.0115                  4.684526688996858E-6
0.0025                    -0.0105                  4.737791177150749E-6
0.0025                    -0.0095                  4.783643914146326E-6
0.0025                    -0.0085                  4.814709965912653E-6
0.0025                    -0.0075                  4.824943488210376E-6
0.0025                    -0.0065                  4.812401985195726E-6
0.0025                    -0.0055                  4.779220341695961E-6
0.0025                    -0.0045                  4.731168773407064E-6
0.0025                    -0.0035                  4.675187870341345E-6
0.0025                    -0.0025                  4.617431439959664E-6
0.0025                    -0.0015                  4.565744083580527E-6
0.0025                    -5.0E-4                  4.526186196410219E-6
0.0025                    5.0E-4                   4.508072853755155E-6
0.0025                    0.0015                   4.525592789065455E-6
0.0025                    0.0025                   4.596399835497537E-6
0.0025                    0.0035                   4.747452844485922E-6
0.0025                    0.0045                   5.022353477536516E-6
0.0025                    0.0055                   5.507580667235803E-6
0.0025                    0.0065                   6.412382927967376E-6
0.0025                    0.0075                   8.345253944313922E-6
0.0025                    0.0085                   1.2960758821315023E-5
0.0025                    0.0095                   2.3730156649039773E-5
0.0025                    0.0105                   4.59025678970495E-5
0.0025                    0.0115                   8.805754054077534E-5
0.0025                    0.0125                   1.6547878528300452E-4
0.0025                    0.0135                   4.124458212211672E-4
0.0025                    0.0145                   0.0011144416114713593
0.0025                    0.0155                   0.0019290306915445937
0.0025                    0.0165                   0.0013744159513859944
0.0025                    0.0175                   0.002704167451822786
0.0025                    0.0185                   0.012567182401946816
0.0025                    0.0195                   0.025804133288182225
0.0025                    0.0205                   0.034164940755300396
0.0025                    0.0215                   0.03294182917197648
0.0025                    0.0225                   0.025233781210726596
0.0025                    0.0235                   0.015952143381804305
0.0025                    0.0245                   0.007975168062134047
0.0025                    0.0255                   0.003034625383830264
0.0025                    0.0265                   9.463214065538254E-4
0.0025                    0.0275                   3.068010933033081E-4
0.0025                    0.0285                   1.0984011496528419E-4
0.0025                    0.0295                   4.1920286704684996E-5
0.0025                    0.0305                   1.8953779527927122E-5
0.0025                    0.0315                   7.2101470880031505E-6
0.0035                    -0.0315                  2.32186358863697E-6
0.0035                    -0.0305                  4.507933370187164E-6
0.0035                    -0.0295                  4.859649299347261E-6
0.0035                    -0.0285                  5.295984338916741E-6
0.0035                    -0.0275                  5.361096801091809E-6
0.0035                    -0.0265                  5.312730793353269E-6
0.0035                    -0.0255                  5.207040006933597E-6
0.0035                    -0.0245                  5.095002382254947E-6
0.0035                    -0.0235                  4.991779256155679E-6
0.0035                    -0.0225                  4.903545203788356E-6
0.0035                    -0.0215                  4.8309197773287155E-6
0.0035                    -0.0205                  4.772598430340709E-6
0.0035                    -0.0195                  4.726391537812729E-6
0.0035                    -0.0185                  4.690392017675895E-6
0.0035                    -0.0175                  4.6632147407114045E-6
0.0035                    -0.0165                  4.6448582449721515E-6
0.0035                    -0.0155                  4.636709955342568E-6
0.0035                    -0.0145                  4.641285221824535E-6
0.0035                    -0.0135                  4.6612543279849195E-6
0.0035                    -0.0125                  4.698215235650355E-6
0.0035                    -0.0115                  4.75102225027346E-6
0.0035                    -0.0105                  4.814256688157835E-6
0.0035                    -0.0095                  4.8783888887377344E-6
0.0035                    -0.0085                  4.931039931410569E-6
0.0035                    -0.0075                  4.960401926364965E-6
0.0035                    -0.0065                  4.958514383658065E-6
0.0035                    -0.0055                  4.923772012914867E-6
0.0035                    -0.0045                  4.86114402947343E-6
0.0035                    -0.0035                  4.780366299092293E-6
0.0035                    -0.0025                  4.693207075050476E-6
0.0035                    -0.0015                  4.611243698038698E-6
0.0035                    -5.0E-4                  4.546812708691564E-6
0.0035                    5.0E-4                   4.513992592846182E-6
0.0035                    0.0015                   4.531668486220397E-6
0.0035                    0.0025                   4.629107139304235E-6
0.0035                    0.0035                   4.852893392385847E-6
0.0035                    0.0045                   5.280444030922274E-6
0.0035                    0.0055                   6.059634326176758E-6
0.0035                    0.0065                   7.544010796278117E-6
0.0035                    0.0075                   1.0684508173979638E-5
0.0035                    0.0085                   1.811282790907089E-5
0.0035                    0.0095                   3.701049387967205E-5
0.0035                    0.0105                   8.137466251598634E-5
0.0035                    0.0115                   1.4800896450896254E-4
0.0035                    0.0125                   2.8778606979539765E-4
0.0035                    0.0135                   8.293249715314466E-4
0.0035                    0.0145                   0.0016093754495705224
0.0035                    0.0155                   0.001047540980603683
0.0035                    0.0165                   0.003681393911919135
0.0035                    0.0175                   0.012365424025813965
0.0035                    0.0185                   0.02344349716790897
0.0035                    0.0195                   0.031982894863067254
0.0035                    0.0205                   0.034162549289536916
0.0035                    0.0215                   0.029369750560369418
0.0035                    0.0225                   0.02053466700723943
0.0035                    0.0235                   0.011666772488224989
0.0035                    0.0245                   0.00516462435305293
0.0035                    0.0255                   0.0018155177096732913
0.0035                    0.0265                   5.877203746730865E-4
0.0035                    0.0275                   2.0146631201304233E-4
0.0035                    0.0285                   8.603912826497502E-5
0.0035                    0.0295                   3.769523752321568E-5
0.0035                    0.0305                   1.8999359932229365E-5
0.0035                    0.0315                   8.050002829475685E-6
0.0045                    -0.0315                  2.42368389341228E-6
0.0045                    -0.0305                  4.553459463158212E-6
0.0045                    -0.0295                  4.7827663310336E-6
0.0045                    -0.0285                  5.321536772848941E-6
0.0045                    -0.0275                  5.5207291412217025E-6
0.0045                    -0.0265                  5.568870231652935E-6
0.0045                    -0.0255                  5.507806342754879E-6
0.0045                    -0.0245                  5.4051083291394176E-6
0.0045                    -0.0235                  5.2909465661312666E-6
0.0045                    -0.0225                  5.1818490821018735E-6
0.0045                    -0.0215                  5.084284556671114E-6
0.0045                    -0.0205                  5.000126476892814E-6
0.0045                    -0.0195                  4.9287411401961E-6
0.0045                    -0.0185                  4.868440335798187E-6
0.0045                    -0.0175                  4.817689802993224E-6
0.0045                    -0.0165                  4.775997430310277E-6
0.0045                    -0.0155                  4.744643891297945E-6
0.0045                    -0.0145                  4.726932894133522E-6
0.0045                    -0.0135                  4.727695880341826E-6
0.0045                    -0.0125                  4.751822783220227E-6
0.0045                    -0.0115                  4.801993958463139E-6
0.0045                    -0.0105                  4.876067073402935E-6
0.0045                    -0.0095                  4.965058292070028E-6
0.0045                    -0.0085                  5.053387775715095E-6
0.0045                    -0.0075                  5.121874598364302E-6
0.0045                    -0.0065                  5.1531324810938574E-6
0.0045                    -0.0055                  5.137198492310499E-6
0.0045                    -0.0045                  5.074965094214558E-6
0.0045                    -0.0035                  4.9778999715302666E-6
0.0045                    -0.0025                  4.864483833890358E-6
0.0045                    -0.0015                  4.755709891003642E-6
0.0045                    -5.0E-4                  4.6722876516239816E-6
0.0045                    5.0E-4                   4.63588585175351E-6
0.0045                    0.0015                   4.674392433539821E-6
0.0045                    0.0025                   4.8301545494808624E-6
0.0045                    0.0035                   5.176209019454273E-6
0.0045                    0.0045                   5.852328189786816E-6
0.0045                    0.0055                   7.126336637312958E-6
0.0045                    0.0065                   9.559703628097222E-6
0.0045                    0.0075                   1.4546607719215497E-5
0.0045                    0.0085                   2.557038529252647E-5
0.0045                    0.0095                   5.423041885645373E-5
0.0045                    0.0105                   1.296526477457202E-4
0.0045                    0.0115                   2.2628551523874233E-4
0.0045                    0.0125                   4.585920473997619E-4
0.0045                    0.0135                   0.0010079120316400776
0.0045                    0.0145                   0.0014411287870268513
0.0045                    0.0155                   0.005636648849554309
0.0045                    0.0165                   0.01379410577762535
0.0045                    0.0175                   0.023276551191237078
0.0045                    0.0185                   0.030750603886621573
0.0045                    0.0195                   0.03372801231390516
0.0045                    0.0205                   0.031262951952720316
0.0045                    0.0215                   0.023951704723593977
0.0045                    0.0225                   0.01489837483778832
0.0045                    0.0235                   0.007450266345006141
0.0045                    0.0245                   0.0029270745836453118
0.0045                    0.0255                   0.0010026433429773187
0.0045                    0.0265                   3.444628360242513E-4
0.0045                    0.0275                   1.2989922064265307E-4
0.0045                    0.0285                   5.828331655009175E-5
0.0045                    0.0295                   2.877136028522091E-5
0.0045                    0.0305                   1.7339858148695992E-5
0.0045                    0.0315                   8.200873029803777E-6
0.0055                    -0.0315                  2.5293299017859297E-6
0.0055                    -0.0305                  4.622203762994893E-6
0.0055                    -0.0295                  4.704043335294018E-6
0.0055                    -0.0285                  5.275520980022224E-6
0.0055                    -0.0275                  5.572762660307794E-6
0.0055                    -0.0265                  5.734036166749868E-6
0.0055                    -0.0255                  5.757602154687405E-6
0.0055                    -0.0245                  5.704622046828838E-6
0.0055                    -0.0235                  5.6127993522747166E-6
0.0055                    -0.0225                  5.50831261791156E-6
0.0055                    -0.0215                  5.405109681654263E-6
0.0055                    -0.0205                  5.31006139709179E-6
0.0055                    -0.0195                  5.225470725183868E-6
0.0055                    -0.0185                  5.151055986656911E-6
0.0055                    -0.0175                  5.085424051357189E-6
0.0055                    -0.0165                  5.027545565698648E-6
0.0055                    -0.0155                  4.978097498851769E-6
0.0055                    -0.0145                  4.940458871515984E-6
0.0055                    -0.0135                  4.920969418676748E-6
0.0055                    -0.0125                  4.9280479156411586E-6
0.0055                    -0.0115                  4.969888177169438E-6
0.0055                    -0.0105                  5.0508117105144975E-6
0.0055                    -0.0095                  5.167109684299602E-6
0.0055                    -0.0085                  5.3041547828695E-6
0.0055                    -0.0075                  5.4372113543534835E-6
0.0055                    -0.0065                  5.53714759195821E-6
0.0055                    -0.0055                  5.579803104973145E-6
0.0055                    -0.0045                  5.555213949605804E-6
0.0055                    -0.0035                  5.472463442946315E-6
0.0055                    -0.0025                  5.357890323051553E-6
0.0055                    -0.0015                  5.247679336729755E-6
0.0055                    -5.0E-4                  5.1800389188697126E-6
0.0055                    5.0E-4                   5.193219178772758E-6
0.0055                    0.0015                   5.3302494539714E-6
0.0055                    0.0025                   5.6592305530002085E-6
0.0055                    0.0035                   6.304457374020325E-6
0.0055                    0.0045                   7.500807489163037E-6
0.0055                    0.0055                   9.784121257165158E-6
0.0055                    0.0065                   1.4258877406992425E-5
0.0055                    0.0075                   2.3202950317786607E-5
0.0055                    0.0085                   4.3236017201399475E-5
0.0055                    0.0095                   9.103222088390286E-5
0.0055                    0.0105                   2.3781777764132528E-4
0.0055                    0.0115                   4.598754238602316E-4
0.0055                    0.0125                   9.322140331202383E-4
0.0055                    0.0135                   0.002734108224263582
0.0055                    0.0145                   0.007818065045726932
0.0055                    0.0155                   0.01580947927598557
0.0055                    0.0165                   0.024197616717884722
0.0055                    0.0175                   0.030492691010571053
0.0055                    0.0185                   0.033144367152092555
0.0055                    0.0195                   0.03153701058644647
0.0055                    0.0205                   0.025651146803748515
0.0055                    0.0215                   0.017133802969464894
0.0055                    0.0225                   0.009260715135686874
0.0055                    0.0235                   0.0040534570107600065
0.0055                    0.0245                   0.0014772248365347638
0.0055                    0.0255                   5.165636293260232E-4
0.0055                    0.0265                   1.885406176359976E-4
0.0055                    0.0275                   8.597574810657734E-5
0.0055                    0.0285                   4.20325012146521E-5
0.0055                    0.0295                   2.1771132542693152E-5
0.0055                    0.0305                   1.5551633945162553E-5
0.0055                    0.0315                   8.117659645751315E-6
0.0065                    -0.0315                  2.6138613908809647E-6
0.0065                    -0.0305                  4.677665496507812E-6
0.0065                    -0.0295                  4.622263325914248E-6
0.0065                    -0.0285                  5.1844933354389E-6
0.0065                    -0.0275                  5.530287377099159E-6
0.0065                    -0.0265                  5.778096761100842E-6
0.0065                    -0.0255                  5.889432226687846E-6
0.0065                    -0.0245                  5.9047710153035285E-6
0.0065                    -0.0235                  5.856825765297908E-6
0.0065                    -0.0225                  5.775786086166639E-6
0.0065                    -0.0215                  5.681739195851584E-6
0.0065                    -0.0205                  5.58709874469786E-6
0.0065                    -0.0195                  5.49826001218778E-6
0.0065                    -0.0185                  5.417394664357625E-6
0.0065                    -0.0175                  5.343986656039821E-6
0.0065                    -0.0165                  5.276508290042274E-6
0.0065                    -0.0155                  5.214319192839708E-6
0.0065                    -0.0145                  5.159562418913195E-6
0.0065                    -0.0135                  5.1185575093343505E-6
0.0065                    -0.0125                  5.102069462693949E-6
0.0065                    -0.0115                  5.12388653657092E-6
0.0065                    -0.0105                  5.197287610725175E-6
0.0065                    -0.0095                  5.3293418055183485E-6
0.0065                    -0.0085                  5.51427294324137E-6
0.0065                    -0.0075                  5.729110278118478E-6
0.0065                    -0.0065                  5.935875062948059E-6
0.0065                    -0.0055                  6.092508938277732E-6