% Model:              Benchmark260518.mph
% Version:            COMSOL 6.2.0.339
% Date:               May 21 2026, 11:41
% Dimension:          2
% Nodes:              4096
% Expressions:        1
% Description:        速度大小
% Length unit:        m
% x                       y                        spf.U (m/s)
5.0E-4                    -0.0315                  1.8458183609618814E-6
5.0E-4                    -0.0305                  3.7088921121011077E-6
5.0E-4                    -0.0295                  4.192041833407496E-6
5.0E-4                    -0.0285                  4.822926062021285E-6
5.0E-4                    -0.0275                  5.3911052202378585E-6
5.0E-4                    -0.0265                  6.149443259982979E-6
5.0E-4                    -0.0255                  7.175688386771845E-6
5.0E-4                    -0.0245                  8.674790296499666E-6
5.0E-4                    -0.0235                  1.1019535300203563E-5
5.0E-4                    -0.0225                  1.5573561082149246E-5
5.0E-4                    -0.0215                  2.877405975470182E-5
5.0E-4                    -0.0205                  7.157947742394604E-5
5.0E-4                    -0.0195                  2.2965769105542737E-4
5.0E-4                    -0.0185                  5.925889771081872E-4
5.0E-4                    -0.0175                  0.001285942070405602
5.0E-4                    -0.0165                  0.0023103940205687354
5.0E-4                    -0.0155                  0.0033372815952759614
5.0E-4                    -0.0145                  0.004083636434345789
5.0E-4                    -0.0135                  0.004513853622789911
5.0E-4                    -0.0125                  0.0047109061245712335
5.0E-4                    -0.0115                  0.004760307028684217
5.0E-4                    -0.0105                  0.004708524864744172
5.0E-4                    -0.0095                  0.004560859656839081
5.0E-4                    -0.0085                  0.004272448966080061
5.0E-4                    -0.0075                  0.003730284917423125
5.0E-4                    -0.0065                  0.0028383152460803086
5.0E-4                    -0.0055                  0.0017655956885378578
5.0E-4                    -0.0045                  0.001008082884489772
5.0E-4                    -0.0035                  0.0012246439723083728
5.0E-4                    -0.0025                  0.0013878428000569213
5.0E-4                    -0.0015                  0.0010695275961678137
5.0E-4                    -5.0E-4                  0.003641118115337449
5.0E-4                    5.0E-4                   0.017360577261713434
5.0E-4                    0.0015                   0.027210296434066226
5.0E-4                    0.0025                   0.025199819171599826
5.0E-4                    0.0035                   0.020409995207641425
5.0E-4                    0.0045                   0.014090702014717538
5.0E-4                    0.0055                   0.007984863251340788
5.0E-4                    0.0065                   0.003197052404766799
5.0E-4                    0.0075                   7.896618868763274E-4
5.0E-4                    0.0085                   1.719850135903228E-4
5.0E-4                    0.0095                   5.654903325748429E-5
5.0E-4                    0.0105                   6.28179316493699E-5
5.0E-4                    0.0115                   2.7804766689247854E-4
5.0E-4                    0.0125                   0.0011316361533712672
5.0E-4                    0.0135                   0.0031500246071908067
5.0E-4                    0.0145                   0.007133160941714946
5.0E-4                    0.0155                   0.007150743391854525
5.0E-4                    0.0165                   0.003637483162657186
5.0E-4                    0.0175                   0.0019855645547156558
5.0E-4                    0.0185                   9.536175385483117E-4
5.0E-4                    0.0195                   4.7004266869670223E-4
5.0E-4                    0.0205                   1.98347477439721E-4
5.0E-4                    0.0215                   6.42060917481434E-5
5.0E-4                    0.0225                   2.6396484009853988E-5
5.0E-4                    0.0235                   1.51512167261649E-5
5.0E-4                    0.0245                   1.153011557688379E-5
5.0E-4                    0.0255                   9.603831382324456E-6
5.0E-4                    0.0265                   8.403303112551816E-6
5.0E-4                    0.0275                   7.530378265469678E-6
5.0E-4                    0.0285                   6.884497363038483E-6
5.0E-4                    0.0295                   6.0990222162512466E-6
5.0E-4                    0.0305                   5.54081632789709E-6
5.0E-4                    0.0315                   2.8096507127543962E-6
0.0015                    -0.0315                  3.58658189448275E-6
0.0015                    -0.0305                  7.063109866788382E-6
0.0015                    -0.0295                  7.606683148625583E-6
0.0015                    -0.0285                  8.444107001356647E-6
0.0015                    -0.0275                  9.273323693304143E-6
0.0015                    -0.0265                  1.0573613401120508E-5
0.0015                    -0.0255                  1.2561423803387297E-5
0.0015                    -0.0245                  1.5736430577473832E-5
0.0015                    -0.0235                  2.122929527739857E-5
0.0015                    -0.0225                  3.274467877829509E-5
0.0015                    -0.0215                  6.316612548964144E-5
0.0015                    -0.0205                  1.5616819332599317E-4
0.0015                    -0.0195                  4.925330502610108E-4
0.0015                    -0.0185                  0.00135639248090759
0.0015                    -0.0175                  0.003003040926031088
0.0015                    -0.0165                  0.004911873173250526
0.0015                    -0.0155                  0.0062907344805102315
0.0015                    -0.0145                  0.007013592437013471
0.0015                    -0.0135                  0.007301273922593966
0.0015                    -0.0125                  0.007372941716062273
0.0015                    -0.0115                  0.0073473317591336105
0.0015                    -0.0105                  0.007262068408792819
0.0015                    -0.0095                  0.007097460010504707
0.0015                    -0.0085                  0.006785082793167117
0.0015                    -0.0075                  0.006202657864314849
0.0015                    -0.0065                  0.005320966270215306
0.0015                    -0.0055                  0.004465915409633658
0.0015                    -0.0045                  0.003268890317729099
0.0015                    -0.0035                  0.0023253821605212803
0.0015                    -0.0025                  0.002320609170660429
0.0015                    -0.0015                  0.002402210669091949
0.0015                    -5.0E-4                  0.010816664776022404
0.0015                    5.0E-4                   0.023194314427356512
0.0015                    0.0015                   0.027766558744232915
0.0015                    0.0025                   0.02462713837430141
0.0015                    0.0035                   0.018887694866194394
0.0015                    0.0045                   0.012035386195381826
0.0015                    0.0055                   0.0059551047232103554
0.0015                    0.0065                   0.002120183401151357
0.0015                    0.0075                   6.056619184364006E-4
0.0015                    0.0085                   1.5315715947411182E-4
0.0015                    0.0095                   4.389041045614539E-5
0.0015                    0.0105                   4.960557067839961E-5
0.0015                    0.0115                   1.4877565339238487E-4
0.0015                    0.0125                   4.5045464695607664E-4
0.0015                    0.0135                   0.0013719897133226307
0.0015                    0.0145                   0.004300848669551617
0.0015                    0.0155                   0.007339915143279202
0.0015                    0.0165                   0.007163714873632991
0.0015                    0.0175                   0.0046890494649957865
0.0015                    0.0185                   0.002307284068374213
0.0015                    0.0195                   9.839842794687524E-4
0.0015                    0.0205                   3.8761562491066516E-4
0.0015                    0.0215                   1.2734172163717704E-4
0.0015                    0.0225                   5.243598072486162E-5
0.0015                    0.0235                   2.8428773921830657E-5
0.0015                    0.0245                   1.9966271814915124E-5
0.0015                    0.0255                   1.597545438826526E-5
0.0015                    0.0265                   1.3768987274892038E-5
0.0015                    0.0275                   1.2420958179721455E-5
0.0015                    0.0285                   1.1634518094855538E-5
0.0015                    0.0295                   1.0772917973076943E-5
0.0015                    0.0305                   1.038924836016852E-5
0.0015                    0.0315                   5.4114261637379306E-6
0.0025                    -0.0315                  3.844883901504541E-6
0.0025                    -0.0305                  7.191851861375805E-6
0.0025                    -0.0295                  7.23678945635488E-6
0.0025                    -0.0285                  7.93061866936797E-6
0.0025                    -0.0275                  8.736927765538623E-6
0.0025                    -0.0265                  1.0286691989484819E-5
0.0025                    -0.0255                  1.3099565525668405E-5
0.0025                    -0.0245                  1.8216572251437845E-5
0.0025                    -0.0235                  2.8164954475663677E-5
0.0025                    -0.0225                  4.9568663931377185E-5
0.0025                    -0.0215                  1.0315851443204254E-4
0.0025                    -0.0205                  2.495660615074909E-4
0.0025                    -0.0195                  7.852793377571046E-4
0.0025                    -0.0185                  0.0022835484630258345
0.0025                    -0.0175                  0.004319426412420168
0.0025                    -0.0165                  0.005289202513821044
0.0025                    -0.0155                  0.004936475649941247
0.0025                    -0.0145                  0.004253745343859026
0.0025                    -0.0135                  0.0037666397631656774
0.0025                    -0.0125                  0.0035039053867134753
0.0025                    -0.0115                  0.003387654331131801
0.0025                    -0.0105                  0.0033574375459021985
0.0025                    -0.0095                  0.003380234906450263
0.0025                    -0.0085                  0.0034810649446931296
0.0025                    -0.0075                  0.0038481979367764266
0.0025                    -0.0065                  0.00490552472052284
0.0025                    -0.0055                  0.006290008379265214
0.0025                    -0.0045                  0.005343972532441387
0.0025                    -0.0035                  0.0020196298051508525
0.0025                    -0.0025                  0.0016253680443459948
0.0025                    -0.0015                  0.007564987680687893
0.0025                    -5.0E-4                  0.017721391866034907
0.0025                    5.0E-4                   0.026103105148936618
0.0025                    0.0015                   0.02726223565809502
0.0025                    0.0025                   0.02296928534619792
0.0025                    0.0035                   0.01638107289691659
0.0025                    0.0045                   0.009371124819955062
0.0025                    0.0055                   0.004054492197559331
0.0025                    0.0065                   0.0013617193453860986
0.0025                    0.0075                   4.3820672103500336E-4
0.0025                    0.0085                   1.3471444216651512E-4
0.0025                    0.0095                   5.036119429132855E-5
0.0025                    0.0105                   4.723549734283977E-5
0.0025                    0.0115                   1.0667169528072527E-4
0.0025                    0.0125                   3.034297344326003E-4
0.0025                    0.0135                   7.8745099593952E-4
0.0025                    0.0145                   0.0021474671600708335
0.0025                    0.0155                   0.004472489003437011
0.0025                    0.0165                   0.006198035338214675
0.0025                    0.0175                   0.0057402753931571245
0.0025                    0.0185                   0.0035464253840967967
0.0025                    0.0195                   0.001499034288404704
0.0025                    0.0205                   5.153195152855099E-4
0.0025                    0.0215                   1.6780763363120882E-4
0.0025                    0.0225                   6.941909540897826E-5
0.0025                    0.0235                   3.509248389381982E-5
0.0025                    0.0245                   2.1286195741869307E-5
0.0025                    0.0255                   1.5119414222643975E-5
0.0025                    0.0265                   1.2140470619584724E-5
0.0025                    0.0275                   1.0730443636323863E-5
0.0025                    0.0285                   1.0211117466207022E-5
0.0025                    0.0295                   9.804463718634438E-6
0.0025                    0.0305                   1.0436746536900852E-5
0.0025                    0.0315                   5.80523371500705E-6
0.0035                    -0.0315                  4.255381697621223E-6
0.0035                    -0.0305                  7.562215834063234E-6
0.0035                    -0.0295                  7.322787813047168E-6
0.0035                    -0.0285                  8.373991378627156E-6
0.0035                    -0.0275                  9.739932393376723E-6
0.0035                    -0.0265                  1.2394449474561867E-5
0.0035                    -0.0255                  1.765284513044423E-5
0.0035                    -0.0245                  2.8105165574277473E-5
0.0035                    -0.0235                  4.8941994177841096E-5
0.0035                    -0.0225                  9.469717550854996E-5
0.0035                    -0.0215                  2.1069118362186478E-4
0.0035                    -0.0205                  5.60128973871873E-4
0.0035                    -0.0195                  0.0017085403874876018
0.0035                    -0.0185                  0.003919991009693533
0.0035                    -0.0175                  0.005433125659434541
0.0035                    -0.0165                  0.004729364387723146
0.0035                    -0.0155                  0.003055365867025115
0.0035                    -0.0145                  0.001864929499378187
0.0035                    -0.0135                  0.0013097397802791534
0.0035                    -0.0125                  0.0011063000068729178
0.0035                    -0.0115                  0.0010567559797977429
0.0035                    -0.0105                  0.0010803400854272312
0.0035                    -0.0095                  0.00117384776885333
0.0035                    -0.0085                  0.001422419490882737
0.0035                    -0.0075                  0.0022217374853750376
0.0035                    -0.0065                  0.004495663987993867
0.0035                    -0.0055                  0.007185192359504167
0.0035                    -0.0045                  0.00617791966315187
0.0035                    -0.0035                  0.002331699963657305
0.0035                    -0.0025                  0.006469966554551635
0.0035                    -0.0015                  0.014666463955121669
0.0035                    -5.0E-4                  0.023028275179843235
0.0035                    5.0E-4                   0.027223595050463734
0.0035                    0.0015                   0.02566454523841002
0.0035                    0.0025                   0.020162521537255933
0.0035                    0.0035                   0.01308342222850222
0.0035                    0.0045                   0.006610521521527721
0.0035                    0.0055                   0.002553707370386208
0.0035                    0.0065                   8.551766726925604E-4
0.0035                    0.0075                   2.9234725248551815E-4
0.0035                    0.0085                   1.0851628519815557E-4
0.0035                    0.0095                   5.152628238578379E-5
0.0035                    0.0105                   4.1923203337706744E-5
0.0035                    0.0115                   6.673831018777368E-5
0.0035                    0.0125                   1.531165259760788E-4
0.0035                    0.0135                   4.0207305484812953E-4
0.0035                    0.0145                   0.001020145266858602
0.0035                    0.0155                   0.0024162222651457578
0.0035                    0.0165                   0.004538023072669682
0.0035                    0.0175                   0.005925478893874845
0.0035                    0.0185                   0.004954936635719448
0.0035                    0.0195                   0.0025271193596307635
0.0035                    0.0205                   8.532488467601108E-4
0.0035                    0.0215                   2.7920388111837716E-4
0.0035                    0.0225                   1.1917878530931153E-4
0.0035                    0.0235                   5.8199369198936834E-5
0.0035                    0.0245                   3.235225194625843E-5
0.0035                    0.0255                   2.000824891298208E-5
0.0035                    0.0265                   1.4237313741375684E-5
0.0035                    0.0275                   1.1630485552199825E-5
0.0035                    0.0285                   1.0567565109021985E-5
0.0035                    0.0295                   9.85598150370899E-6
0.0035                    0.0305                   1.1053103120108072E-5
0.0035                    0.0315                   6.485972421917207E-6
0.0045                    -0.0315                  4.58521705875112E-6
0.0045                    -0.0305                  7.867789219726372E-6
0.0045                    -0.0295                  7.392523329099007E-6
0.0045                    -0.0285                  8.930185382967785E-6
0.0045                    -0.0275                  1.1382466362454938E-5
0.0045                    -0.0265                  1.6304709354394094E-5
0.0045                    -0.0255                  2.6549235381836387E-5
0.0045                    -0.0245                  4.9293492298201943E-5
0.0045                    -0.0235                  9.887963240684514E-5
0.0045                    -0.0225                  2.0629444446318735E-4
0.0045                    -0.0215                  5.068649116442153E-4
0.0045                    -0.0205                  0.001437802280676138
0.0045                    -0.0195                  0.003486481585035173
0.0045                    -0.0185                  0.0054865230816981995
0.0045                    -0.0175                  0.005236029472554193
0.0045                    -0.0165                  0.00322264645073742
0.0045                    -0.0155                  0.0015667073907230642
0.0045                    -0.0145                  7.765461881298025E-4
0.0045                    -0.0135                  4.532802102363452E-4
0.0045                    -0.0125                  3.547235421033358E-4
0.0045                    -0.0115                  3.4835929737054276E-4
0.0045                    -0.0105                  3.872138582834701E-4
0.0045                    -0.0095                  4.805622682693784E-4
0.0045                    -0.0085                  6.954269266751683E-4
0.0045                    -0.0075                  0.0014310379206855098
0.0045                    -0.0065                  0.0040247155902891135
0.0045                    -0.0055                  0.006857426749537311
0.0045                    -0.0045                  0.00566131014449955
0.0045                    -0.0035                  0.006062674341628579
0.0045                    -0.0025                  0.012984926702593727
0.0045                    -0.0015                  0.02054672927495191
0.0045                    -5.0E-4                  0.0256619415998891
0.0045                    5.0E-4                   0.026458179883908577
0.0045                    0.0015                   0.022816495385819754
0.0045                    0.0025                   0.016337361913423422
0.0045                    0.0035                   0.009429586657352015
0.0045                    0.0045                   0.004172908618756184
0.0045                    0.0055                   0.0015268043054240568
0.0045                    0.0065                   5.86959506753419E-4
0.0045                    0.0075                   2.3913759491626542E-4
0.0045                    0.0085                   1.0288778711125622E-4
0.0045                    0.0095                   5.54740213521273E-5
0.0045                    0.0105                   4.157950715368869E-5
0.0045                    0.0115                   5.277502770684663E-5
0.0045                    0.0125                   9.371451727290159E-5
0.0045                    0.0135                   2.0333386692095103E-4
0.0045                    0.0145                   4.952947591202264E-4
0.0045                    0.0155                   0.0012560703842507475
0.0045                    0.0165                   0.002964373432201785
0.0045                    0.0175                   0.005224979015550863
0.0045                    0.0185                   0.005950272607387395
0.0045                    0.0195                   0.004124215791382486
0.0045                    0.0205                   0.0017845296307275511
0.0045                    0.0215                   6.13243737438941E-4
0.0045                    0.0225                   2.483182863990693E-4
0.0045                    0.0235                   1.184846438142659E-4
0.0045                    0.0245                   5.76825295311973E-5
0.0045                    0.0255                   3.0115895016583435E-5
0.0045                    0.0265                   1.8371362087737585E-5
0.0045                    0.0275                   1.318612679317921E-5
0.0045                    0.0285                   1.0985961445774415E-5
0.0045                    0.0295                   9.850148502360315E-6
0.0045                    0.0305                   1.1510936095871282E-5
0.0045                    0.0315                   6.99678700761207E-6
0.0055                    -0.0315                  5.0206250392530694E-6
0.0055                    -0.0305                  8.469236864006778E-6
0.0055                    -0.0295                  7.955781878197367E-6
0.0055                    -0.0285                  1.0325854092028723E-5
0.0055                    -0.0275                  1.470085539143498E-5
0.0055                    -0.0265                  2.3768293850490676E-5
0.0055                    -0.0255                  4.3809561627935734E-5
0.0055                    -0.0245                  9.212041506236972E-5
0.0055                    -0.0235                  2.3033461632268512E-4
0.0055                    -0.0225                  5.29533060558756E-4
0.0055                    -0.0215                  0.0012943870631596088
0.0055                    -0.0205                  0.0031059213016573625
0.0055                    -0.0195                  0.005307963142720707
0.0055                    -0.0185                  0.005607256062444094
0.0055                    -0.0175                  0.003608518217807635
0.0055                    -0.0165                  0.001570463108120254
0.0055                    -0.0155                  6.50266077191626E-4
0.0055                    -0.0145                  3.244239382987798E-4
0.0055                    -0.0135                  1.8043031879224993E-4
0.0055                    -0.0125                  1.3579320393818163E-4
0.0055                    -0.0115                  1.3717569416901574E-4
0.0055                    -0.0105                  1.653547552834638E-4
0.0055                    -0.0095                  2.4013973404673155E-4
0.0055                    -0.0085                  4.6239791337771084E-4
0.0055                    -0.0075                  0.0011799673497067432
0.0055                    -0.0065                  0.003520405720131303
0.0055                    -0.0055                  0.005415555215494833
0.0055                    -0.0045                  0.005779697295219445
0.0055                    -0.0035                  0.011201519438997372
0.0055                    -0.0025                  0.018366108641556335
0.0055                    -0.0015                  0.023718999804885
0.0055                    -5.0E-4                  0.025782042901379146
0.0055                    5.0E-4                   0.023991296772399688
0.0055                    0.0015                   0.018696644574960456
0.0055                    0.0025                   0.011894454785855171
0.0055                    0.0035                   0.005973658984597434
0.0055                    0.0045                   0.0023892700515672563
0.0055                    0.0055                   0.0010191051564021065
0.0055                    0.0065                   5.632509650439622E-4
0.0055                    0.0075                   2.952599220559446E-4
0.0055                    0.0085                   1.2624334183603268E-4
0.0055                    0.0095                   6.225299236598813E-5
0.0055                    0.0105                   4.2117631743764326E-5
0.0055                    0.0115                   4.452790664157647E-5
0.0055                    0.0125                   6.637195647399234E-5
0.0055                    0.0135                   1.1861921805519021E-4
0.0055                    0.0145                   2.5294044889627947E-4
0.0055                    0.0155                   6.314041038903752E-4
0.0055                    0.0165                   0.0016593107240528177
0.0055                    0.0175                   0.00371067685122815
0.0055                    0.0185                   0.00578900073140729
0.0055                    0.0195                   0.0058006905518232805
0.0055                    0.0205                   0.003697500387825123
0.0055                    0.0215                   0.0016388729379369779
0.0055                    0.0225                   6.771882174670833E-4
0.0055                    0.0235                   2.9557906171755996E-4
0.0055                    0.0245                   1.1373379332182313E-4
0.0055                    0.0255                   5.121965987420714E-5
0.0055                    0.0265                   2.658940917272607E-5
0.0055                    0.0275                   1.6379125711284014E-5
0.0055                    0.0285                   1.2092539703542159E-5
0.0055                    0.0295                   1.0228262376239798E-5
0.0055                    0.0305                   1.2220184550848726E-5
0.0055                    0.0315                   7.603530618019253E-6
0.0065                    -0.0315                  5.664427975577803E-6
0.0065                    -0.0305                  9.634395790375278E-6
0.0065                    -0.0295                  9.536599933373242E-6
0.0065                    -0.0285                  1.3573611852067882E-5
0.0065                    -0.0275                  2.147898404707972E-5
0.0065                    -0.0265                  3.8680781103681026E-5
0.0065                    -0.0255                  7.857914861143446E-5
0.0065                    -0.0245                  1.9292827675686713E-4
0.0065                    -0.0235                  5.107674504443305E-4
0.0065                    -0.0225                  0.0012315935480500027
0.0065                    -0.0215                  0.002773074960233007
0.0065                    -0.0205                  0.004938802287034048
0.0065                    -0.0195                  0.005792001576285125
0.0065                    -0.0185                  0.004138185933130225
0.0065                    -0.0175                  0.001825014586872265
0.0065                    -0.0165                  6.205164019914473E-4
0.0065                    -0.0155                  2.5745280971116696E-4
0.0065                    -0.0145                  1.423445985494406E-4
0.0065                    -0.0135                  9.35691513525903E-5
0.0065                    -0.0125                  7.742769075620374E-5
0.0065                    -0.0115                  8.475372203182495E-5
0.0065                    -0.0105                  1.1693240200033368E-4
0.0065                    -0.0095                  1.9932722555925615E-4
0.0065                    -0.0085                  4.452066585755032E-4
0.0065                    -0.0075                  0.0011675614855590523
0.0065                    -0.0065                  0.002791045162751761