% Model:              Benchmark260518.mph
% Version:            COMSOL 6.2.0.339
% Date:               May 20 2026, 06:22
% Dimension:          2
% Nodes:              4096
% Expressions:        1
% Description:        速度大小
% Length unit:        m
% x                       y                        spf.U (m/s)
5.0E-4                    -0.0315                  2.7437931853808057E-6
5.0E-4                    -0.0305                  5.4677386611567686E-6
5.0E-4                    -0.0295                  6.079176898316136E-6
5.0E-4                    -0.0285                  6.809685527123566E-6
5.0E-4                    -0.0275                  7.281358077674976E-6
5.0E-4                    -0.0265                  7.784454330718055E-6
5.0E-4                    -0.0255                  8.30273959330271E-6
5.0E-4                    -0.0245                  8.921371958988436E-6
5.0E-4                    -0.0235                  9.705611380782388E-6
5.0E-4                    -0.0225                  1.0794744926344725E-5
5.0E-4                    -0.0215                  1.2360755863941269E-5
5.0E-4                    -0.0205                  1.4671498269760835E-5
5.0E-4                    -0.0195                  1.8369564207421756E-5
5.0E-4                    -0.0185                  2.5097111065840187E-5
5.0E-4                    -0.0175                  4.471544587422671E-5
5.0E-4                    -0.0165                  1.0906940055701019E-4
5.0E-4                    -0.0155                  3.3657817384088383E-4
5.0E-4                    -0.0145                  8.12081185032822E-4
5.0E-4                    -0.0135                  0.0016057427810901677
5.0E-4                    -0.0125                  0.0026820217122776463
5.0E-4                    -0.0115                  0.003698042712962302
5.0E-4                    -0.0105                  0.004388678735062907
5.0E-4                    -0.0095                  0.004722268338833404
5.0E-4                    -0.0085                  0.004749819515196894
5.0E-4                    -0.0075                  0.0044765682674623485
5.0E-4                    -0.0065                  0.0038767272422120806
5.0E-4                    -0.0055                  0.0030061598359113696
5.0E-4                    -0.0045                  0.0020410734849156
5.0E-4                    -0.0035                  0.0012639416932609083
5.0E-4                    -0.0025                  9.790389591584348E-4
5.0E-4                    -0.0015                  0.0012525314865553276
5.0E-4                    -5.0E-4                  0.0019033874537876746
5.0E-4                    5.0E-4                   0.002744963877070765
5.0E-4                    0.0015                   0.003575582211250683
5.0E-4                    0.0025                   0.004185374179394444
5.0E-4                    0.0035                   0.004400815567612368
5.0E-4                    0.0045                   0.004137652432469377
5.0E-4                    0.0055                   0.003418390971263002
5.0E-4                    0.0065                   0.0023716823618139646
5.0E-4                    0.0075                   0.00127957076602653
5.0E-4                    0.0085                   0.0012080355159580364
5.0E-4                    0.0095                   0.002212490006842654
5.0E-4                    0.0105                   0.002943072812821729
5.0E-4                    0.0115                   0.003054743123014292
5.0E-4                    0.0125                   0.002672203742692787
5.0E-4                    0.0135                   0.003329454580830447
5.0E-4                    0.0145                   0.025233084736698396
5.0E-4                    0.0155                   0.04508425110979818
5.0E-4                    0.0165                   0.04138675091334577
5.0E-4                    0.0175                   0.019662689083748013
5.0E-4                    0.0185                   0.001387207002423331
5.0E-4                    0.0195                   0.001424313381596784
5.0E-4                    0.0205                   0.0024182299003798133
5.0E-4                    0.0215                   0.003240740530659877
5.0E-4                    0.0225                   0.003530883501519268
5.0E-4                    0.0235                   0.003104848325726616
5.0E-4                    0.0245                   0.0021548641506798955
5.0E-4                    0.0255                   0.0011570648831369715
5.0E-4                    0.0265                   5.012116772137271E-4
5.0E-4                    0.0275                   1.951456319208949E-4
5.0E-4                    0.0285                   6.615681914205919E-5
5.0E-4                    0.0295                   2.0505189775618042E-5
5.0E-4                    0.0305                   8.477072321820584E-6
5.0E-4                    0.0315                   2.987030454063455E-6
0.0015                    -0.0315                  5.314928509361348E-6
0.0015                    -0.0305                  1.037256073530798E-5
0.0015                    -0.0295                  1.0954567679780559E-5
0.0015                    -0.0285                  1.1766049559130785E-5
0.0015                    -0.0275                  1.2234406147771873E-5
0.0015                    -0.0265                  1.2837837337379752E-5
0.0015                    -0.0255                  1.356752300797018E-5
0.0015                    -0.0245                  1.4552707313756451E-5
0.0015                    -0.0235                  1.5938287378550134E-5
0.0015                    -0.0225                  1.7997688540766033E-5
0.0015                    -0.0215                  2.1124525799860523E-5
0.0015                    -0.0205                  2.6023231628466178E-5
0.0015                    -0.0195                  3.434041133589513E-5
0.0015                    -0.0185                  5.0809411336963535E-5
0.0015                    -0.0175                  9.503281173576273E-5
0.0015                    -0.0165                  2.3078299767501895E-4
0.0015                    -0.0155                  6.896481633746077E-4
0.0015                    -0.0145                  0.0017153684335351998
0.0015                    -0.0135                  0.0034725251783360345
0.0015                    -0.0125                  0.005410711191056801
0.0015                    -0.0115                  0.0067460049213856135
0.0015                    -0.0105                  0.0074062207481386
0.0015                    -0.0095                  0.007631375212333005
0.0015                    -0.0085                  0.007615024685893027
0.0015                    -0.0075                  0.007409656655156127
0.0015                    -0.0065                  0.006950285184126949
0.0015                    -0.0055                  0.006129614944008317
0.0015                    -0.0045                  0.004904109123417805
0.0015                    -0.0035                  0.0037627361992913387
0.0015                    -0.0025                  0.0037557231751578998
0.0015                    -0.0015                  0.005045557738480125
0.0015                    -5.0E-4                  0.007038098961425792
0.0015                    5.0E-4                   0.009235796500351993
0.0015                    0.0015                   0.011215314626326857
0.0015                    0.0025                   0.012646134548398353
0.0015                    0.0035                   0.013332614780310382
0.0015                    0.0045                   0.013206116065492643
0.0015                    0.0055                   0.012295710834674064
0.0015                    0.0065                   0.010678942884724313
0.0015                    0.0075                   0.008431846674770984
0.0015                    0.0085                   0.005689972461992353
0.0015                    0.0095                   0.0029110252674719997
0.0015                    0.0105                   0.0012648722142194954
0.0015                    0.0115                   0.0017210874997299825
0.0015                    0.0125                   0.001821116502788441
0.0015                    0.0135                   0.010903451073394266
0.0015                    0.0145                   0.029897029189793888
0.0015                    0.0155                   0.041308108910294114
0.0015                    0.0165                   0.036559622941529514
0.0015                    0.0175                   0.01988246412471211
0.0015                    0.0185                   0.006654491320356839
0.0015                    0.0195                   0.007479068208605682
0.0015                    0.0205                   0.009160921227488
0.0015                    0.0215                   0.009750856872221103
0.0015                    0.0225                   0.009516206384640763
0.0015                    0.0235                   0.008386549148606242
0.0015                    0.0245                   0.006301608323887217
0.0015                    0.0255                   0.0037258906770002258
0.0015                    0.0265                   0.0016333485771472009
0.0015                    0.0275                   5.633115285903705E-4
0.0015                    0.0285                   1.7605350325871908E-4
0.0015                    0.0295                   5.215410830606953E-5
0.0015                    0.0305                   2.1214013473540748E-5
0.0015                    0.0315                   7.105003092375644E-6
0.0025                    -0.0315                  5.69032289385003E-6
0.0025                    -0.0305                  1.0504936678717474E-5
0.0025                    -0.0295                  1.0242010307388413E-5
0.0025                    -0.0285                  1.0652329327337748E-5
0.0025                    -0.0275                  1.076744219463644E-5
0.0025                    -0.0265                  1.1080503205388959E-5
0.0025                    -0.0255                  1.1641750460973684E-5
0.0025                    -0.0245                  1.2597156230723016E-5
0.0025                    -0.0235                  1.417091919432888E-5
0.0025                    -0.0225                  1.6798145952508967E-5
0.0025                    -0.0215                  2.1254209209686067E-5
0.0025                    -0.0205                  2.896567044673056E-5
0.0025                    -0.0195                  4.333282908301885E-5
0.0025                    -0.0185                  7.278894788068354E-5
0.0025                    -0.0175                  1.4099176984831794E-4
0.0025                    -0.0165                  3.340138163220992E-4
0.0025                    -0.0155                  9.916243344115882E-4
0.0025                    -0.0145                  0.002575353808460465
0.0025                    -0.0135                  0.004552858732738069
0.0025                    -0.0125                  0.005387397193591784
0.0025                    -0.0115                  0.004960592885514864
0.0025                    -0.0105                  0.0043034395386163425
0.0025                    -0.0095                  0.0039061088116396094
0.0025                    -0.0085                  0.0038111468061114142
0.0025                    -0.0075                  0.004050388670363465
0.0025                    -0.0065                  0.004699238104477946
0.0025                    -0.0055                  0.005489898636456006
0.0025                    -0.0045                  0.005670295893792683
0.0025                    -0.0035                  0.005753768870897096
0.0025                    -0.0025                  0.007324104651255746
0.0025                    -0.0015                  0.010047053670020725
0.0025                    -5.0E-4                  0.012985609164749463
0.0025                    5.0E-4                   0.015581095768398901
0.0025                    0.0015                   0.017592375925351636
0.0025                    0.0025                   0.019018709370027375
0.0025                    0.0035                   0.019961661304292326
0.0025                    0.0045                   0.02052807099707785
0.0025                    0.0055                   0.0207492062661333
0.0025                    0.0065                   0.020524866488792336
0.0025                    0.0075                   0.019636476412006693
0.0025                    0.0085                   0.01785381716160948
0.0025                    0.0095                   0.015233386645925565
0.0025                    0.0105                   0.012348729865801208
0.0025                    0.0115                   0.01053093719007546
0.0025                    0.0125                   0.012447179581067735
0.0025                    0.0135                   0.020458155923671492
0.0025                    0.0145                   0.031081305951701343
0.0025                    0.0155                   0.035010145556387685
0.0025                    0.0165                   0.028593931434395
0.0025                    0.0175                   0.016951645907994552
0.0025                    0.0185                   0.01309635110583944
0.0025                    0.0195                   0.01478375714855186
0.0025                    0.0205                   0.014468616325771374
0.0025                    0.0215                   0.013033701237375636
0.0025                    0.0225                   0.011816694169445318
0.0025                    0.0235                   0.0108389531073987
0.0025                    0.0245                   0.009352555288609884
0.0025                    0.0255                   0.006671484617561203
0.0025                    0.0265                   0.003419079328053163
0.0025                    0.0275                   0.0012113685910297193
0.0025                    0.0285                   3.676598536663729E-4
0.0025                    0.0295                   1.0945673950571764E-4
0.0025                    0.0305                   3.600445758143635E-5
0.0025                    0.0315                   1.1379368613125347E-5
0.0035                    -0.0315                  6.2786003653443755E-6
0.0035                    -0.0305                  1.0991709242166979E-5
0.0035                    -0.0295                  1.0193899047438547E-5
0.0035                    -0.0285                  1.0804788907225608E-5
0.0035                    -0.0275                  1.1073662702005834E-5
0.0035                    -0.0265                  1.1540070098485106E-5
0.0035                    -0.0255                  1.2313753722420369E-5
0.0035                    -0.0245                  1.3669513214671389E-5
0.0035                    -0.0235                  1.6047484526335846E-5
0.0035                    -0.0225                  2.0393654177252366E-5
0.0035                    -0.0215                  2.868427111128489E-5
0.0035                    -0.0205                  4.4431242131855536E-5
0.0035                    -0.0195                  7.445962666297363E-5
0.0035                    -0.0185                  1.3699469303309406E-4
0.0035                    -0.0175                  2.7839745846106105E-4
0.0035                    -0.0165                  5.890279094535665E-4
0.0035                    -0.0155                  0.001753075567020423
0.0035                    -0.0145                  0.004061723628643605
0.0035                    -0.0135                  0.005461219571277757
0.0035                    -0.0125                  0.004584592687436092
0.0035                    -0.0115                  0.0029205023528944786
0.0035                    -0.0105                  0.0018079559817825524
0.0035                    -0.0095                  0.0013340199869463084
0.0035                    -0.0085                  0.0012412747181511207
0.0035                    -0.0075                  0.0014507482327624436
0.0035                    -0.0065                  0.0021824105972508526
0.0035                    -0.0055                  0.0035229588355223398
0.0035                    -0.0045                  0.0047728776482623605
0.0035                    -0.0035                  0.006644405068769432
0.0035                    -0.0025                  0.010028502347483849
0.0035                    -0.0015                  0.013649059525428166
0.0035                    -5.0E-4                  0.016567223449839734
0.0035                    5.0E-4                   0.018575566785581893
0.0035                    0.0015                   0.019833967756480834
0.0035                    0.0025                   0.02060915415433275
0.0035                    0.0035                   0.02118985658719163
0.0035                    0.0045                   0.021881344273656227
0.0035                    0.0055                   0.02285574405408538
0.0035                    0.0065                   0.0240333879045673
0.0035                    0.0075                   0.025095948947033625
0.0035                    0.0085                   0.025592229167077034
0.0035                    0.0095                   0.025188109138918804
0.0035                    0.0105                   0.024065246487923724
0.0035                    0.0115                   0.023139346255101893
0.0035                    0.0125                   0.023777238887034757
0.0035                    0.0135                   0.026394079928042637
0.0035                    0.0145                   0.02882768790215781
0.0035                    0.0155                   0.026645488395786624
0.0035                    0.0165                   0.01854295519037261
0.0035                    0.0175                   0.01218526471581704
0.0035                    0.0185                   0.01345655288765848
0.0035                    0.0195                   0.013580846876181208
0.0035                    0.0205                   0.011511479575520518
0.0035                    0.0215                   0.009705795495614011
0.0035                    0.0225                   0.009302519826931527
0.0035                    0.0235                   0.01000394193753682
0.0035                    0.0245                   0.010531610855203488
0.0035                    0.0255                   0.009224317200367154
0.0035                    0.0265                   0.005766102040710842
0.0035                    0.0275                   0.0023739690666924875
0.0035                    0.0285                   7.40284421453594E-4
0.0035                    0.0295                   2.1919772050994478E-4
0.0035                    0.0305                   6.453405370402738E-5
0.0035                    0.0315                   2.1022352621899466E-5
0.0045                    -0.0315                  6.678882472948358E-6
0.0045                    -0.0305                  1.12164387389693E-5
0.0045                    -0.0295                  9.815246167680864E-6
0.0045                    -0.0285                  1.0489099575556062E-5
0.0045                    -0.0275                  1.0999786064023486E-5
0.0045                    -0.0265                  1.183838445977527E-5
0.0045                    -0.0255                  1.318589590988775E-5
0.0045                    -0.0245                  1.5536576498210235E-5
0.0045                    -0.0235                  1.9766799052324677E-5
0.0045                    -0.0225                  2.7869627925403514E-5
0.0045                    -0.0215                  4.435251453264187E-5
0.0045                    -0.0205                  7.967645906922805E-5
0.0045                    -0.0195                  1.5340440363100492E-4
0.0045                    -0.0185                  2.9955207553518533E-4
0.0045                    -0.0175                  6.892628987531326E-4
0.0045                    -0.0165                  0.0015362981232956076
0.0045                    -0.0155                  0.0034579803962054238
0.0045                    -0.0145                  0.0054225513058848715
0.0045                    -0.0135                  0.004978331105529129
0.0045                    -0.0125                  0.0029754275218557016
0.0045                    -0.0115                  0.0014935496184571725
0.0045                    -0.0105                  7.449293974226202E-4
0.0045                    -0.0095                  4.550239464369004E-4
0.0045                    -0.0085                  3.924070596300401E-4
0.0045                    -0.0075                  4.498410577256947E-4
0.0045                    -0.0065                  7.788524801170539E-4
0.0045                    -0.0055                  0.0016454223087986703
0.0045                    -0.0045                  0.0032964163558443635
0.0045                    -0.0035                  0.006842127556962568
0.0045                    -0.0025                  0.011351948570586927
0.0045                    -0.0015                  0.014930297917108147
0.0045                    -5.0E-4                  0.017019360184179513
0.0045                    5.0E-4                   0.01779094048100963
0.0045                    0.0015                   0.01754394413335257
0.0045                    0.0025                   0.01677751480046351
0.0045                    0.0035                   0.01616237645666426
0.0045                    0.0045                   0.01621991318602291
0.0045                    0.0055                   0.01719939610969039
0.0045                    0.0065                   0.01907957486583036
0.0045                    0.0075                   0.021581583495336013
0.0045                    0.0085                   0.024207196482226436
0.0045                    0.0095                   0.02632499049008855
0.0045                    0.0105                   0.027417530986652023
0.0045                    0.0115                   0.027447288076923128
0.0045                    0.0125                   0.026804730452517474
0.0045                    0.0135                   0.025626493304054577
0.0045                    0.0145                   0.02298089334606705
0.0045                    0.0155                   0.016975141912030197
0.0045                    0.0165                   0.008905404910740263
0.0045                    0.0175                   0.006624796539386227
0.0045                    0.0185                   0.00731178701631833
0.0045                    0.0195                   0.0063087202943814015
0.0045                    0.0205                   0.004988912220547034
0.0045                    0.0215                   0.0044490936314523725
0.0045                    0.0225                   0.005209062073031809
0.0045                    0.0235                   0.007486668140072837
0.0045                    0.0245                   0.010076126767480367
0.0045                    0.0255                   0.010698077485606567
0.0045                    0.0265                   0.008059929449904748
0.0045                    0.0275                   0.004018746813815702
0.0045                    0.0285                   0.0014031509658635033
0.0045                    0.0295                   4.342423654549249E-4
0.0045                    0.0305                   1.3940660572409324E-4
0.0045                    0.0315                   4.322977014898863E-5
0.0055                    -0.0315                  7.129540018906211E-6
0.0055                    -0.0305                  1.1568010900706197E-5
0.0055                    -0.0295                  9.531653047995345E-6
0.0055                    -0.0285                  1.0170348568988348E-5
0.0055                    -0.0275                  1.0912061739910872E-5
0.0055                    -0.0265                  1.2352902299515011E-5
0.0055                    -0.0255                  1.4875422247232993E-5
0.0055                    -0.0245                  1.936330775387059E-5
0.0055                    -0.0235                  2.749983144725653E-5
0.0055                    -0.0225                  4.31431383522052E-5
0.0055                    -0.0215                  7.682835393966239E-5
0.0055                    -0.0205                  1.5633128457133276E-4
0.0055                    -0.0195                  3.7302203347220985E-4
0.0055                    -0.0185                  8.024665279867804E-4
0.0055                    -0.0175                  0.0017754381532366886
0.0055                    -0.0165                  0.0035668327041898057
0.0055                    -0.0155                  0.005436974878497133
0.0055                    -0.0145                  0.005334953154278094
0.0055                    -0.0135                  0.0031287209508460974
0.0055                    -0.0125                  0.0013410058073384614
0.0055                    -0.0115                  6.514135269152749E-4
0.0055                    -0.0105                  3.174144194680614E-4
0.0055                    -0.0095                  1.7672846419669505E-4
0.0055                    -0.0085                  1.473546404591677E-4
0.0055                    -0.0075                  1.7802569722482925E-4
0.0055                    -0.0065                  3.514952506403389E-4
0.0055                    -0.0055                  8.943307881588802E-4
0.0055                    -0.0045                  0.0030250575301305886
0.0055                    -0.0035                  0.007523258384984922
0.0055                    -0.0025                  0.01215656272032392
0.0055                    -0.0015                  0.014877640711591925
0.0055                    -5.0E-4                  0.01556954865223107
0.0055                    5.0E-4                   0.014474176600425465
0.0055                    0.0015                   0.012195466251617423
0.0055                    0.0025                   0.009832215919849358
0.0055                    0.0035                   0.008260714022065525
0.0055                    0.0045                   0.007730721552263888
0.0055                    0.0055                   0.008181961121704114
0.0055                    0.0065                   0.00953000787872293
0.0055                    0.0075                   0.011683083163988356
0.0055                    0.0085                   0.014414937125176951
0.0055                    0.0095                   0.017247128434045866
0.0055                    0.0105                   0.019509074293200094
0.0055                    0.0115                   0.020553298852658723
0.0055                    0.0125                   0.01997595492076917
0.0055                    0.0135                   0.017680616672474406
0.0055                    0.0145                   0.013578039913036704
0.0055                    0.0155                   0.007884949566571585
0.0055                    0.0165                   0.003165912025386115
0.0055                    0.0175                   0.002247128861640372
0.0055                    0.0185                   0.0018271345464235442
0.0055                    0.0195                   0.0015832025828765941
0.0055                    0.0205                   0.0016796768805333988
0.0055                    0.0215                   0.0019008970977943023
0.0055                    0.0225                   0.002661075687806075
0.0055                    0.0235                   0.005001229211334151
0.0055                    0.0245                   0.008547340961209234
0.0055                    0.0255                   0.010906022967667895
0.0055                    0.0265                   0.009816690617213596
0.0055                    0.0275                   0.006039068440418133
0.0055                    0.0285                   0.0025832491782260937
0.0055                    0.0295                   8.956237726840848E-4
0.0055                    0.0305                   3.365066087262993E-4
0.0055                    0.0315                   1.1274467071259621E-4
0.0065                    -0.0315                  7.59338993139177E-6
0.0065                    -0.0305                  1.2005270423908148E-5
0.0065                    -0.0295                  9.38663602582475E-6
0.0065                    -0.0285                  9.978909299790083E-6
0.0065                    -0.0275                  1.1025922287111105E-5
0.0065                    -0.0265                  1.3451340162489387E-5
0.0065                    -0.0255                  1.828566433589032E-5
0.0065                    -0.0245                  2.7431105355209452E-5
0.0065                    -0.0235                  4.367881527797548E-5
0.0065                    -0.0225                  7.538225674197771E-5
0.0065                    -0.0215                  1.476051476248311E-4
0.0065                    -0.0205                  3.528785602513949E-4
0.0065                    -0.0195                  8.958929871205674E-4
0.0065                    -0.0185                  0.0019793472294903206
0.0065                    -0.0175                  0.0037414794913147886
0.0065                    -0.0165                  0.005536189227329758
0.0065                    -0.0155                  0.005662201856833039
0.0065                    -0.0145                  0.003673714103669289
0.0065                    -0.0135                  0.0014893182545769564
0.0065                    -0.0125                  5.123893333998452E-4
0.0065                    -0.0115                  2.600705006891113E-4
0.0065                    -0.0105                  1.458641946936115E-4
0.0065                    -0.0095                  9.465174803135566E-5
0.0065                    -0.0085                  8.680724411739933E-5
0.0065                    -0.0075                  1.2318298979499727E-4
0.0065                    -0.0065                  2.854061960610736E-4
0.0065                    -0.0055                  9.759056234722123E-4