% Model:              Benchmark260518.mph
% Version:            COMSOL 6.2.0.339
% Date:               May 19 2026, 08:01
% Dimension:          2
% Nodes:              4096
% Expressions:        1
% Description:        速度大小
% Length unit:        m
% x                       y                        spf.U (m/s)
5.0E-4                    -0.0315                  9.712712825576868E-7
5.0E-4                    -0.0305                  1.95437967884463E-6
5.0E-4                    -0.0295                  2.165188621084915E-6
5.0E-4                    -0.0285                  2.4002311615465664E-6
5.0E-4                    -0.0275                  2.5429450566486614E-6
5.0E-4                    -0.0265                  2.6556473688831495E-6
5.0E-4                    -0.0255                  2.747928195211062E-6
5.0E-4                    -0.0245                  2.8222087436781125E-6
5.0E-4                    -0.0235                  2.884830315508922E-6
5.0E-4                    -0.0225                  2.9413051007932485E-6
5.0E-4                    -0.0215                  2.9913750327248937E-6
5.0E-4                    -0.0205                  3.036254274988878E-6
5.0E-4                    -0.0195                  3.0790261782550602E-6
5.0E-4                    -0.0185                  3.120994925498985E-6
5.0E-4                    -0.0175                  3.171473124827858E-6
5.0E-4                    -0.0165                  3.251876332190362E-6
5.0E-4                    -0.0155                  3.3876530331079154E-6
5.0E-4                    -0.0145                  3.616053878031561E-6
5.0E-4                    -0.0135                  4.019121348462973E-6
5.0E-4                    -0.0125                  4.711764239235433E-6
5.0E-4                    -0.0115                  6.355444940950027E-6
5.0E-4                    -0.0105                  1.0898876359812055E-5
5.0E-4                    -0.0095                  2.3362679043000924E-5
5.0E-4                    -0.0085                  5.792839482529899E-5
5.0E-4                    -0.0075                  1.4451911361267983E-4
5.0E-4                    -0.0065                  2.914745747128095E-4
5.0E-4                    -0.0055                  4.962222078998637E-4
5.0E-4                    -0.0045                  8.414626541240975E-4
5.0E-4                    -0.0035                  0.0014356290672325367
5.0E-4                    -0.0025                  0.0022583393452807266
5.0E-4                    -0.0015                  0.0031973872169023545
5.0E-4                    -5.0E-4                  0.004137508215181854
5.0E-4                    5.0E-4                   0.004987669656246916
5.0E-4                    0.0015                   0.005687306232015662
5.0E-4                    0.0025                   0.006229651253958908
5.0E-4                    0.0035                   0.006642563862594338
5.0E-4                    0.0045                   0.00693914828250156
5.0E-4                    0.0055                   0.007114344191303818
5.0E-4                    0.0065                   0.007147394510789071
5.0E-4                    0.0075                   0.0069986862597283634
5.0E-4                    0.0085                   0.006613803838521266
5.0E-4                    0.0095                   0.0059438416415269705
5.0E-4                    0.0105                   0.004970092042103964
5.0E-4                    0.0115                   0.003739464069903743
5.0E-4                    0.0125                   0.002388837616214746
5.0E-4                    0.0135                   0.0011879785138267684
5.0E-4                    0.0145                   0.0011392625080695338
5.0E-4                    0.0155                   0.0019236834163370296
5.0E-4                    0.0165                   0.0023142865369996605
5.0E-4                    0.0175                   0.0022133259044378305
5.0E-4                    0.0185                   0.0018874545155074197
5.0E-4                    0.0195                   0.0015618791886001353
5.0E-4                    0.0205                   0.0011833517085143134
5.0E-4                    0.0215                   0.004735363197563485
5.0E-4                    0.0225                   0.02217056143886219
5.0E-4                    0.0235                   0.03326086392566701
5.0E-4                    0.0245                   0.023804758903695152
5.0E-4                    0.0255                   0.008382051330513738
5.0E-4                    0.0265                   3.9820067368379406E-4
5.0E-4                    0.0275                   1.6060453399671147E-4
5.0E-4                    0.0285                   8.9491843683303E-5
5.0E-4                    0.0295                   3.661024626655966E-5
5.0E-4                    0.0305                   1.42029623862024E-5
5.0E-4                    0.0315                   4.470313588436147E-6
0.0015                    -0.0315                  1.9001950965042373E-6
0.0015                    -0.0305                  3.802279957084254E-6
0.0015                    -0.0295                  4.106855084726749E-6
0.0015                    -0.0285                  4.369475748874969E-6
0.0015                    -0.0275                  4.455284289489169E-6
0.0015                    -0.0265                  4.512767812682343E-6
0.0015                    -0.0255                  4.555308502894947E-6
0.0015                    -0.0245                  4.590284967562131E-6
0.0015                    -0.0235                  4.62226526477924E-6
0.0015                    -0.0225                  4.654954439174265E-6
0.0015                    -0.0215                  4.6863235177913465E-6
0.0015                    -0.0205                  4.716265026427568E-6
0.0015                    -0.0195                  4.7478540393589596E-6
0.0015                    -0.0185                  4.785591458657861E-6
0.0015                    -0.0175                  4.847125406958485E-6
0.0015                    -0.0165                  4.970940560816555E-6
0.0015                    -0.0155                  5.216045067563093E-6
0.0015                    -0.0145                  5.686189284489696E-6
0.0015                    -0.0135                  6.593937662660505E-6
0.0015                    -0.0125                  8.376792891389619E-6
0.0015                    -0.0115                  1.2475151620947886E-5
0.0015                    -0.0105                  2.2844494359611705E-5
0.0015                    -0.0095                  5.0475022115865854E-5
0.0015                    -0.0085                  1.3116032105113973E-4
0.0015                    -0.0075                  3.432130562489663E-4
0.0015                    -0.0065                  8.018197445768851E-4
0.0015                    -0.0055                  0.0017173462150062836
0.0015                    -0.0045                  0.003273835736148708
0.0015                    -0.0035                  0.005339866040939393
0.0015                    -0.0025                  0.0075809396512835775
0.0015                    -0.0015                  0.009702258532069925
0.0015                    -5.0E-4                  0.011528217088284502
0.0015                    5.0E-4                   0.012997812831579589
0.0015                    0.0015                   0.014130206315219013
0.0015                    0.0025                   0.014980643686713533
0.0015                    0.0035                   0.01557735210134405
0.0015                    0.0045                   0.015942894287744314
0.0015                    0.0055                   0.016096973246094347
0.0015                    0.0065                   0.016028858092660754
0.0015                    0.0075                   0.015698556075944246
0.0015                    0.0085                   0.015053022992962722
0.0015                    0.0095                   0.01404735671141364
0.0015                    0.0105                   0.0126220785107123
0.0015                    0.0115                   0.01076005771101973
0.0015                    0.0125                   0.008541863830604434
0.0015                    0.0135                   0.006059383786056781
0.0015                    0.0145                   0.0035116619691170025
0.0015                    0.0155                   0.0018714643111417781
0.0015                    0.0165                   0.0024852924565987996
0.0015                    0.0175                   0.003145789249571894
0.0015                    0.0185                   0.0030268789620308038
0.0015                    0.0195                   0.0021894203481644284
0.0015                    0.0205                   0.0031416063784489917
0.0015                    0.0215                   0.01441655191214172
0.0015                    0.0225                   0.028390024258199937
0.0015                    0.0235                   0.030764422791062902
0.0015                    0.0245                   0.019177034185611532
0.0015                    0.0255                   0.00589598927298512
0.0015                    0.0265                   6.968668961808981E-4
0.0015                    0.0275                   2.7548664258183456E-4
0.0015                    0.0285                   1.6085557322430036E-4
0.0015                    0.0295                   7.084995391278792E-5
0.0015                    0.0305                   2.905456557384533E-5
0.0015                    0.0315                   9.276423360078669E-6
0.0025                    -0.0315                  1.9456839832822385E-6
0.0025                    -0.0305                  3.864770404949812E-6
0.0025                    -0.0295                  4.147174895477499E-6
0.0025                    -0.0285                  4.318036301689416E-6
0.0025                    -0.0275                  4.221655846791915E-6
0.0025                    -0.0265                  4.081054202664548E-6
0.0025                    -0.0255                  3.932509261423167E-6
0.0025                    -0.0245                  3.8016908905632E-6
0.0025                    -0.0235                  3.6921310722377184E-6
0.0025                    -0.0225                  3.603035346264939E-6
0.0025                    -0.0215                  3.5313895612388153E-6
0.0025                    -0.0205                  3.474891889020209E-6
0.0025                    -0.0195                  3.434933329910111E-6
0.0025                    -0.0185                  3.4213387579383592E-6
0.0025                    -0.0175                  3.459241617217686E-6
0.0025                    -0.0165                  3.601349475208258E-6
0.0025                    -0.0155                  3.952389021250308E-6
0.0025                    -0.0145                  4.720078312673444E-6
0.0025                    -0.0135                  6.334942543858815E-6
0.0025                    -0.0125                  9.785732906906033E-6
0.0025                    -0.0115                  1.7573746497494088E-5
0.0025                    -0.0105                  3.693573462480332E-5
0.0025                    -0.0095                  9.111312851852044E-5
0.0025                    -0.0085                  2.5669629796916724E-4
0.0025                    -0.0075                  7.123766777241458E-4
0.0025                    -0.0065                  0.0018694476945490222
0.0025                    -0.0055                  0.0040810252354631475
0.0025                    -0.0045                  0.007043906509014128
0.0025                    -0.0035                  0.010009747614187476
0.0025                    -0.0025                  0.01242723394299331
0.0025                    -0.0015                  0.014172331312652884
0.0025                    -5.0E-4                  0.015343413608488336
0.0025                    5.0E-4                   0.016053754139809747
0.0025                    0.0015                   0.016445948094141783
0.0025                    0.0025                   0.016641572848903375
0.0025                    0.0035                   0.016710375142162306
0.0025                    0.0045                   0.016700766814523236
0.0025                    0.0055                   0.01664544157922604
0.0025                    0.0065                   0.016560482828213683
0.0025                    0.0075                   0.01645313300015713
0.0025                    0.0085                   0.016325644526219246
0.0025                    0.0095                   0.016167218047173103
0.0025                    0.0105                   0.01593191689104325
0.0025                    0.0115                   0.015504735064779515
0.0025                    0.0125                   0.014700161327906145
0.0025                    0.0135                   0.013274396728834936
0.0025                    0.0145                   0.01100856863517762
0.0025                    0.0155                   0.007962928771559165
0.0025                    0.0165                   0.004724977492709665
0.0025                    0.0175                   0.002394184477608032
0.0025                    0.0185                   0.0023245023504333434
0.0025                    0.0195                   0.0051433658383138936
0.0025                    0.0205                   0.012488629469242002
0.0025                    0.0215                   0.022958130644998884
0.0025                    0.0225                   0.029607013539270977
0.0025                    0.0235                   0.02608666676512204
0.0025                    0.0245                   0.013632487837222594
0.0025                    0.0255                   0.0033534619673538098
0.0025                    0.0265                   5.333928658254139E-4
0.0025                    0.0275                   2.506396045953508E-4
0.0025                    0.0285                   1.5394394002113295E-4
0.0025                    0.0295                   7.217003269064518E-5
0.0025                    0.0305                   3.119947016289209E-5
0.0025                    0.0315                   1.0353933355033876E-5
0.0035                    -0.0315                  2.014481867627633E-6
0.0035                    -0.0305                  3.952708751842096E-6
0.0035                    -0.0295                  4.316671961391557E-6
0.0035                    -0.0285                  4.663405596187812E-6
0.0035                    -0.0275                  4.648880903089742E-6
0.0035                    -0.0265                  4.5114644580441215E-6
0.0035                    -0.0255                  4.321577475382169E-6
0.0035                    -0.0245                  4.131391254625578E-6
0.0035                    -0.0235                  3.958559932260739E-6
0.0035                    -0.0225                  3.8094981621925865E-6
0.0035                    -0.0215                  3.6853470527432457E-6
0.0035                    -0.0205                  3.588161926016603E-6
0.0035                    -0.0195                  3.526547077456317E-6
0.0035                    -0.0185                  3.523415937404873E-6
0.0035                    -0.0175                  3.6293110247078475E-6
0.0035                    -0.0165                  3.947190688602232E-6
0.0035                    -0.0155                  4.6825981012440205E-6
0.0035                    -0.0145                  6.262247056879068E-6
0.0035                    -0.0135                  9.634726663813948E-6
0.0035                    -0.0125                  1.7135711774360623E-5
0.0035                    -0.0115                  3.4917975251223736E-5
0.0035                    -0.0105                  8.174791157074394E-5
0.0035                    -0.0095                  2.2074358467357922E-4
0.0035                    -0.0085                  6.093679279331729E-4
0.0035                    -0.0075                  0.0016975896724792296
0.0035                    -0.0065                  0.004154276773420209
0.0035                    -0.0055                  0.0076737940218752545
0.0035                    -0.0045                  0.010964037791925446
0.0035                    -0.0035                  0.01318675957113597
0.0035                    -0.0025                  0.014285979647677109
0.0035                    -0.0015                  0.014552365353226288
0.0035                    -5.0E-4                  0.014305495624695644
0.0035                    5.0E-4                   0.01382539023989585
0.0035                    0.0015                   0.013298133585226258
0.0035                    0.0025                   0.012828993975014334
0.0035                    0.0035                   0.012483740772513413
0.0035                    0.0045                   0.012278553229494572
0.0035                    0.0055                   0.012209847715029542
0.0035                    0.0065                   0.012288240927783174
0.0035                    0.0075                   0.01254327539031827
0.0035                    0.0085                   0.013016496368065412
0.0035                    0.0095                   0.013741368940796314
0.0035                    0.0105                   0.014739564930391648
0.0035                    0.0115                   0.01592124073345296
0.0035                    0.0125                   0.016976886059593486
0.0035                    0.0135                   0.017497155780541607
0.0035                    0.0145                   0.017097388198581587
0.0035                    0.0155                   0.015626234697875108
0.0035                    0.0165                   0.01347923773265978
0.0035                    0.0175                   0.011706208659513412
0.0035                    0.0185                   0.011912510468201663
0.0035                    0.0195                   0.015413331664445275
0.0035                    0.0205                   0.021537814632467712
0.0035                    0.0215                   0.026851376005171824
0.0035                    0.0225                   0.02709905128723169
0.0035                    0.0235                   0.019463819128551472
0.0035                    0.0245                   0.008117508677257676
0.0035                    0.0255                   0.0016756898801432909
0.0035                    0.0265                   4.270615553122786E-4
0.0035                    0.0275                   2.4695618130664716E-4
0.0035                    0.0285                   1.5410527138859256E-4
0.0035                    0.0295                   7.117352056598042E-5
0.0035                    0.0305                   3.2016874117750086E-5
0.0035                    0.0315                   1.1544948369228202E-5
0.0045                    -0.0315                  2.0601089140033656E-6
0.0045                    -0.0305                  3.9724923609154875E-6
0.0045                    -0.0295                  4.323349418225848E-6
0.0045                    -0.0285                  4.788428728800911E-6
0.0045                    -0.0275                  4.897379863793191E-6
0.0045                    -0.0265                  4.828866812985519E-6
0.0045                    -0.0255                  4.651110912789856E-6
0.0045                    -0.0245                  4.437680610296546E-6
0.0045                    -0.0235                  4.225182816439213E-6
0.0045                    -0.0225                  4.033610410166285E-6
0.0045                    -0.0215                  3.874968899410012E-6
0.0045                    -0.0205                  3.763318595810315E-6
0.0045                    -0.0195                  3.724815001185529E-6
0.0045                    -0.0185                  3.811671310654749E-6
0.0045                    -0.0175                  4.12554930065279E-6
0.0045                    -0.0165                  4.8667520947810675E-6
0.0045                    -0.0155                  6.448537883738284E-6
0.0045                    -0.0145                  9.791386437827648E-6
0.0045                    -0.0135                  1.7283827397756683E-5
0.0045                    -0.0125                  3.5184654825062535E-5
0.0045                    -0.0115                  8.074831926621571E-5
0.0045                    -0.0105                  2.0324342835119596E-4
0.0045                    -0.0095                  5.296897775353925E-4
0.0045                    -0.0085                  0.0014122247709549842
0.0045                    -0.0075                  0.0036696008191203114
0.0045                    -0.0065                  0.007500132134762194
0.0045                    -0.0055                  0.011332203837825867
0.0045                    -0.0045                  0.013528014755436621
0.0045                    -0.0035                  0.013900625196823101
0.0045                    -0.0025                  0.01303345802429196
0.0045                    -0.0015                  0.011558278087868868
0.0045                    -5.0E-4                  0.009980695669740686
0.0045                    5.0E-4                   0.00863432187316911
0.0045                    0.0015                   0.007634253780448137
0.0045                    0.0025                   0.006957712403820509
0.0045                    0.0035                   0.006537780624330814
0.0045                    0.0045                   0.006309928943852486
0.0045                    0.0055                   0.006240621061903491
0.0045                    0.0065                   0.006331925713084402
0.0045                    0.0075                   0.006624383362607013
0.0045                    0.0085                   0.007199263220008902
0.0045                    0.0095                   0.008174828478569129
0.0045                    0.0105                   0.009682056500401843
0.0045                    0.0115                   0.011772903914359801
0.0045                    0.0125                   0.014251613049467076
0.0045                    0.0135                   0.016682441568224522
0.0045                    0.0145                   0.018497158636560786
0.0045                    0.0155                   0.019241061906478684
0.0045                    0.0165                   0.018993372350242788
0.0045                    0.0175                   0.01857224860111083
0.0045                    0.0185                   0.01923982903065017
0.0045                    0.0195                   0.02164440549272533
0.0045                    0.0205                   0.02453688070583734
0.0045                    0.0215                   0.025240972270947494
0.0045                    0.0225                   0.02106472121368213
0.0045                    0.0235                   0.011941170135878367
0.0045                    0.0245                   0.0038196385248680776
0.0045                    0.0255                   8.365388394229985E-4
0.0045                    0.0265                   3.40131159056336E-4
0.0045                    0.0275                   2.1953720790061936E-4
0.0045                    0.0285                   1.3017015859275813E-4
0.0045                    0.0295                   6.142246428880773E-5
0.0045                    0.0305                   3.0517845988173963E-5
0.0045                    0.0315                   1.2349754127212142E-5
0.0055                    -0.0315                  2.1117204457807535E-6
0.0055                    -0.0305                  4.027713302252115E-6
0.0055                    -0.0295                  4.362157607719768E-6
0.0055                    -0.0285                  4.901832516148914E-6
0.0055                    -0.0275                  5.120351166150608E-6
0.0055                    -0.0265                  5.149590623644818E-6
0.0055                    -0.0255                  5.0284384716298074E-6
0.0055                    -0.0245                  4.833222770597699E-6
0.0055                    -0.0235                  4.617184438351533E-6
0.0055                    -0.0225                  4.419442472059942E-6
0.0055                    -0.0215                  4.272391067976319E-6
0.0055                    -0.0205                  4.2161604902829835E-6
0.0055                    -0.0195                  4.316191671426544E-6
0.0055                    -0.0185                  4.688213425293171E-6
0.0055                    -0.0175                  5.5428346054517106E-6
0.0055                    -0.0165                  7.286935360326243E-6
0.0055                    -0.0155                  1.0818827095457506E-5
0.0055                    -0.0145                  1.851425582850205E-5
0.0055                    -0.0135                  3.673609508879777E-5
0.0055                    -0.0125                  8.336333240666486E-5
0.0055                    -0.0115                  2.013719841614763E-4
0.0055                    -0.0105                  4.897814453522078E-4
0.0055                    -0.0095                  0.0012133249285177735
0.0055                    -0.0085                  0.0030942912587001224
0.0055                    -0.0075                  0.006753689089555565
0.0055                    -0.0065                  0.011088755731455766
0.0055                    -0.0055                  0.013846694434978823
0.0055                    -0.0045                  0.014027200778793816
0.0055                    -0.0035                  0.012248136745487342
0.0055                    -0.0025                  0.009593993531535436
0.0055                    -0.0015                  0.00701230251669734
0.0055                    -5.0E-4                  0.0050579652537354625
0.0055                    5.0E-4                   0.00378859178469548
0.0055                    0.0015                   0.0030248540022242954
0.0055                    0.0025                   0.0025776181319560184
0.0055                    0.0035                   0.0023220039202965495
0.0055                    0.0045                   0.002187468745750176
0.0055                    0.0055                   0.002140187501303127
0.0055                    0.0065                   0.00217523086094797
0.0055                    0.0075                   0.002316316907701955
0.0055                    0.0085                   0.0026193057039189125
0.0055                    0.0095                   0.0031854825199457066
0.0055                    0.0105                   0.00417777413883657
0.0055                    0.0115                   0.00579044458665774
0.0055                    0.0125                   0.00814573601956594
0.0055                    0.0135                   0.011141870926850246
0.0055                    0.0145                   0.014324510932071557
0.0055                    0.0155                   0.016987535552947627
0.0055                    0.0165                   0.018605696936970003
0.0055                    0.0175                   0.019335077973256776
0.0055                    0.0185                   0.019981248264095308
0.0055                    0.0195                   0.02102953555277247
0.0055                    0.0205                   0.021483383747972446
0.0055                    0.0215                   0.019247401448939598
0.0055                    0.0225                   0.01307199714282016
0.0055                    0.0235                   0.005647332458841343
0.0055                    0.0245                   0.0015051948346557294
0.0055                    0.0255                   5.187975053045819E-4
0.0055                    0.0265                   2.747815740732785E-4
0.0055                    0.0275                   1.7656384378091411E-4
0.0055                    0.0285                   9.795279220199316E-5
0.0055                    0.0295                   4.864845977074578E-5
0.0055                    0.0305                   2.8070818493119466E-5
0.0055                    0.0315                   1.2728592948226856E-5
0.0065                    -0.0315                  2.1644789308196126E-6
0.0065                    -0.0305                  4.0997646597648825E-6
0.0065                    -0.0295                  4.424185691084616E-6
0.0065                    -0.0285                  5.016178596803346E-6
0.0065                    -0.0275                  5.317371841304513E-6
0.0065                    -0.0265                  5.4373641981216515E-6
0.0065                    -0.0255                  5.3897419982361176E-6
0.0065                    -0.0245                  5.2437102051174605E-6
0.0065                    -0.0235                  5.06569940054252E-6
0.0065                    -0.0225                  4.9213973733769285E-6
0.0065                    -0.0215                  4.88060713162411E-6
0.0065                    -0.0205                  5.0379121872302065E-6
0.0065                    -0.0195                  5.54463734785773E-6
0.0065                    -0.0185                  6.661762381581288E-6
0.0065                    -0.0175                  8.864710474629705E-6
0.0065                    -0.0165                  1.3104261133291448E-5
0.0065                    -0.0155                  2.1711422384787353E-5
0.0065                    -0.0145                  4.113476708187862E-5
0.0065                    -0.0135                  9.05124446330311E-5
0.0065                    -0.0125                  2.1087126097900824E-4
0.0065                    -0.0115                  4.835508446784445E-4
0.0065                    -0.0105                  0.001122296797369229
0.0065                    -0.0095                  0.002711342339727686
0.0065                    -0.0085                  0.0059658649381231195
0.0065                    -0.0075                  0.010361661454421248
0.0065                    -0.0065                  0.01378353459238022
0.0065                    -0.0055                  0.014457759242227844