% Model:              Benchmark260518.mph
% Version:            COMSOL 6.2.0.339
% Date:               May 20 2026, 12:05
% Dimension:          2
% Nodes:              4096
% Expressions:        1
% Description:        速度大小
% Length unit:        m
% x                       y                        spf.U (m/s)
5.0E-4                    -0.0315                  1.6069420789813417E-6
5.0E-4                    -0.0305                  3.1649138179115307E-6
5.0E-4                    -0.0295                  3.376629246952032E-6
5.0E-4                    -0.0285                  3.815077564447193E-6
5.0E-4                    -0.0275                  4.232925340745318E-6
5.0E-4                    -0.0265                  4.3892765084062645E-6
5.0E-4                    -0.0255                  4.403424885470172E-6
5.0E-4                    -0.0245                  4.586054618404963E-6
5.0E-4                    -0.0235                  4.921814017417459E-6
5.0E-4                    -0.0225                  5.149013743276174E-6
5.0E-4                    -0.0215                  5.185627166064433E-6
5.0E-4                    -0.0205                  5.234013690938214E-6
5.0E-4                    -0.0195                  5.311165254129168E-6
5.0E-4                    -0.0185                  5.3754511170493355E-6
5.0E-4                    -0.0175                  5.470722877510438E-6
5.0E-4                    -0.0165                  5.711999362393617E-6
5.0E-4                    -0.0155                  6.11500611884173E-6
5.0E-4                    -0.0145                  6.58392272692222E-6
5.0E-4                    -0.0135                  7.29341347878873E-6
5.0E-4                    -0.0125                  8.65829601910419E-6
5.0E-4                    -0.0115                  1.0798958330232386E-5
5.0E-4                    -0.0105                  1.2514060793158513E-5
5.0E-4                    -0.0095                  1.65893645487456E-5
5.0E-4                    -0.0085                  3.269246748577377E-5
5.0E-4                    -0.0075                  8.187171420132612E-5
5.0E-4                    -0.0065                  2.2637947052219705E-4
5.0E-4                    -0.0055                  4.7318044488005474E-4
5.0E-4                    -0.0045                  7.576648315191345E-4
5.0E-4                    -0.0035                  0.0012595227083601968
5.0E-4                    -0.0025                  0.0022919880439201817
5.0E-4                    -0.0015                  0.0037391877233568806
5.0E-4                    -5.0E-4                  0.0051811975628251895
5.0E-4                    5.0E-4                   0.0061898717850320546
5.0E-4                    0.0015                   0.006469066741890181
5.0E-4                    0.0025                   0.0059216656636543975
5.0E-4                    0.0035                   0.004693228437188161
5.0E-4                    0.0045                   0.0030869074024308637
5.0E-4                    0.0055                   0.0016802534134072013
5.0E-4                    0.0065                   0.00224666563836362
5.0E-4                    0.0075                   0.0035121815630894805
5.0E-4                    0.0085                   0.0036190184903473017
5.0E-4                    0.0095                   0.0027161225855701293
5.0E-4                    0.0105                   0.001844610128223244
5.0E-4                    0.0115                   0.0014619512779743805
5.0E-4                    0.0125                   0.0018709478772897302
5.0E-4                    0.0135                   0.003993697594680611
5.0E-4                    0.0145                   0.03451043148821895
5.0E-4                    0.0155                   0.05953437189985086
5.0E-4                    0.0165                   0.04789012133711803
5.0E-4                    0.0175                   0.018572633152433276
5.0E-4                    0.0185                   6.060293229649955E-4
5.0E-4                    0.0195                   5.300671309645641E-4
5.0E-4                    0.0205                   1.2198662914587747E-4
5.0E-4                    0.0215                   6.503869914740418E-5
5.0E-4                    0.0225                   3.640448110166898E-5
5.0E-4                    0.0235                   1.3216467596490443E-5
5.0E-4                    0.0245                   5.314208133350143E-6
5.0E-4                    0.0255                   2.673264973481901E-6
5.0E-4                    0.0265                   1.7637071889886613E-6
5.0E-4                    0.0275                   1.4537841117459159E-6
5.0E-4                    0.0285                   1.3501583060713248E-6
5.0E-4                    0.0295                   1.2996241429168028E-6
5.0E-4                    0.0305                   1.2688518082070116E-6
5.0E-4                    0.0315                   6.51479179884966E-7
0.0015                    -0.0315                  3.1527770962287248E-6
0.0015                    -0.0305                  6.224291545165797E-6
0.0015                    -0.0295                  6.577822657497584E-6
0.0015                    -0.0285                  7.090679228199939E-6
0.0015                    -0.0275                  7.450495953609487E-6
0.0015                    -0.0265                  7.55433923532631E-6
0.0015                    -0.0255                  7.530814956937408E-6
0.0015                    -0.0245                  7.707818218501541E-6
0.0015                    -0.0235                  8.05631204120365E-6
0.0015                    -0.0225                  8.293750481929929E-6
0.0015                    -0.0215                  8.330095799643774E-6
0.0015                    -0.0205                  8.362396665880956E-6
0.0015                    -0.0195                  8.422142716850556E-6
0.0015                    -0.0185                  8.47893900568451E-6
0.0015                    -0.0175                  8.591452634937484E-6
0.0015                    -0.0165                  8.88521162160002E-6
0.0015                    -0.0155                  9.384085187245355E-6
0.0015                    -0.0145                  1.0027197323518362E-5
0.0015                    -0.0135                  1.1059405554947335E-5
0.0015                    -0.0125                  1.3020483627681043E-5
0.0015                    -0.0115                  1.6244706217660708E-5
0.0015                    -0.0105                  2.0504543428525377E-5
0.0015                    -0.0095                  3.078461123629496E-5
0.0015                    -0.0085                  6.204016862320158E-5
0.0015                    -0.0075                  1.511520509203788E-4
0.0015                    -0.0065                  4.4418355887996424E-4
0.0015                    -0.0055                  0.0010709967801946715
0.0015                    -0.0045                  0.002367182310607241
0.0015                    -0.0035                  0.004894096979572025
0.0015                    -0.0025                  0.008430678842189489
0.0015                    -0.0015                  0.01206209603137355
0.0015                    -5.0E-4                  0.015027838796556905
0.0015                    5.0E-4                   0.016883341040380858
0.0015                    0.0015                   0.01746322286057756
0.0015                    0.0025                   0.016789833496251363
0.0015                    0.0035                   0.015023119929763197
0.0015                    0.0045                   0.012353488022882865
0.0015                    0.0055                   0.008845591270666022
0.0015                    0.0065                   0.004844724565443384
0.0015                    0.0075                   0.0034926853688731284
0.0015                    0.0085                   0.005492559942764829
0.0015                    0.0095                   0.0059244850504549815
0.0015                    0.0105                   0.005056441814285621
0.0015                    0.0115                   0.004116186609090157
0.0015                    0.0125                   0.003372858703976181
0.0015                    0.0135                   0.012065124753117199
0.0015                    0.0145                   0.04261337821064616
0.0015                    0.0155                   0.05830813607821944
0.0015                    0.0165                   0.04378207442756795
0.0015                    0.0175                   0.01628151871944445
0.0015                    0.0185                   8.579641511895081E-4
0.0015                    0.0195                   0.0011762784601099005
0.0015                    0.0205                   3.386243202646851E-4
0.0015                    0.0215                   1.2680324006530069E-4
0.0015                    0.0225                   6.170350303081179E-5
0.0015                    0.0235                   2.325576228974864E-5
0.0015                    0.0245                   9.735383508494483E-6
0.0015                    0.0255                   5.035748055925959E-6
0.0015                    0.0265                   3.380339664195095E-6
0.0015                    0.0275                   2.8281598489145037E-6
0.0015                    0.0285                   2.6806633301855457E-6
0.0015                    0.0295                   2.619977478487049E-6
0.0015                    0.0305                   2.537163170458992E-6
0.0015                    0.0315                   1.2940401667523817E-6
0.0025                    -0.0315                  3.306820733736154E-6
0.0025                    -0.0305                  6.4931291312945325E-6
0.0025                    -0.0295                  6.869570715688861E-6
0.0025                    -0.0285                  7.192934823569131E-6
0.0025                    -0.0275                  7.127478224061953E-6
0.0025                    -0.0265                  7.011736563846201E-6
0.0025                    -0.0255                  6.893553888909897E-6
0.0025                    -0.0245                  6.833768938900831E-6
0.0025                    -0.0235                  6.822474237515955E-6
0.0025                    -0.0225                  6.816206608399108E-6
0.0025                    -0.0215                  6.785940489123223E-6
0.0025                    -0.0205                  6.727187105519078E-6
0.0025                    -0.0195                  6.661996698212058E-6
0.0025                    -0.0185                  6.6159478124766405E-6
0.0025                    -0.0175                  6.625574882462338E-6
0.0025                    -0.0165                  6.7266671159776375E-6
0.0025                    -0.0155                  6.952540531470707E-6
0.0025                    -0.0145                  7.38043163706027E-6
0.0025                    -0.0135                  8.201437667250401E-6
0.0025                    -0.0125                  9.828336722455699E-6
0.0025                    -0.0115                  1.3168821742003444E-5
0.0025                    -0.0105                  2.0814876474403866E-5
0.0025                    -0.0095                  4.00552383220388E-5
0.0025                    -0.0085                  8.966520103325817E-5
0.0025                    -0.0075                  2.1985163215683734E-4
0.0025                    -0.0065                  6.838223009009938E-4
0.0025                    -0.0055                  0.002121118524573261
0.0025                    -0.0045                  0.005454128224422271
0.0025                    -0.0035                  0.010445896211328173
0.0025                    -0.0025                  0.015374576056466971
0.0025                    -0.0015                  0.019005661467185308
0.0025                    -5.0E-4                  0.021256778988061727
0.0025                    5.0E-4                   0.022504862752066767
0.0025                    0.0015                   0.02313794987257682
0.0025                    0.0025                   0.023399442834147032
0.0025                    0.0035                   0.023285112399431786
0.0025                    0.0045                   0.022503124445186748
0.0025                    0.0055                   0.020479862765323525
0.0025                    0.0065                   0.016503708782438585
0.0025                    0.0075                   0.010298395302136653
0.0025                    0.0085                   0.0034550917350585244
0.0025                    0.0095                   0.0027724320889430834
0.0025                    0.0105                   0.005019500756104913
0.0025                    0.0115                   0.004830726573887745
0.0025                    0.0125                   0.0038622393876387743
0.0025                    0.0135                   0.022168740919235992
0.0025                    0.0145                   0.04796999138648952
0.0025                    0.0155                   0.05567611912435921
0.0025                    0.0165                   0.03833635780191703
0.0025                    0.0175                   0.012704454784775469
0.0025                    0.0185                   3.7719173329747285E-4
0.0025                    0.0195                   0.0014127659055664437
0.0025                    0.0205                   4.534615359510058E-4
0.0025                    0.0215                   1.324251669898589E-4
0.0025                    0.0225                   5.023197248549264E-5
0.0025                    0.0235                   1.9927102236722835E-5
0.0025                    0.0245                   9.267542648958023E-6
0.0025                    0.0255                   5.23888632633593E-6
0.0025                    0.0265                   3.7211682917320265E-6
0.0025                    0.0275                   3.211785510319664E-6
0.0025                    0.0285                   3.0834260496682924E-6
0.0025                    0.0295                   2.9537318487954886E-6
0.0025                    0.0305                   2.7270496518734444E-6
0.0025                    0.0315                   1.3689448685144453E-6
0.0035                    -0.0315                  3.609746558472836E-6
0.0035                    -0.0305                  6.853464666731398E-6
0.0035                    -0.0295                  7.158106806003252E-6
0.0035                    -0.0285                  7.70618661536041E-6
0.0035                    -0.0275                  7.750741100648906E-6
0.0035                    -0.0265                  7.659838956842893E-6
0.0035                    -0.0255                  7.51566638695922E-6
0.0035                    -0.0245                  7.4058521961922506E-6
0.0035                    -0.0235                  7.350361404157477E-6
0.0035                    -0.0225                  7.3303923860816365E-6
0.0035                    -0.0215                  7.310889450898131E-6
0.0035                    -0.0205                  7.271821794998886E-6
0.0035                    -0.0195                  7.216475985141248E-6
0.0035                    -0.0185                  7.177720724278433E-6
0.0035                    -0.0175                  7.216175096750109E-6
0.0035                    -0.0165                  7.405530342531541E-6
0.0035                    -0.0155                  7.818743697492875E-6
0.0035                    -0.0145                  8.57895904635173E-6
0.0035                    -0.0135                  1.000299991864037E-5
0.0035                    -0.0125                  1.2892052586295396E-5
0.0035                    -0.0115                  1.914748045889082E-5
0.0035                    -0.0105                  3.422605622371063E-5
0.0035                    -0.0095                  7.448976787293705E-5
0.0035                    -0.0085                  2.051530663802881E-4
0.0035                    -0.0075                  5.47036328313418E-4
0.0035                    -0.0065                  0.001562924777633797
0.0035                    -0.0055                  0.0047586758913824466
0.0035                    -0.0045                  0.010492013337095735
0.0035                    -0.0035                  0.016299531722066902
0.0035                    -0.0025                  0.020078543213565975
0.0035                    -0.0015                  0.021861185187558963
0.0035                    -5.0E-4                  0.02252137236452515
0.0035                    5.0E-4                   0.022768554409024328
0.0035                    0.0015                   0.023116266598775276
0.0035                    0.0025                   0.023927779793112586
0.0035                    0.0035                   0.025280209375007
0.0035                    0.0045                   0.026766299196633318
0.0035                    0.0055                   0.027544894403589027
0.0035                    0.0065                   0.026589870579782893
0.0035                    0.0075                   0.022945041636223597
0.0035                    0.0085                   0.016544549450774097
0.0035                    0.0095                   0.009015085726256365
0.0035                    0.0105                   0.0033238675298157888
0.0035                    0.0115                   0.003457961319077275
0.0035                    0.0125                   0.012967134801328628
0.0035                    0.0135                   0.033067285824221214
0.0035                    0.0145                   0.050543960744996376
0.0035                    0.0155                   0.051318871399062126
0.0035                    0.0165                   0.03173125231234339
0.0035                    0.0175                   0.008624590179341711
0.0035                    0.0185                   7.286171230266285E-4
0.0035                    0.0195                   0.0014133239787104197
0.0035                    0.0205                   4.711919418199559E-4
0.0035                    0.0215                   1.3234597879912714E-4
0.0035                    0.0225                   4.3311218884475865E-5
0.0035                    0.0235                   1.8383218338194082E-5
0.0035                    0.0245                   9.732336453040192E-6
0.0035                    0.0255                   6.128903519370226E-6
0.0035                    0.0265                   4.626827226205306E-6
0.0035                    0.0275                   4.050883749813448E-6
0.0035                    0.0285                   3.7868204299046187E-6
0.0035                    0.0295                   3.4272159708068257E-6
0.0035                    0.0305                   2.9898754569525553E-6
0.0035                    0.0315                   1.4809945846459254E-6
0.0045                    -0.0315                  3.920769338824682E-6
0.0045                    -0.0305                  7.12697083464194E-6
0.0045                    -0.0295                  7.128175272924519E-6
0.0045                    -0.0285                  7.786604582860983E-6
0.0045                    -0.0275                  7.986561624720906E-6
0.0045                    -0.0265                  8.003415952569645E-6
0.0045                    -0.0255                  7.90025946486908E-6
0.0045                    -0.0245                  7.794630197379946E-6
0.0045                    -0.0235                  7.744218020324126E-6
0.0045                    -0.0225                  7.766389720715226E-6
0.0045                    -0.0215                  7.8388237764227E-6
0.0045                    -0.0205                  7.926061505627943E-6
0.0045                    -0.0195                  8.018158815710405E-6
0.0045                    -0.0185                  8.162814722883297E-6
0.0045                    -0.0175                  8.47942306544005E-6
0.0045                    -0.0165                  9.130690792757963E-6
0.0045                    -0.0155                  1.0271773279194067E-5
0.0045                    -0.0145                  1.2066198158813585E-5
0.0045                    -0.0135                  1.5020616118099668E-5
0.0045                    -0.0125                  2.0659031650936226E-5
0.0045                    -0.0115                  3.3216509349290286E-5
0.0045                    -0.0105                  6.485639879950932E-5
0.0045                    -0.0095                  1.646344847686566E-4
0.0045                    -0.0085                  4.8259289276018794E-4
0.0045                    -0.0075                  0.0012639577523072694
0.0045                    -0.0065                  0.0035797011352521366
0.0045                    -0.0055                  0.009079456566344745
0.0045                    -0.0045                  0.016085880270196803
0.0045                    -0.0035                  0.020682035390352304
0.0045                    -0.0025                  0.021994988027898166
0.0045                    -0.0015                  0.021321874739676342
0.0045                    -5.0E-4                  0.01975343737425575
0.0045                    5.0E-4                   0.018182754342789684
0.0045                    0.0015                   0.017439798103292336
0.0045                    0.0025                   0.018076046837416808
0.0045                    0.0035                   0.020254654033735074
0.0045                    0.0045                   0.023643518688586808
0.0045                    0.0055                   0.027337631127100595
0.0045                    0.0065                   0.03010905100008463
0.0045                    0.0075                   0.030720717023194326
0.0045                    0.0085                   0.028369700262305758
0.0045                    0.0095                   0.023451864281260757
0.0045                    0.0105                   0.018172521827506047
0.0045                    0.0115                   0.017105235422391528
0.0045                    0.0125                   0.02536168407343619
0.0045                    0.0135                   0.0396248345465993
0.0045                    0.0145                   0.048934943699808504
0.0045                    0.0155                   0.04494315463158944
0.0045                    0.0165                   0.024774917200500797
0.0045                    0.0175                   0.005088088596003107
0.0045                    0.0185                   0.001351565077334315
0.0045                    0.0195                   0.0014207851857419105
0.0045                    0.0205                   5.240508831455814E-4
0.0045                    0.0215                   1.453483370039526E-4
0.0045                    0.0225                   4.279176426308389E-5
0.0045                    0.0235                   1.9250842492540555E-5
0.0045                    0.0245                   1.0977237791817943E-5
0.0045                    0.0255                   7.315423345172194E-6
0.0045                    0.0265                   5.634645588956071E-6
0.0045                    0.0275                   4.87006210632331E-6
0.0045                    0.0285                   4.39824945684202E-6
0.0045                    0.0295                   3.818336296867355E-6
0.0045                    0.0305                   3.222015511826619E-6
0.0045                    0.0315                   1.5837421569092602E-6
0.0055                    -0.0315                  4.244698221744736E-6
0.0055                    -0.0305                  7.455504106838031E-6
0.0055                    -0.0295                  7.115574576766992E-6
0.0055                    -0.0285                  7.78015397605178E-6
0.0055                    -0.0275                  8.092586563239213E-6
0.0055                    -0.0265                  8.242198031871292E-6
0.0055                    -0.0255                  8.223733974699392E-6
0.0055                    -0.0245                  8.162461675838336E-6
0.0055                    -0.0235                  8.159685943764525E-6
0.0055                    -0.0225                  8.286891863964701E-6
0.0055                    -0.0215                  8.565309117096119E-6
0.0055                    -0.0205                  8.979111238966226E-6
0.0055                    -0.0195                  9.526311204734937E-6
0.0055                    -0.0185                  1.0306918482018802E-5
0.0055                    -0.0175                  1.159452326370755E-5
0.0055                    -0.0165                  1.385802997879779E-5
0.0055                    -0.0155                  1.7475458453739494E-5
0.0055                    -0.0145                  2.2538384806711452E-5
0.0055                    -0.0135                  2.9550095830285042E-5
0.0055                    -0.0125                  4.169997810883908E-5
0.0055                    -0.0115                  6.879140455814829E-5
0.0055                    -0.0105                  1.480540267762736E-4
0.0055                    -0.0095                  3.866493128855732E-4
0.0055                    -0.0085                  0.001005082618734475
0.0055                    -0.0075                  0.0026597060698330547
0.0055                    -0.0065                  0.007034922175573034
0.0055                    -0.0055                  0.014299773745145614
0.0055                    -0.0045                  0.020673477973196547
0.0055                    -0.0035                  0.022837074356123508
0.0055                    -0.0025                  0.021298069740827843
0.0055                    -0.0015                  0.01775482844925976
0.0055                    -5.0E-4                  0.013664766232500796
0.0055                    5.0E-4                   0.010405395095275497
0.0055                    0.0015                   0.008754375875865332
0.0055                    0.0025                   0.008867012000344045
0.0055                    0.0035                   0.010728043593579885
0.0055                    0.0045                   0.014374735104603211
0.0055                    0.0055                   0.01952314715139019
0.0055                    0.0065                   0.025256600081985547
0.0055                    0.0075                   0.030094892096807963
0.0055                    0.0085                   0.0325746606625292
0.0055                    0.0095                   0.03204065486058982
0.0055                    0.0105                   0.02944563937867347
0.0055                    0.0115                   0.02809501464476261
0.0055                    0.0125                   0.03187635942067377
0.0055                    0.0135                   0.039203784331985854
0.0055                    0.0145                   0.04297157953599333
0.0055                    0.0155                   0.03678329328841904
0.0055                    0.0165                   0.018855552434649914
0.0055                    0.0175                   0.0031164621015459344
0.0055                    0.0185                   0.0022671905303107724
0.0055                    0.0195                   0.0019152722243394426
0.0055                    0.0205                   7.714550376233448E-4
0.0055                    0.0215                   2.0535756594882562E-4
0.0055                    0.0225                   6.079781853355621E-5
0.0055                    0.0235                   2.57227565484973E-5
0.0055                    0.0245                   1.457692000779203E-5
0.0055                    0.0255                   9.52698400595204E-6
0.0055                    0.0265                   7.0156917983573654E-6
0.0055                    0.0275                   5.790863417223337E-6
0.0055                    0.0285                   5.0316868373427655E-6
0.0055                    0.0295                   4.237279162547195E-6
0.0055                    0.0305                   3.4899419365305936E-6
0.0055                    0.0315                   1.6979621916220786E-6
0.0065                    -0.0315                  4.6834575963675454E-6
0.0065                    -0.0305                  7.935527193338847E-6
0.0065                    -0.0295                  7.1356196907631775E-6
0.0065                    -0.0285                  7.730444196792322E-6
0.0065                    -0.0275                  8.094626664693362E-6
0.0065                    -0.0265                  8.359700697678722E-6
0.0065                    -0.0255                  8.444004148898165E-6
0.0065                    -0.0245                  8.452646782107177E-6
0.0065                    -0.0235                  8.527335815286623E-6
0.0065                    -0.0225                  8.83129758858414E-6
0.0065                    -0.0215                  9.497434751402825E-6
0.0065                    -0.0205                  1.0612594852578686E-5
0.0065                    -0.0195                  1.2271253191225791E-5
0.0065                    -0.0185                  1.4759741117331484E-5
0.0065                    -0.0175                  1.884729969390712E-5
0.0065                    -0.0165                  2.5893774782197012E-5
0.0065                    -0.0155                  3.8305445929291926E-5
0.0065                    -0.0145                  5.650793072933992E-5
0.0065                    -0.0135                  7.59342934123102E-5
0.0065                    -0.0125                  1.0192780473361106E-4
0.0065                    -0.0115                  1.7671056001517449E-4
0.0065                    -0.0105                  3.7473383672419777E-4
0.0065                    -0.0095                  8.39353358513744E-4
0.0065                    -0.0085                  0.0020314784514376275
0.0065                    -0.0075                  0.005300934163689025
0.0065                    -0.0065                  0.01172030469967504
0.0065                    -0.0055                  0.01911984421799841