% Model:              Benchmark260518.mph
% Version:            COMSOL 6.2.0.339
% Date:               May 20 2026, 15:17
% Dimension:          2
% Nodes:              4096
% Expressions:        1
% Description:        速度大小
% Length unit:        m
% x                       y                        spf.U (m/s)
5.0E-4                    -0.0315                  1.1251176897897192E-6
5.0E-4                    -0.0305                  2.241284863662702E-6
5.0E-4                    -0.0295                  2.482706862223989E-6
5.0E-4                    -0.0285                  2.750774118681425E-6
5.0E-4                    -0.0275                  2.880916153109404E-6
5.0E-4                    -0.0265                  2.9956103708941927E-6
5.0E-4                    -0.0255                  3.0821604335787317E-6
5.0E-4                    -0.0245                  3.1600523533599893E-6
5.0E-4                    -0.0235                  3.230929774593174E-6
5.0E-4                    -0.0225                  3.2958225876495304E-6
5.0E-4                    -0.0215                  3.365752877476191E-6
5.0E-4                    -0.0205                  3.427971545535544E-6
5.0E-4                    -0.0195                  3.4955114681736645E-6
5.0E-4                    -0.0185                  3.5691097666923045E-6
5.0E-4                    -0.0175                  3.6464975005902854E-6
5.0E-4                    -0.0165                  3.7390569305512145E-6
5.0E-4                    -0.0155                  3.837724838447531E-6
5.0E-4                    -0.0145                  3.962612261415787E-6
5.0E-4                    -0.0135                  4.119603509249227E-6
5.0E-4                    -0.0125                  4.319512289630786E-6
5.0E-4                    -0.0115                  4.608358338265341E-6
5.0E-4                    -0.0105                  5.012384933979932E-6
5.0E-4                    -0.0095                  5.612388344987118E-6
5.0E-4                    -0.0085                  6.5445660382864986E-6
5.0E-4                    -0.0075                  8.045256898407759E-6
5.0E-4                    -0.0065                  1.0524863596072135E-5
5.0E-4                    -0.0055                  1.7049986812334835E-5
5.0E-4                    -0.0045                  3.732363559477045E-5
5.0E-4                    -0.0035                  9.800776112792739E-5
5.0E-4                    -0.0025                  2.8103469125085034E-4
5.0E-4                    -0.0015                  6.259762854660791E-4
5.0E-4                    -5.0E-4                  0.001144536835856396
5.0E-4                    5.0E-4                   0.0020056407694609315
5.0E-4                    0.0015                   0.0031471583630035944
5.0E-4                    0.0025                   0.0041029451460911715
5.0E-4                    0.0035                   0.004410585455898979
5.0E-4                    0.0045                   0.0038962653533102624
5.0E-4                    0.0055                   0.0028009017487542
5.0E-4                    0.0065                   0.001807084132948747
5.0E-4                    0.0075                   0.002403683028774306
5.0E-4                    0.0085                   0.0039430257652490145
5.0E-4                    0.0095                   0.0046072853804532765
5.0E-4                    0.0105                   0.0041125909632663046
5.0E-4                    0.0115                   0.003012933733619186
5.0E-4                    0.0125                   0.0022528986045057906
5.0E-4                    0.0135                   0.004201839713199696
5.0E-4                    0.0145                   0.031999623469313024
5.0E-4                    0.0155                   0.05407813917621106
5.0E-4                    0.0165                   0.0428261995625911
5.0E-4                    0.0175                   0.01640352271671762
5.0E-4                    0.0185                   3.4900481756740595E-4
5.0E-4                    0.0195                   3.3733496319276253E-4
5.0E-4                    0.0205                   1.1409529399893145E-4
5.0E-4                    0.0215                   7.837732889863046E-5
5.0E-4                    0.0225                   3.442548988402664E-5
5.0E-4                    0.0235                   1.349455638550278E-5
5.0E-4                    0.0245                   6.012067986964958E-6
5.0E-4                    0.0255                   3.5645473392040666E-6
5.0E-4                    0.0265                   2.771702186921034E-6
5.0E-4                    0.0275                   2.4902330083463943E-6
5.0E-4                    0.0285                   2.3578849984551162E-6
5.0E-4                    0.0295                   2.222799266905798E-6
5.0E-4                    0.0305                   2.1095927790446342E-6
5.0E-4                    0.0315                   1.0692270763187375E-6
0.0015                    -0.0315                  2.1890799066686784E-6
0.0015                    -0.0305                  4.301788043271576E-6
0.0015                    -0.0295                  4.568226575097191E-6
0.0015                    -0.0285                  4.853584678305811E-6
0.0015                    -0.0275                  4.934178332486096E-6
0.0015                    -0.0265                  5.012064026285152E-6
0.0015                    -0.0255                  5.074663676688527E-6
0.0015                    -0.0245                  5.1427738037041665E-6
0.0015                    -0.0235                  5.2168968050925495E-6
0.0015                    -0.0225                  5.297644530400476E-6
0.0015                    -0.0215                  5.393579578273922E-6
0.0015                    -0.0205                  5.492945299048505E-6
0.0015                    -0.0195                  5.607368525493723E-6
0.0015                    -0.0185                  5.738660760554956E-6
0.0015                    -0.0175                  5.886436103940345E-6
0.0015                    -0.0165                  6.0627366190179075E-6
0.0015                    -0.0155                  6.263559411043338E-6
0.0015                    -0.0145                  6.5129503757717845E-6
0.0015                    -0.0135                  6.827213605121085E-6
0.0015                    -0.0125                  7.2369008613909885E-6
0.0015                    -0.0115                  7.819562376275208E-6
0.0015                    -0.0105                  8.660749117293555E-6
0.0015                    -0.0095                  9.93951891164031E-6
0.0015                    -0.0085                  1.1986836463034566E-5
0.0015                    -0.0075                  1.5419417708609488E-5
0.0015                    -0.0065                  2.167026513817157E-5
0.0015                    -0.0055                  3.6549939978850485E-5
0.0015                    -0.0045                  7.705899415373838E-5
0.0015                    -0.0035                  1.919596725359146E-4
0.0015                    -0.0025                  5.723879968149895E-4
0.0015                    -0.0015                  0.0014579461756097558
0.0015                    -5.0E-4                  0.003330320734539995
0.0015                    5.0E-4                   0.006306879490209459
0.0015                    0.0015                   0.009430225895773884
0.0015                    0.0025                   0.0116601613433224
0.0015                    0.0035                   0.012548452492950049
0.0015                    0.0045                   0.012115196486055423
0.0015                    0.0055                   0.010624595230601623
0.0015                    0.0065                   0.008311383250361515
0.0015                    0.0075                   0.005447479932867798
0.0015                    0.0085                   0.004417551868289265
0.0015                    0.0095                   0.006345667581422434
0.0015                    0.0105                   0.007155974310706265
0.0015                    0.0115                   0.006151483115003835
0.0015                    0.0125                   0.00398421634558828
0.0015                    0.0135                   0.012762203327945821
0.0015                    0.0145                   0.039893577048967926
0.0015                    0.0155                   0.05263787796576656
0.0015                    0.0165                   0.03844877298638053
0.0015                    0.0175                   0.013865086888985698
0.0015                    0.0185                   3.751845019647585E-4
0.0015                    0.0195                   7.515789687796186E-4
0.0015                    0.0205                   2.269361522568926E-4
0.0015                    0.0215                   1.275636145609363E-4
0.0015                    0.0225                   5.697283596658772E-5
0.0015                    0.0235                   2.333838969577374E-5
0.0015                    0.0245                   1.0749582177582816E-5
0.0015                    0.0255                   6.4761942419628195E-6
0.0015                    0.0265                   5.075158096315492E-6
0.0015                    0.0275                   4.63701619929064E-6
0.0015                    0.0285                   4.513693921655772E-6
0.0015                    0.0295                   4.362304135787055E-6
0.0015                    0.0305                   4.16104881801492E-6
0.0015                    0.0315                   2.105361033694991E-6
0.0025                    -0.0315                  2.3177584683790343E-6
0.0025                    -0.0305                  4.385904396152545E-6
0.0025                    -0.0295                  4.417156857832963E-6
0.0025                    -0.0285                  4.564002347536849E-6
0.0025                    -0.0275                  4.49800159589947E-6
0.0025                    -0.0265                  4.4263719569770805E-6
0.0025                    -0.0255                  4.363995293605762E-6
0.0025                    -0.0245                  4.330053294756503E-6
0.0025                    -0.0235                  4.326622557760553E-6
0.0025                    -0.0225                  4.354825072908929E-6
0.0025                    -0.0215                  4.412364291411429E-6
0.0025                    -0.0205                  4.498861139193517E-6
0.0025                    -0.0195                  4.61258384414097E-6
0.0025                    -0.0185                  4.754847189525835E-6
0.0025                    -0.0175                  4.928691326353679E-6
0.0025                    -0.0165                  5.138367417917339E-6
0.0025                    -0.0155                  5.3937474985025995E-6
0.0025                    -0.0145                  5.708741063157406E-6
0.0025                    -0.0135                  6.111741295218611E-6
0.0025                    -0.0125                  6.657588097886119E-6
0.0025                    -0.0115                  7.448754898030175E-6
0.0025                    -0.0105                  8.677643193061237E-6
0.0025                    -0.0095                  1.0682738058364428E-5
0.0025                    -0.0085                  1.4093043220330344E-5
0.0025                    -0.0075                  2.0274332276357958E-5
0.0025                    -0.0065                  3.223566323674224E-5
0.0025                    -0.0055                  5.690101462964208E-5
0.0025                    -0.0045                  1.1575037996645893E-4
0.0025                    -0.0035                  2.737103476032397E-4
0.0025                    -0.0025                  8.500504192110966E-4
0.0025                    -0.0015                  0.0027412658297592584
0.0025                    -5.0E-4                  0.006621108353386618
0.0025                    5.0E-4                   0.011193461001806326
0.0025                    0.0015                   0.014623242834019818
0.0025                    0.0025                   0.016582900836507965
0.0025                    0.0035                   0.01764947757910584
0.0025                    0.0045                   0.018314818004141514
0.0025                    0.0055                   0.018589985808683276
0.0025                    0.0065                   0.017920735240152284
0.0025                    0.0075                   0.015380757568762352
0.0025                    0.0085                   0.010252338109765247
0.0025                    0.0095                   0.003652383755983968
0.0025                    0.0105                   0.0021811550063297884
0.0025                    0.0115                   0.0041257152244601695
0.0025                    0.0125                   0.006010297207354919
0.0025                    0.0135                   0.023018696022627374
0.0025                    0.0145                   0.04476235944356075
0.0025                    0.0155                   0.049676045526346656
0.0025                    0.0165                   0.03261266036012818
0.0025                    0.0175                   0.010083558592285132
0.0025                    0.0185                   2.699994225571271E-4
0.0025                    0.0195                   7.984581075265501E-4
0.0025                    0.0205                   2.181824102439679E-4
0.0025                    0.0215                   9.105815179454015E-5
0.0025                    0.0225                   4.14720989278564E-5
0.0025                    0.0235                   1.9174835038221668E-5
0.0025                    0.0245                   9.8601470970067E-6
0.0025                    0.0255                   6.36386259619253E-6
0.0025                    0.0265                   5.178381543556967E-6
0.0025                    0.0275                   4.868609596833585E-6
0.0025                    0.0285                   4.844858726308212E-6
0.0025                    0.0295                   4.660575045127383E-6
0.0025                    0.0305                   4.338096466185471E-6
0.0025                    0.0315                   2.1845514605710543E-6
0.0035                    -0.0315                  2.5252496134987553E-6
0.0035                    -0.0305                  4.579847348791529E-6
0.0035                    -0.0295                  4.490796945375878E-6
0.0035                    -0.0285                  4.770146956085001E-6
0.0035                    -0.0275                  4.780599278542516E-6
0.0035                    -0.0265                  4.735859108778136E-6
0.0035                    -0.0255                  4.6640292281659095E-6
0.0035                    -0.0245                  4.609131689878901E-6
0.0035                    -0.0235                  4.584167188601373E-6
0.0035                    -0.0225                  4.596364390231168E-6
0.0035                    -0.0215                  4.647458866659449E-6
0.0035                    -0.0205                  4.736540667450472E-6
0.0035                    -0.0195                  4.8622643917863084E-6
0.0035                    -0.0185                  5.024475042638731E-6
0.0035                    -0.0175                  5.226269449476311E-6
0.0035                    -0.0165                  5.47599911529218E-6
0.0035                    -0.0155                  5.789383604118115E-6
0.0035                    -0.0145                  6.195272699034842E-6
0.0035                    -0.0135                  6.7476730660363E-6
0.0035                    -0.0125                  7.552830122352172E-6
0.0035                    -0.0115                  8.82613686186506E-6
0.0035                    -0.0105                  1.098906678408489E-5
0.0035                    -0.0095                  1.4853009877954937E-5
0.0035                    -0.0085                  2.187223930806607E-5
0.0035                    -0.0075                  3.481565430310738E-5
0.0035                    -0.0065                  6.148147635523957E-5
0.0035                    -0.0055                  1.1749622786317416E-4
0.0035                    -0.0045                  2.3665186825600878E-4
0.0035                    -0.0035                  5.953000848668178E-4
0.0035                    -0.0025                  0.0018192051616280748
0.0035                    -0.0015                  0.005572496080831694
0.0035                    -5.0E-4                  0.011372510546221886
0.0035                    5.0E-4                   0.015739207334397005
0.0035                    0.0015                   0.01746578023770574
0.0035                    0.0025                   0.01788768712182858
0.0035                    0.0035                   0.018330484066862954
0.0035                    0.0045                   0.01948675095711191
0.0035                    0.0055                   0.021396152587690287
0.0035                    0.0065                   0.023225143249309247
0.0035                    0.0075                   0.023508110170166616
0.0035                    0.0085                   0.02074822892235175
0.0035                    0.0095                   0.014678638472592015
0.0035                    0.0105                   0.007941921733830088
0.0035                    0.0115                   0.0065663304805510985
0.0035                    0.0125                   0.015567652245057701
0.0035                    0.0135                   0.03309372493868307
0.0035                    0.0145                   0.046800392413765254
0.0035                    0.0155                   0.04491436720506426
0.0035                    0.0165                   0.02560230971970571
0.0035                    0.0175                   0.006047126608368574
0.0035                    0.0185                   4.675001658024639E-4
0.0035                    0.0195                   6.106914497421006E-4
0.0035                    0.0205                   1.7636998115430424E-4
0.0035                    0.0215                   7.084794016399162E-5
0.0035                    0.0225                   3.326511054993339E-5
0.0035                    0.0235                   1.7280103598520578E-5
0.0035                    0.0245                   1.0084405411383411E-5
0.0035                    0.0255                   7.123515341969366E-6
0.0035                    0.0265                   6.0629476070680875E-6
0.0035                    0.0275                   5.726775986567757E-6
0.0035                    0.0285                   5.550617405557203E-6
0.0035                    0.0295                   5.084934522232269E-6
0.0035                    0.0305                   4.560753751638576E-6
0.0035                    0.0315                   2.2993709943672468E-6
0.0045                    -0.0315                  2.6613501968657323E-6
0.0045                    -0.0305                  4.656664509909673E-6
0.0045                    -0.0295                  4.390813524444514E-6
0.0045                    -0.0285                  4.7382018984058115E-6
0.0045                    -0.0275                  4.854400427850486E-6
0.0045                    -0.0265                  4.889012104210224E-6
0.0045                    -0.0255                  4.853643335676334E-6
0.0045                    -0.0245                  4.807281413666819E-6
0.0045                    -0.0235                  4.778161662317466E-6
0.0045                    -0.0225                  4.784376096139691E-6
0.0045                    -0.0215                  4.834058740104411E-6
0.0045                    -0.0205                  4.9297610232674485E-6
0.0045                    -0.0195                  5.0708066354031735E-6
0.0045                    -0.0185                  5.2570276081874476E-6
0.0045                    -0.0175                  5.493409473006687E-6
0.0045                    -0.0165                  5.795830547733145E-6
0.0045                    -0.0155                  6.198983211984027E-6
0.0045                    -0.0145                  6.7691259467974205E-6
0.0045                    -0.0135                  7.62927778041277E-6
0.0045                    -0.0125                  9.011044574321999E-6
0.0045                    -0.0115                  1.1361703055677061E-5
0.0045                    -0.0105                  1.5607113399620614E-5
0.0045                    -0.0095                  2.3577149079695723E-5
0.0045                    -0.0085                  3.909967234351559E-5
0.0045                    -0.0075                  6.971433719100318E-5
0.0045                    -0.0065                  1.3076410663977756E-4
0.0045                    -0.0055                  2.9338518653208065E-4
0.0045                    -0.0045                  6.42490498780428E-4
0.0045                    -0.0035                  0.0014879107080084037
0.0045                    -0.0025                  0.004171499341118035
0.0045                    -0.0015                  0.010026346197897114
0.0045                    -5.0E-4                  0.016240617696583165
0.0045                    5.0E-4                   0.018698145154869075
0.0045                    0.0015                   0.017745722597716836
0.0045                    0.0025                   0.015746383703862946
0.0045                    0.0035                   0.014492967891526628
0.0045                    0.0045                   0.01509524401032625
0.0045                    0.0055                   0.017802831357432335
0.0045                    0.0065                   0.021889029118883845
0.0045                    0.0075                   0.025649197370761857
0.0045                    0.0085                   0.02693143196925426
0.0045                    0.0095                   0.024328841908399124
0.0045                    0.0105                   0.01927070997654013
0.0045                    0.0115                   0.01772207093874869
0.0045                    0.0125                   0.025862930535559384
0.0045                    0.0135                   0.038452363809721515
0.0045                    0.0145                   0.045029553449272314
0.0045                    0.0155                   0.038150874474004885
0.0045                    0.0165                   0.01819447433420385
0.0045                    0.0175                   0.002705635993390646
0.0045                    0.0185                   4.695788457112157E-4
0.0045                    0.0195                   3.807436698193391E-4
0.0045                    0.0205                   1.244850419753473E-4
0.0045                    0.0215                   5.160003003636107E-5
0.0045                    0.0225                   2.6499513696016163E-5
0.0045                    0.0235                   1.5234599552372408E-5
0.0045                    0.0245                   9.90637206874306E-6
0.0045                    0.0255                   7.601631474206795E-6
0.0045                    0.0265                   6.727357139875322E-6
0.0045                    0.0275                   6.353625220840126E-6
0.0045                    0.0285                   6.0019870020889846E-6
0.0045                    0.0295                   5.324239564733464E-6
0.0045                    0.0305                   4.706783578074035E-6
0.0045                    0.0315                   2.3894294283239066E-6
0.0055                    -0.0315                  2.793258381050256E-6
0.0055                    -0.0305                  4.749300573909085E-6
0.0055                    -0.0295                  4.297939031837832E-6
0.0055                    -0.0285                  4.65962358245256E-6
0.0055                    -0.0275                  4.849267101166655E-6
0.0055                    -0.0265                  4.972899405200143E-6
0.0055                    -0.0255                  5.001192058927887E-6
0.0055                    -0.0245                  4.988181035544444E-6
0.0055                    -0.0235                  4.970893815591044E-6
0.0055                    -0.0225                  4.979102955783824E-6
0.0055                    -0.0215                  5.030625799458473E-6
0.0055                    -0.0205                  5.134765348598642E-6
0.0055                    -0.0195                  5.295021016356846E-6
0.0055                    -0.0185                  5.514523889713294E-6
0.0055                    -0.0175                  5.804913995805794E-6
0.0055                    -0.0165                  6.200476511119784E-6
0.0055                    -0.0155                  6.779427592171845E-6
0.0055                    -0.0145                  7.698057510858958E-6
0.0055                    -0.0135                  9.244564703240478E-6
0.0055                    -0.0125                  1.1936892370627713E-5
0.0055                    -0.0115                  1.6732319053707392E-5
0.0055                    -0.0105                  2.545548709594662E-5
0.0055                    -0.0095                  4.278317872191108E-5
0.0055                    -0.0085                  7.925353371621309E-5
0.0055                    -0.0075                  1.624229031878824E-4
0.0055                    -0.0065                  3.3767624776930255E-4
0.0055                    -0.0055                  7.482236472459587E-4
0.0055                    -0.0045                  0.0015993639964349798
0.0055                    -0.0035                  0.003657824175951627
0.0055                    -0.0025                  0.008478589555668653
0.0055                    -0.0015                  0.01530325457792161
0.0055                    -5.0E-4                  0.01974166355476674
0.0055                    5.0E-4                   0.019178648576642362
0.0055                    0.0015                   0.015284908219675195
0.0055                    0.0025                   0.010891193044261492
0.0055                    0.0035                   0.008055211628994806
0.0055                    0.0045                   0.007656071735914222
0.0055                    0.0055                   0.009721364553137352
0.0055                    0.0065                   0.014118053331211963
0.0055                    0.0075                   0.020102308756571218
0.0055                    0.0085                   0.02551439887262207
0.0055                    0.0095                   0.027547362881361375
0.0055                    0.0105                   0.02566914249185594
0.0055                    0.0115                   0.02449176696934253
0.0055                    0.0125                   0.029857536926958413
0.0055                    0.0135                   0.03773240449838907
0.0055                    0.0145                   0.03986073697375721
0.0055                    0.0155                   0.029992401072371323
0.0055                    0.0165                   0.011597555771785149
0.0055                    0.0175                   7.670301355824377E-4
0.0055                    0.0185                   5.881571921616163E-4
0.0055                    0.0195                   2.5959254752476425E-4
0.0055                    0.0205                   9.2077777001021E-5
0.0055                    0.0215                   4.122505779314381E-5
0.0055                    0.0225                   2.325846225082886E-5
0.0055                    0.0235                   1.4323633092754493E-5
0.0055                    0.0245                   9.969367519901618E-6
0.0055                    0.0255                   8.087509087058334E-6
0.0055                    0.0265                   7.3361980699227795E-6
0.0055                    0.0275                   6.9116330853228446E-6
0.0055                    0.0285                   6.421155088898554E-6
0.0055                    0.0295                   5.596832806172755E-6
0.0055                    0.0305                   4.901402912708001E-6
0.0055                    0.0315                   2.4918022594730093E-6
0.0065                    -0.0315                  2.9067478789206993E-6
0.0065                    -0.0305                  4.8336242120034025E-6
0.0065                    -0.0295                  4.208102543753746E-6
0.0065                    -0.0285                  4.548235490060981E-6
0.0065                    -0.0275                  4.767681586842198E-6
0.0065                    -0.0265                  4.954973609972886E-6
0.0065                    -0.0255                  5.045324514347234E-6
0.0065                    -0.0245                  5.074838706759369E-6
0.0065                    -0.0235                  5.078016725732161E-6
0.0065                    -0.0225                  5.09226840680174E-6
0.0065                    -0.0215                  5.146439184789314E-6
0.0065                    -0.0205                  5.261152747375221E-6
0.0065                    -0.0195                  5.4505645518238545E-6
0.0065                    -0.0185                  5.72955297337213E-6
0.0065                    -0.0175                  6.1292849071387155E-6
0.0065                    -0.0165                  6.7258156334884935E-6
0.0065                    -0.0155                  7.691675321836985E-6
0.0065                    -0.0145                  9.376711569061831E-6
0.0065                    -0.0135                  1.244926770403966E-5
0.0065                    -0.0125                  1.81029521816963E-5
0.0065                    -0.0115                  2.851949210175543E-5
0.0065                    -0.0105                  4.851244128221348E-5
0.0065                    -0.0095                  8.891763854112682E-5
0.0065                    -0.0085                  1.9294215585898925E-4
0.0065                    -0.0075                  4.282605634593939E-4
0.0065                    -0.0065                  8.9080391987955E-4
0.0065                    -0.0055                  0.0018369111647104151