% Model:              Benchmark260518.mph
% Version:            COMSOL 6.2.0.339
% Date:               May 20 2026, 16:16
% Dimension:          2
% Nodes:              4096
% Expressions:        1
% Description:        速度大小
% Length unit:        m
% x                       y                        spf.U (m/s)
5.0E-4                    -0.0315                  1.8003852768403163E-6
5.0E-4                    -0.0305                  3.594688259725485E-6
5.0E-4                    -0.0295                  3.922538767328492E-6
5.0E-4                    -0.0285                  4.376766035626688E-6
5.0E-4                    -0.0275                  4.720951184505692E-6
5.0E-4                    -0.0265                  4.984139119741887E-6
5.0E-4                    -0.0255                  5.1986013987372124E-6
5.0E-4                    -0.0245                  5.4301522012708285E-6
5.0E-4                    -0.0235                  5.693814691310822E-6
5.0E-4                    -0.0225                  6.011722741457478E-6
5.0E-4                    -0.0215                  6.562936551953847E-6
5.0E-4                    -0.0205                  8.723139325292701E-6
5.0E-4                    -0.0195                  1.5920527258548386E-5
5.0E-4                    -0.0185                  3.6773286079224554E-5
5.0E-4                    -0.0175                  9.289426656654309E-5
5.0E-4                    -0.0165                  1.8597321710984245E-4
5.0E-4                    -0.0155                  2.8422267562638724E-4
5.0E-4                    -0.0145                  3.651885725498837E-4
5.0E-4                    -0.0135                  5.245018893563296E-4
5.0E-4                    -0.0125                  0.0010472776183487126
5.0E-4                    -0.0115                  0.002057663403361292
5.0E-4                    -0.0105                  0.0034091284384815956
5.0E-4                    -0.0095                  0.004821359837859202
5.0E-4                    -0.0085                  0.005994217681076473
5.0E-4                    -0.0075                  0.006684556719760591
5.0E-4                    -0.0065                  0.0067544214305155625
5.0E-4                    -0.0055                  0.006189192848403391
5.0E-4                    -0.0045                  0.005085169275014196
5.0E-4                    -0.0035                  0.0036248439713694592
5.0E-4                    -0.0025                  0.002053714679360071
5.0E-4                    -0.0015                  9.944494804210824E-4
5.0E-4                    -5.0E-4                  0.0016771475887505894
5.0E-4                    5.0E-4                   0.002307521654926416
5.0E-4                    0.0015                   0.0022113910095269335
5.0E-4                    0.0025                   0.001666182992955745
5.0E-4                    0.0035                   0.0011666256970863794
5.0E-4                    0.0045                   8.270460924931932E-4
5.0E-4                    0.0055                   5.080354796735887E-4
5.0E-4                    0.0065                   2.752829209047574E-4
5.0E-4                    0.0075                   1.7765807756956899E-4
5.0E-4                    0.0085                   2.0528270108321854E-4
5.0E-4                    0.0095                   4.4317796858802045E-4
5.0E-4                    0.0105                   9.438643123023507E-4
5.0E-4                    0.0115                   0.0013981104195172544
5.0E-4                    0.0125                   0.0017465268197053162
5.0E-4                    0.0135                   0.0030195413181075595
5.0E-4                    0.0145                   0.10464445797482481
5.0E-4                    0.0155                   0.2306093843532858
5.0E-4                    0.0165                   0.22402787134614657
5.0E-4                    0.0175                   0.0968416221163161
5.0E-4                    0.0185                   0.001591352059043446
5.0E-4                    0.0195                   0.0010475965418303313
5.0E-4                    0.0205                   4.269956768511387E-4
5.0E-4                    0.0215                   2.7061267111668435E-4
5.0E-4                    0.0225                   1.3545138131181679E-4
5.0E-4                    0.0235                   4.7704966855591536E-5
5.0E-4                    0.0245                   1.9287535561798814E-5
5.0E-4                    0.0255                   9.668629803127122E-6
5.0E-4                    0.0265                   6.282698340448156E-6
5.0E-4                    0.0275                   5.1353003293993096E-6
5.0E-4                    0.0285                   4.728034480255932E-6
5.0E-4                    0.0295                   4.485714125377397E-6
5.0E-4                    0.0305                   4.3614840499233E-6
5.0E-4                    0.0315                   2.2349367949777562E-6
0.0015                    -0.0315                  3.5266334930937027E-6
0.0015                    -0.0305                  7.026636509624842E-6
0.0015                    -0.0295                  7.531411801928388E-6
0.0015                    -0.0285                  8.055320429163024E-6
0.0015                    -0.0275                  8.319826561245097E-6
0.0015                    -0.0265                  8.51306276949798E-6
0.0015                    -0.0255                  8.680612587393795E-6
0.0015                    -0.0245                  8.91627776081866E-6
0.0015                    -0.0235                  9.27374273182241E-6
0.0015                    -0.0225                  9.88228578255257E-6
0.0015                    -0.0215                  1.129249638921605E-5
0.0015                    -0.0205                  1.58829925346204E-5
0.0015                    -0.0195                  2.9827793506005574E-5
0.0015                    -0.0185                  7.027819177058186E-5
0.0015                    -0.0175                  1.8451028912603538E-4
0.0015                    -0.0165                  3.811770735301342E-4
0.0015                    -0.0155                  6.535402053963899E-4
0.0015                    -0.0145                  0.001174119708833944
0.0015                    -0.0135                  0.002482218184939738
0.0015                    -0.0125                  0.004927706832209424
0.0015                    -0.0115                  0.008172125923300756
0.0015                    -0.0105                  0.011627703663976922
0.0015                    -0.0095                  0.014703485039118896
0.0015                    -0.0085                  0.016976631019388424
0.0015                    -0.0075                  0.018217867012664684
0.0015                    -0.0065                  0.018352001640268394
0.0015                    -0.0055                  0.017426539782003914
0.0015                    -0.0045                  0.01557125956428513
0.0015                    -0.0035                  0.012965841323827436
0.0015                    -0.0025                  0.009790220659529938
0.0015                    -0.0015                  0.006222379876748583
0.0015                    -5.0E-4                  0.0028682488769691265
0.0015                    5.0E-4                   0.00226758430912511
0.0015                    0.0015                   0.0034589803443692475
0.0015                    0.0025                   0.0033078495485403805
0.0015                    0.0035                   0.0024026153974731875
0.0015                    0.0045                   0.0016714508836025378
0.0015                    0.0055                   0.0011375695088253744
0.0015                    0.0065                   6.749324259460257E-4
0.0015                    0.0075                   4.093371906212242E-4
0.0015                    0.0085                   4.103534209946625E-4
0.0015                    0.0095                   7.653083151264808E-4
0.0015                    0.0105                   0.0015272421990730437
0.0015                    0.0115                   0.002257598641946828
0.0015                    0.0125                   0.003115594203588415
0.0015                    0.0135                   0.007234372130936022
0.0015                    0.0145                   0.10968913858130776
0.0015                    0.0155                   0.22997556960102425
0.0015                    0.0165                   0.22208074855386709
0.0015                    0.0175                   0.09833177336969234
0.0015                    0.0185                   0.0034457167356424043
0.0015                    0.0195                   0.0023788550101554308
0.0015                    0.0205                   8.162096251885142E-4
0.0015                    0.0215                   4.2868818364915365E-4
0.0015                    0.0225                   2.1717499935544978E-4
0.0015                    0.0235                   8.171613463385843E-5
0.0015                    0.0245                   3.45152100264922E-5
0.0015                    0.0255                   1.7766230803286746E-5
0.0015                    0.0265                   1.1762094019655322E-5
0.0015                    0.0275                   9.77907146405016E-6
0.0015                    0.0285                   9.230807340246754E-6
0.0015                    0.0295                   8.965144750711107E-6
0.0015                    0.0305                   8.792701728723016E-6
0.0015                    0.0315                   4.525819193360025E-6
0.0025                    -0.0315                  3.620557373982193E-6
0.0025                    -0.0305                  7.18788247106851E-6
0.0025                    -0.0295                  7.715727012936573E-6
0.0025                    -0.0285                  8.072159117954096E-6
0.0025                    -0.0275                  7.950904661174315E-6
0.0025                    -0.0265                  7.766955566998052E-6
0.0025                    -0.0255                  7.602432840178379E-6
0.0025                    -0.0245                  7.557838226306051E-6
0.0025                    -0.0235                  7.752552481338806E-6
0.0025                    -0.0225                  8.475001232974656E-6
0.0025                    -0.0215                  1.057282579106519E-5
0.0025                    -0.0205                  1.6321544262639696E-5
0.0025                    -0.0195                  3.193357295928845E-5
0.0025                    -0.0185                  7.703188863060659E-5
0.0025                    -0.0175                  2.231481433152925E-4
0.0025                    -0.0165                  5.487709877342053E-4
0.0025                    -0.0155                  0.0012474762591653873
0.0025                    -0.0145                  0.0030854186297699943
0.0025                    -0.0135                  0.0067290987927082265
0.0025                    -0.0125                  0.011529517200674999
0.0025                    -0.0115                  0.016243744442058977
0.0025                    -0.0105                  0.020079158310372196
0.0025                    -0.0095                  0.0228018942647392
0.0025                    -0.0085                  0.02452318123319149
0.0025                    -0.0075                  0.025432292957494704
0.0025                    -0.0065                  0.02569371703526585
0.0025                    -0.0055                  0.025399343937236002
0.0025                    -0.0045                  0.024548631911199464
0.0025                    -0.0035                  0.02303870589241879
0.0025                    -0.0025                  0.02067228980455777
0.0025                    -0.0015                  0.017217451584938988
0.0025                    -5.0E-4                  0.012542070898996501
0.0025                    5.0E-4                   0.00692173272066261
0.0025                    0.0015                   0.001791481812631688
0.0025                    0.0025                   0.0024984673584656407
0.0025                    0.0035                   0.0032106351611289508
0.0025                    0.0045                   0.002503175539086534
0.0025                    0.0055                   0.0017610903084696742
0.0025                    0.0065                   0.001169763025356336
0.0025                    0.0075                   6.861116043467132E-4
0.0025                    0.0085                   5.154330189004838E-4
0.0025                    0.0095                   6.909116343246272E-4
0.0025                    0.0105                   0.0011661193512000033
0.0025                    0.0115                   0.0016035343090891902
0.0025                    0.0125                   0.003009894625147787
0.0025                    0.0135                   0.009659242688280938
0.0025                    0.0145                   0.11401576766634602
0.0025                    0.0155                   0.22949203181208797
0.0025                    0.0165                   0.21975810917998817
0.0025                    0.0175                   0.0985754079821022
0.0025                    0.0185                   0.003856677530770914
0.0025                    0.0195                   0.00310405615093964
0.0025                    0.0205                   9.759749577789193E-4
0.0025                    0.0215                   3.533974015615191E-4
0.0025                    0.0225                   1.6460842830108823E-4
0.0025                    0.0235                   6.933082240720253E-5
0.0025                    0.0245                   3.224525613150528E-5
0.0025                    0.0255                   1.774656489084183E-5
0.0025                    0.0265                   1.2320493853582302E-5
0.0025                    0.0275                   1.0557455199063566E-5
0.0025                    0.0285                   1.0169862659518872E-5
0.0025                    0.0295                   9.845582446082275E-6
0.0025                    0.0305                   9.679944174204876E-6
0.0025                    0.0315                   5.086372960308633E-6
0.0035                    -0.0315                  3.7506187257040387E-6
0.0035                    -0.0305                  7.35042689879057E-6
0.0035                    -0.0295                  8.013958264678643E-6
0.0035                    -0.0285                  8.684909923384306E-6
0.0035                    -0.0275                  8.7028684608568E-6
0.0035                    -0.0265                  8.523855821178512E-6
0.0035                    -0.0255                  8.305725260728704E-6
0.0035                    -0.0245                  8.226175009744729E-6
0.0035                    -0.0235                  8.495216313311638E-6
0.0035                    -0.0225                  9.547488142664709E-6
0.0035                    -0.0215                  1.2503983123679532E-5
0.0035                    -0.0205                  2.0338842281371434E-5
0.0035                    -0.0195                  4.1229967430358514E-5
0.0035                    -0.0185                  1.020201795614477E-4
0.0035                    -0.0175                  3.3388227685945667E-4
0.0035                    -0.0165                  9.887376432679495E-4
0.0035                    -0.0155                  0.002789232630283458
0.0035                    -0.0145                  0.006844763823829205
0.0035                    -0.0135                  0.012694811272872369
0.0035                    -0.0125                  0.018326973029843447
0.0035                    -0.0115                  0.02243835017102682
0.0035                    -0.0105                  0.024947123115317056
0.0035                    -0.0095                  0.026335887674625556
0.0035                    -0.0085                  0.0270895843326733
0.0035                    -0.0075                  0.027531054311607104
0.0035                    -0.0065                  0.027875996703589114
0.0035                    -0.0055                  0.02823668842908329
0.0035                    -0.0045                  0.02856530504475937
0.0035                    -0.0035                  0.0286609813665052
0.0035                    -0.0025                  0.02819001559454124
0.0035                    -0.0015                  0.026659118040507628
0.0035                    -5.0E-4                  0.02348593302816005
0.0035                    5.0E-4                   0.018271381283253
0.0035                    0.0015                   0.011199584519116304
0.0035                    0.0025                   0.004013834517054492
0.0035                    0.0035                   0.002872816502846195
0.0035                    0.0045                   0.004443141047958349
0.0035                    0.0055                   0.003608480979117124
0.0035                    0.0065                   0.0022769146325173116
0.0035                    0.0075                   0.0013253369662408116
0.0035                    0.0085                   8.491976879295703E-4
0.0035                    0.0095                   8.903783759758973E-4
0.0035                    0.0105                   0.0012556248073280541
0.0035                    0.0115                   0.0014961231818370973
0.0035                    0.0125                   0.0035497263337160444
0.0035                    0.0135                   0.012158447655810903
0.0035                    0.0145                   0.11853201963474347
0.0035                    0.0155                   0.22922348560334777
0.0035                    0.0165                   0.21710422034315463
0.0035                    0.0175                   0.09801764737883593
0.0035                    0.0185                   0.003945759329958304
0.0035                    0.0195                   0.003679454570594117
0.0035                    0.0205                   0.001230055896166621
0.0035                    0.0215                   3.942767771729431E-4
0.0035                    0.0225                   1.642436814288467E-4
0.0035                    0.0235                   6.95969975518342E-5
0.0035                    0.0245                   3.3990516745804646E-5
0.0035                    0.0255                   1.975731619525281E-5
0.0035                    0.0265                   1.4270659020766492E-5
0.0035                    0.0275                   1.2359016014810468E-5
0.0035                    0.0285                   1.168233114101309E-5
0.0035                    0.0295                   1.0878005288242026E-5
0.0035                    0.0305                   1.070401003373274E-5
0.0035                    0.0315                   5.7938709728211255E-6
0.0045                    -0.0315                  3.831011785699518E-6
0.0045                    -0.0305                  7.36544118365611E-6
0.0045                    -0.0295                  7.976348348554449E-6
0.0045                    -0.0285                  8.847272644772409E-6
0.0045                    -0.0275                  9.080378931500345E-6
0.0045                    -0.0265                  9.03037790666484E-6
0.0045                    -0.0255                  8.864678935668245E-6
0.0045                    -0.0245                  8.833031247523559E-6
0.0045                    -0.0235                  9.261972365476005E-6
0.0045                    -0.0225                  1.0794447363573244E-5
0.0045                    -0.0215                  1.5003222860780506E-5
0.0045                    -0.0205                  2.6183016041702505E-5
0.0045                    -0.0195                  5.810399248207416E-5
0.0045                    -0.0185                  1.5349564890506973E-4
0.0045                    -0.0175                  5.36009298403379E-4
0.0045                    -0.0165                  0.001830757889435776
0.0045                    -0.0155                  0.0055000759849677715
0.0045                    -0.0145                  0.011892906242685904
0.0045                    -0.0135                  0.018542239474941533
0.0045                    -0.0125                  0.02304545149922302
0.0045                    -0.0115                  0.025172967492452337
0.0045                    -0.0105                  0.02571170265699689
0.0045                    -0.0095                  0.025314560788951265
0.0045                    -0.0085                  0.024515023595044136
0.0045                    -0.0075                  0.023906641876424373
0.0045                    -0.0065                  0.023977679149477488
0.0045                    -0.0055                  0.02490828047155336
0.0045                    -0.0045                  0.02654681552795411
0.0045                    -0.0035                  0.028490650968958944
0.0045                    -0.0025                  0.030264539255300735
0.0045                    -0.0015                  0.03136563705905418
0.0045                    -5.0E-4                  0.031144417867851836
0.0045                    5.0E-4                   0.028778458739999912
0.0045                    0.0015                   0.02358077491804276
0.0045                    0.0025                   0.015559319192473137
0.0045                    0.0035                   0.006530704502978165
0.0045                    0.0045                   0.004414020764633389
0.0045                    0.0055                   0.00676063585888115
0.0045                    0.0065                   0.0053492249317731826
0.0045                    0.0075                   0.0028915698038403347
0.0045                    0.0085                   0.0016088961961624967
0.0045                    0.0095                   0.0015184778149523917
0.0045                    0.0105                   0.001673836861085953
0.0045                    0.0115                   0.0016644252929171707
0.0045                    0.0125                   0.004140863498983986
0.0045                    0.0135                   0.014940631887866047
0.0045                    0.0145                   0.12336158356751564
0.0045                    0.0155                   0.22909347568456098
0.0045                    0.0165                   0.21406545593489124
0.0045                    0.0175                   0.09670762183207009
0.0045                    0.0185                   0.003692727619284678
0.0045                    0.0195                   0.004034272655834225
0.0045                    0.0205                   0.001370174303439678
0.0045                    0.0215                   3.9864362905871886E-4
0.0045                    0.0225                   1.5271022260313609E-4
0.0045                    0.0235                   6.605762338723362E-5
0.0045                    0.0245                   3.3628883850986456E-5
0.0045                    0.0255                   2.0556169386342684E-5
0.0045                    0.0265                   1.5428918939576755E-5
0.0045                    0.0275                   1.3479064194857367E-5
0.0045                    0.0285                   1.2535409725191874E-5
0.0045                    0.0295                   1.1427844536379417E-5
0.0045                    0.0305                   1.1365036672497237E-5
0.0045                    0.0315                   6.285143025820923E-6
0.0055                    -0.0315                  3.918791223614262E-6
0.0055                    -0.0305                  7.435401201133878E-6
0.0055                    -0.0295                  7.979479242033749E-6
0.0055                    -0.0285                  8.962306409804518E-6
0.0055                    -0.0275                  9.384898353161963E-6
0.0055                    -0.0265                  9.525069295635339E-6
0.0055                    -0.0255                  9.51404298855241E-6
0.0055                    -0.0245                  9.657686082604165E-6
0.0055                    -0.0235                  1.043944016562961E-5
0.0055                    -0.0225                  1.2842072409289827E-5
0.0055                    -0.0215                  1.921005154533472E-5
0.0055                    -0.0205                  3.6197553263918694E-5
0.0055                    -0.0195                  8.833360394718651E-5
0.0055                    -0.0185                  2.8344458865933367E-4
0.0055                    -0.0175                  9.638297575706164E-4
0.0055                    -0.0165                  0.003384268005709726
0.0055                    -0.0155                  0.009318616011177727
0.0055                    -0.0145                  0.017224697374949503
0.0055                    -0.0135                  0.023015609679780412
0.0055                    -0.0125                  0.025291568138731232
0.0055                    -0.0115                  0.0250022441811165
0.0055                    -0.0105                  0.022989912008816324
0.0055                    -0.0095                  0.020009435595448235
0.0055                    -0.0085                  0.017098989118579717
0.0055                    -0.0075                  0.01516810372340813
0.0055                    -0.0065                  0.014682702552238053
0.0055                    -0.0055                  0.015761303820350975
0.0055                    -0.0045                  0.01835631988860923
0.0055                    -0.0035                  0.022138789195441076
0.0055                    -0.0025                  0.02646315272095064
0.0055                    -0.0015                  0.030566016876885146
0.0055                    -5.0E-4                  0.033721892291146735
0.0055                    5.0E-4                   0.035148608974911955
0.0055                    0.0015                   0.033834879348733915
0.0055                    0.0025                   0.028801907739322244
0.0055                    0.0035                   0.019801911962753087
0.0055                    0.0045                   0.008847672032753991
0.0055                    0.0055                   0.007408691062667465
0.0055                    0.0065                   0.010613601900238303
0.0055                    0.0075                   0.008350927328102394
0.0055                    0.0085                   0.0048556763588582675
0.0055                    0.0095                   0.003191625392417128
0.0055                    0.0105                   0.0025896252592714736
0.0055                    0.0115                   0.002095246937600499
0.0055                    0.0125                   0.004550922157058653
0.0055                    0.0135                   0.01813202348143592
0.0055                    0.0145                   0.12865016404099672
0.0055                    0.0155                   0.22904896549911594
0.0055                    0.0165                   0.2106255384480372
0.0055                    0.0175                   0.09472900767263062
0.0055                    0.0185                   0.003131254223918695
0.0055                    0.0195                   0.0041984181524366655
0.0055                    0.0205                   0.0013878591193682245
0.0055                    0.0215                   3.738222731396863E-4
0.0055                    0.0225                   1.3234194063295947E-4
0.0055                    0.0235                   6.0396098847632894E-5
0.0055                    0.0245                   3.242992871942216E-5
0.0055                    0.0255                   2.0838835957564564E-5
0.0055                    0.0265                   1.61955763020113E-5
0.0055                    0.0275                   1.4283767072825736E-5
0.0055                    0.0285                   1.3193510344516322E-5
0.0055                    0.0295                   1.193818254529766E-5
0.0055                    0.0305                   1.2034998775853803E-5
0.0055                    0.0315                   6.7542382688783155E-6
0.0065                    -0.0315                  4.010098170949084E-6
0.0065                    -0.0305                  7.538047572282538E-6
0.0065                    -0.0295                  8.025796148973137E-6
0.0065                    -0.0285                  9.07762540911735E-6
0.0065                    -0.0275                  9.64552697182926E-6
0.0065                    -0.0265                  9.983606444577748E-6
0.0065                    -0.0255                  1.0209318292316066E-5
0.0065                    -0.0245                  1.0699818707207242E-5
0.0065                    -0.0235                  1.2177436479164854E-5
0.0065                    -0.0225                  1.622290230884775E-5
0.0065                    -0.0215                  2.6486517446286902E-5
0.0065                    -0.0205                  5.4677998246828384E-5
0.0065                    -0.0195                  1.3866993250878816E-4
0.0065                    -0.0185                  4.991288152649943E-4
0.0065                    -0.0175                  0.001723293168254224
0.0065                    -0.0165                  0.005786671142237372
0.0065                    -0.0155                  0.013803583701108443
0.0065                    -0.0145                  0.021912096946620573
0.0065                    -0.0135                  0.025796195050177762
0.0065                    -0.0125                  0.025495271304352016
0.0065                    -0.0115                  0.022326407752848505
0.0065                    -0.0105                  0.017347557893913595
0.0065                    -0.0095                  0.012203254570735008
0.0065                    -0.0085                  0.00835449558505553
0.0065                    -0.0075                  0.006234245020862033
0.0065                    -0.0065                  0.005519271199320246
0.0065                    -0.0055                  0.0059370695047291
0.0065                    -0.0045                  0.007642168942161814