% Model:              Benchmark260518.mph
% Version:            COMSOL 6.2.0.339
% Date:               May 20 2026, 18:32
% Dimension:          2
% Nodes:              4096
% Expressions:        1
% Description:        速度大小
% Length unit:        m
% x                       y                        spf.U (m/s)
5.0E-4                    -0.0315                  2.412309971391813E-6
5.0E-4                    -0.0305                  4.7335793842611475E-6
5.0E-4                    -0.0295                  5.19346346735533E-6
5.0E-4                    -0.0285                  5.789715158287802E-6
5.0E-4                    -0.0275                  6.126266451599473E-6
5.0E-4                    -0.0265                  6.471418002857691E-6
5.0E-4                    -0.0255                  6.770529786201164E-6
5.0E-4                    -0.0245                  7.052472710165085E-6
5.0E-4                    -0.0235                  7.313647539464467E-6
5.0E-4                    -0.0225                  7.558484248887675E-6
5.0E-4                    -0.0215                  7.81013596724119E-6
5.0E-4                    -0.0205                  8.087679497526761E-6
5.0E-4                    -0.0195                  8.410758340870962E-6
5.0E-4                    -0.0185                  8.781459516862484E-6
5.0E-4                    -0.0175                  9.194183146418521E-6
5.0E-4                    -0.0165                  9.66410886937915E-6
5.0E-4                    -0.0155                  1.0245997871517417E-5
5.0E-4                    -0.0145                  1.1195533420307733E-5
5.0E-4                    -0.0135                  1.3093391690313325E-5
5.0E-4                    -0.0125                  1.7032490336555998E-5
5.0E-4                    -0.0115                  2.8660210892452898E-5
5.0E-4                    -0.0105                  6.415978181327222E-5
5.0E-4                    -0.0095                  1.6422636291384192E-4
5.0E-4                    -0.0085                  3.033464932395596E-4
5.0E-4                    -0.0075                  4.009742823072621E-4
5.0E-4                    -0.0065                  5.015302263529549E-4
5.0E-4                    -0.0055                  7.759189515128736E-4
5.0E-4                    -0.0045                  0.0013050806437854853
5.0E-4                    -0.0035                  0.001957697757865376
5.0E-4                    -0.0025                  0.002488253682791667
5.0E-4                    -0.0015                  0.002676964504641114
5.0E-4                    -5.0E-4                  0.002433823387585886
5.0E-4                    5.0E-4                   0.0018101059377778012
5.0E-4                    0.0015                   0.0010155475842951016
5.0E-4                    0.0025                   8.068275941345191E-4
5.0E-4                    0.0035                   0.0013237045317937885
5.0E-4                    0.0045                   0.0013935805146524695
5.0E-4                    0.0055                   0.0035666890466724424
5.0E-4                    0.0065                   0.022495333224635775
5.0E-4                    0.0075                   0.03847702572702511
5.0E-4                    0.0085                   0.03363452950435219
5.0E-4                    0.0095                   0.015134625310165703
5.0E-4                    0.0105                   0.0010516975389456033
5.0E-4                    0.0115                   9.263858787751446E-4
5.0E-4                    0.0125                   5.432717658584149E-4
5.0E-4                    0.0135                   4.019143957332207E-4
5.0E-4                    0.0145                   4.0989296942677055E-4
5.0E-4                    0.0155                   2.921948606307013E-4
5.0E-4                    0.0165                   1.3303626934282165E-4
5.0E-4                    0.0175                   4.362310353327265E-5
5.0E-4                    0.0185                   1.7567643246985512E-5
5.0E-4                    0.0195                   9.736893977118137E-6
5.0E-4                    0.0205                   7.212711031201223E-6
5.0E-4                    0.0215                   5.953952465443831E-6
5.0E-4                    0.0225                   5.226240990181125E-6
5.0E-4                    0.0235                   4.763249737620381E-6
5.0E-4                    0.0245                   4.434437788314487E-6
5.0E-4                    0.0255                   4.183349515560627E-6
5.0E-4                    0.0265                   3.97120100533055E-6
5.0E-4                    0.0275                   3.7574779145253766E-6
5.0E-4                    0.0285                   3.5501450338918167E-6
5.0E-4                    0.0295                   3.1865083151440626E-6
5.0E-4                    0.0305                   2.8625644870841717E-6
5.0E-4                    0.0315                   1.435693076889203E-6
0.0015                    -0.0315                  4.622284401690934E-6
0.0015                    -0.0305                  8.890765747889044E-6
0.0015                    -0.0295                  9.231355289807713E-6
0.0015                    -0.0285                  9.824904581788889E-6
0.0015                    -0.0275                  1.0088854503272014E-5
0.0015                    -0.0265                  1.0416139258087436E-5
0.0015                    -0.0255                  1.0734613951991979E-5
0.0015                    -0.0245                  1.1060505946912922E-5
0.0015                    -0.0235                  1.1375456564020985E-5
0.0015                    -0.0225                  1.1676222873441045E-5
0.0015                    -0.0215                  1.1988545821431055E-5
0.0015                    -0.0205                  1.2347166331300677E-5
0.0015                    -0.0195                  1.278998448642505E-5
0.0015                    -0.0185                  1.3329317321770408E-5
0.0015                    -0.0175                  1.3958149176551107E-5
0.0015                    -0.0165                  1.4694599605390174E-5
0.0015                    -0.0155                  1.5652999180272983E-5
0.0015                    -0.0145                  1.729271011331863E-5
0.0015                    -0.0135                  2.0751601099900186E-5
0.0015                    -0.0125                  2.873765507468816E-5
0.0015                    -0.0115                  5.0261740149856333E-5
0.0015                    -0.0105                  1.0905521172576919E-4
0.0015                    -0.0095                  2.687106002537386E-4
0.0015                    -0.0085                  5.191028476896399E-4
0.0015                    -0.0075                  8.714663643068996E-4
0.0015                    -0.0065                  0.0016247588496916302
0.0015                    -0.0055                  0.0030893251265856326
0.0015                    -0.0045                  0.005088229146769409
0.0015                    -0.0035                  0.007134818397176544
0.0015                    -0.0025                  0.008762981108297409
0.0015                    -0.0015                  0.009667487681189798
0.0015                    -5.0E-4                  0.009747199262525225
0.0015                    5.0E-4                   0.009026056237661546
0.0015                    0.0015                   0.007577786863658431
0.0015                    0.0025                   0.005560873983274333
0.0015                    0.0035                   0.0035565722324133256
0.0015                    0.0045                   0.0036819857150928656
0.0015                    0.0055                   0.011669815401551804
0.0015                    0.0065                   0.02662872097044479
0.0015                    0.0075                   0.034863796521395984
0.0015                    0.0085                   0.029542902329828785
0.0015                    0.0095                   0.015239429193782402
0.0015                    0.0105                   0.0036668699510203078
0.0015                    0.0115                   0.0019444181361437508
0.0015                    0.0125                   0.002076822624591043
0.0015                    0.0135                   0.0016132673162821411
0.0015                    0.0145                   0.0011181045912892317
0.0015                    0.0155                   6.566110291704469E-4
0.0015                    0.0165                   2.7630991626992465E-4
0.0015                    0.0175                   8.854076821437825E-5
0.0015                    0.0185                   3.492880247829017E-5
0.0015                    0.0195                   1.8080622114072673E-5
0.0015                    0.0205                   1.227982587308654E-5
0.0015                    0.0215                   9.69536549093503E-6
0.0015                    0.0225                   8.338910275655725E-6
0.0015                    0.0235                   7.551501031082072E-6
0.0015                    0.0245                   7.059202533734873E-6
0.0015                    0.0255                   6.7386682024811164E-6
0.0015                    0.0265                   6.517565748197511E-6
0.0015                    0.0275                   6.333507310640478E-6
0.0015                    0.0285                   6.184942360196925E-6
0.0015                    0.0295                   5.804458119081767E-6
0.0015                    0.0305                   5.465421755186711E-6
0.0015                    0.0315                   2.7856817871312774E-6
0.0025                    -0.0315                  4.9241758224468226E-6
0.0025                    -0.0305                  8.925349007594892E-6
0.0025                    -0.0295                  8.446998441012258E-6
0.0025                    -0.0285                  8.61004417299167E-6
0.0025                    -0.0275                  8.509456463218036E-6
0.0025                    -0.0265                  8.486135202280134E-6
0.0025                    -0.0255                  8.519254310144296E-6
0.0025                    -0.0245                  8.608351356356994E-6
0.0025                    -0.0235                  8.720648388330703E-6
0.0025                    -0.0225                  8.833424004559717E-6
0.0025                    -0.0215                  8.945873537042019E-6
0.0025                    -0.0205                  9.091168760430021E-6
0.0025                    -0.0195                  9.32357821562082E-6
0.0025                    -0.0185                  9.689833324414922E-6
0.0025                    -0.0175                  1.0205288693340253E-5
0.0025                    -0.0165                  1.0880865600169081E-5
0.0025                    -0.0155                  1.184444394880913E-5
0.0025                    -0.0145                  1.3588101225834084E-5
0.0025                    -0.0135                  1.7545338688159856E-5
0.0025                    -0.0125                  2.754465955202005E-5
0.0025                    -0.0115                  5.2156176132143775E-5
0.0025                    -0.0105                  1.0865889662340252E-4
0.0025                    -0.0095                  2.55840784402035E-4
0.0025                    -0.0085                  6.143062116031067E-4
0.0025                    -0.0075                  0.0015804118316557828
0.0025                    -0.0065                  0.0037402706507891187
0.0025                    -0.0055                  0.006951295174845145
0.0025                    -0.0045                  0.010298848793566186
0.0025                    -0.0035                  0.013065387820114653
0.0025                    -0.0025                  0.01508013416066449
0.0025                    -0.0015                  0.016494244361966205
0.0025                    -5.0E-4                  0.01745398740751288
0.0025                    5.0E-4                   0.01796186818004815
0.0025                    0.0015                   0.01785698153670786
0.0025                    0.0025                   0.017004191334069618
0.0025                    0.0035                   0.015750676134015602
0.0025                    0.0045                   0.015776371631611743
0.0025                    0.0055                   0.01959413606102444
0.0025                    0.0065                   0.026136866175127327
0.0025                    0.0075                   0.028619645559815304
0.0025                    0.0085                   0.023000408112760974
0.0025                    0.0095                   0.013873802857257336
0.0025                    0.0105                   0.009764125195040175
0.0025                    0.0115                   0.008962502023064176
0.0025                    0.0125                   0.0072435400267816365
0.0025                    0.0135                   0.004816203668379882
0.0025                    0.0145                   0.0026853015379561976
0.0025                    0.0155                   0.001193940734285531
0.0025                    0.0165                   4.0476687433911026E-4
0.0025                    0.0175                   1.1914187405054417E-4
0.0025                    0.0185                   4.546229112212094E-5
0.0025                    0.0195                   2.12032980715559E-5
0.0025                    0.0205                   1.2246338550613963E-5
0.0025                    0.0215                   8.578585939116355E-6
0.0025                    0.0225                   6.9021198033746786E-6
0.0025                    0.0235                   6.080091858868736E-6
0.0025                    0.0245                   5.689880716140358E-6
0.0025                    0.0255                   5.540937388420415E-6
0.0025                    0.0265                   5.535854532027208E-6
0.0025                    0.0275                   5.598842076616073E-6
0.0025                    0.0285                   5.686561738909208E-6
0.0025                    0.0295                   5.527205692012112E-6
0.0025                    0.0305                   5.547183934651142E-6
0.0025                    0.0315                   2.9524570337127367E-6
0.0035                    -0.0315                  5.43751917538539E-6
0.0035                    -0.0305                  9.349653743386893E-6
0.0035                    -0.0295                  8.40431419774005E-6
0.0035                    -0.0285                  8.709123775012332E-6
0.0035                    -0.0275                  8.686015267037022E-6
0.0035                    -0.0265                  8.693104022577078E-6
0.0035                    -0.0255                  8.728586204235906E-6
0.0035                    -0.0245                  8.835223771425402E-6
0.0035                    -0.0235                  8.985010635678302E-6
0.0035                    -0.0225                  9.142251930395992E-6
0.0035                    -0.0215                  9.288507546626736E-6
0.0035                    -0.0205                  9.457429363288926E-6
0.0035                    -0.0195                  9.747101973010932E-6
0.0035                    -0.0185                  1.0292979917879427E-5
0.0035                    -0.0175                  1.1203938088256739E-5
0.0035                    -0.0165                  1.2529437168591873E-5
0.0035                    -0.0155                  1.4380235188733483E-5
0.0035                    -0.0145                  1.7344633322357856E-5
0.0035                    -0.0135                  2.341326071900781E-5
0.0035                    -0.0125                  3.793804609942153E-5
0.0035                    -0.0115                  7.557607506959035E-5
0.0035                    -0.0105                  1.7546758235834932E-4
0.0035                    -0.0095                  4.239979037910569E-4
0.0035                    -0.0085                  0.001166110113773849
0.0035                    -0.0075                  0.0032767186090234247
0.0035                    -0.0065                  0.007050616121374088
0.0035                    -0.0055                  0.011215729645091528
0.0035                    -0.0045                  0.014390169619769423
0.0035                    -0.0035                  0.016322868778419118
0.0035                    -0.0025                  0.017446694090634676
0.0035                    -0.0015                  0.018276683770044235
0.0035                    -5.0E-4                  0.01922076581327675
0.0035                    5.0E-4                   0.020466244653056517
0.0035                    0.0015                   0.021778453955835057
0.0035                    0.0025                   0.022689112119291553
0.0035                    0.0035                   0.022818121917824948
0.0035                    0.0045                   0.022291711877657258
0.0035                    0.0055                   0.02191173600674153
0.0035                    0.0065                   0.021957526652110346
0.0035                    0.0075                   0.02014510573933214
0.0035                    0.0085                   0.014894636736976476
0.0035                    0.0095                   0.012082237193324706
0.0035                    0.0105                   0.013490923786737576
0.0035                    0.0115                   0.013403194601469446
0.0035                    0.0125                   0.011371017619811475
0.0035                    0.0135                   0.008712587572031506
0.0035                    0.0145                   0.0055834482583137345
0.0035                    0.0155                   0.00240762431339664
0.0035                    0.0165                   6.744630528711705E-4
0.0035                    0.0175                   1.9328919307818424E-4
0.0035                    0.0185                   7.230828417630412E-5
0.0035                    0.0195                   3.143490670759797E-5
0.0035                    0.0205                   1.637547358445333E-5
0.0035                    0.0215                   1.0199181719515505E-5
0.0035                    0.0225                   7.547733680826515E-6
0.0035                    0.0235                   6.377837040787564E-6
0.0035                    0.0245                   5.89931595033169E-6
0.0035                    0.0255                   5.762565289574147E-6
0.0035                    0.0265                   5.793177860589549E-6
0.0035                    0.0275                   5.857958938061926E-6
0.0035                    0.0285                   5.886408220064213E-6
0.0035                    0.0295                   5.5958937750066255E-6
0.0035                    0.0305                   5.804803293776618E-6
0.0035                    0.0315                   3.232038671539444E-6
0.0045                    -0.0315                  5.726139027881336E-6
0.0045                    -0.0305                  9.500128400525816E-6
0.0045                    -0.0295                  8.123714664170389E-6
0.0045                    -0.0285                  8.470767235214136E-6
0.0045                    -0.0275                  8.569941638065141E-6
0.0045                    -0.0265                  8.681669263931615E-6
0.0045                    -0.0255                  8.793535500588368E-6
0.0045                    -0.0245                  8.989457741943308E-6
0.0045                    -0.0235                  9.268343847594511E-6
0.0045                    -0.0225                  9.594543714514702E-6
0.0045                    -0.0215                  9.934014141642408E-6
0.0045                    -0.0205                  1.0325084876842749E-5
0.0045                    -0.0195                  1.0946311034781045E-5
0.0045                    -0.0185                  1.2118620587996852E-5
0.0045                    -0.0175                  1.4190136385835601E-5
0.0045                    -0.0165                  1.7344182246781575E-5
0.0045                    -0.0155                  2.1552613910508678E-5
0.0045                    -0.0145                  2.7220502195182138E-5
0.0045                    -0.0135                  3.681165247757494E-5
0.0045                    -0.0125                  5.777837643828905E-5
0.0045                    -0.0115                  1.1329067907446443E-4
0.0045                    -0.0105                  2.8524709953093094E-4
0.0045                    -0.0095                  7.237503127207052E-4
0.0045                    -0.0085                  0.002146907042787167
0.0045                    -0.0075                  0.0057002557843079315
0.0045                    -0.0065                  0.010573287399465236
0.0045                    -0.0055                  0.014281367886608358
0.0045                    -0.0045                  0.01582373485507005
0.0045                    -0.0035                  0.015714671890046314
0.0045                    -0.0025                  0.014720470516410558
0.0045                    -0.0015                  0.013730985947915027
0.0045                    -5.0E-4                  0.01350231143792771
0.0045                    5.0E-4                   0.014318822523469438
0.0045                    0.0015                   0.0159590469434251
0.0045                    0.0025                   0.01783918224976689
0.0045                    0.0035                   0.019147321416002297
0.0045                    0.0045                   0.019099354441919437
0.0045                    0.0055                   0.017457988517268375
0.0045                    0.0065                   0.014611639677391144
0.0045                    0.0075                   0.010794009978798409
0.0045                    0.0085                   0.007621769429640324
0.0045                    0.0095                   0.00847931988782411
0.0045                    0.0105                   0.010025759169968935
0.0045                    0.0115                   0.010491102535332744
0.0045                    0.0125                   0.01063553636741355
0.0045                    0.0135                   0.010755876492551164
0.0045                    0.0145                   0.00875864939117612
0.0045                    0.0155                   0.004428227507703955
0.0045                    0.0165                   0.001334406634338917
0.0045                    0.0175                   3.9198920190098115E-4
0.0045                    0.0185                   1.299485102142737E-4
0.0045                    0.0195                   5.2281313217426486E-5
0.0045                    0.0205                   2.4212730084726898E-5
0.0045                    0.0215                   1.3267829140498727E-5
0.0045                    0.0225                   8.737985757590507E-6
0.0045                    0.0235                   6.858190136452453E-6
0.0045                    0.0245                   6.128279218337143E-6
0.0045                    0.0255                   5.910693296966648E-6
0.0045                    0.0265                   5.897407840806441E-6
0.0045                    0.0275                   5.889714130869476E-6
0.0045                    0.0285                   5.817666469321595E-6
0.0045                    0.0295                   5.4694304290994525E-6
0.0045                    0.0305                   5.925692848854659E-6
0.0045                    0.0315                   3.4238991953010483E-6
0.0055                    -0.0315                  6.042501790751396E-6
0.0055                    -0.0305                  9.740674598570635E-6
0.0055                    -0.0295                  7.923729648459384E-6
0.0055                    -0.0285                  8.230873657581022E-6
0.0055                    -0.0275                  8.38390335972445E-6
0.0055                    -0.0265                  8.591126640451672E-6
0.0055                    -0.0255                  8.803970951770535E-6
0.0055                    -0.0245                  9.142380941238643E-6
0.0055                    -0.0235                  9.655793789386154E-6
0.0055                    -0.0225                  1.0339074195615833E-5
0.0055                    -0.0215                  1.1164774726775566E-5
0.0055                    -0.0205                  1.2202710018940392E-5
0.0055                    -0.0195                  1.3826516365913616E-5
0.0055                    -0.0185                  1.6912065326356297E-5
0.0055                    -0.0175                  2.2596477704364213E-5
0.0055                    -0.0165                  3.157182129800861E-5
0.0055                    -0.0155                  4.3472964977388726E-5
0.0055                    -0.0145                  5.703055026675657E-5
0.0055                    -0.0135                  7.420935728170726E-5
0.0055                    -0.0125                  1.0777086338028127E-4
0.0055                    -0.0115                  1.877761373400127E-4
0.0055                    -0.0105                  4.413427736279913E-4
0.0055                    -0.0095                  0.0011679924736138101
0.0055                    -0.0085                  0.0035403115647238245
0.0055                    -0.0075                  0.008387867183558018
0.0055                    -0.0065                  0.013427140478438298
0.0055                    -0.0055                  0.015743861468642692
0.0055                    -0.0045                  0.015078784138435827
0.0055                    -0.0035                  0.012461828839066784
0.0055                    -0.0025                  0.009243150319255896
0.0055                    -0.0015                  0.006856626570089096
0.0055                    -5.0E-4                  0.005847897310595675
0.0055                    5.0E-4                   0.005967465715314518
0.0055                    0.0015                   0.006858462515775978
0.0055                    0.0025                   0.008180484683357471
0.0055                    0.0035                   0.009399409006571945
0.0055                    0.0045                   0.009739070619358026
0.0055                    0.0055                   0.008633312363359963
0.0055                    0.0065                   0.006308922468439488
0.0055                    0.0075                   0.003898147458327974
0.0055                    0.0085                   0.0033275264539493928
0.0055                    0.0095                   0.0036018976363875834
0.0055                    0.0105                   0.0038872914261816128
0.0055                    0.0115                   0.005029007980246585
0.0055                    0.0125                   0.0074370896469155515
0.0055                    0.0135                   0.01067602259731892
0.0055                    0.0145                   0.011118940012904954
0.0055                    0.0155                   0.007046692116911635
0.0055                    0.0165                   0.002711271635528509
0.0055                    0.0175                   8.544823703574847E-4
0.0055                    0.0185                   2.7889562116894623E-4
0.0055                    0.0195                   9.58121229973537E-5
0.0055                    0.0205                   3.97332389090702E-5
0.0055                    0.0215                   1.9025473895564753E-5
0.0055                    0.0225                   1.099620975285716E-5
0.0055                    0.0235                   7.758028364210272E-6
0.0055                    0.0245                   6.519045356270413E-6
0.0055                    0.0255                   6.094767359808263E-6
0.0055                    0.0265                   5.965584650487943E-6
0.0055                    0.0275                   5.8577305618928964E-6
0.0055                    0.0285                   5.7166759972661995E-6
0.0055                    0.0295                   5.36971133601744E-6
0.0055                    0.0305                   6.073442068090263E-6
0.0055                    0.0315                   3.6118237623348096E-6
0.0065                    -0.0315                  6.344541889222524E-6
0.0065                    -0.0305                  1.001690574232557E-5
0.0065                    -0.0295                  7.800954920928638E-6
0.0065                    -0.0285                  8.015395271015838E-6
0.0065                    -0.0275                  8.14687886886323E-6
0.0065                    -0.0265                  8.388574150297101E-6
0.0065                    -0.0255                  8.680464307118281E-6
0.0065                    -0.0245                  9.198876116066953E-6
0.0065                    -0.0235                  1.0092830307096174E-5
0.0065                    -0.0225                  1.1455903809684955E-5
0.0065                    -0.0215                  1.3323216612018564E-5
0.0065                    -0.0205                  1.586561870289269E-5
0.0065                    -0.0195                  1.9863073459574564E-5
0.0065                    -0.0185                  2.7731197056757616E-5
0.0065                    -0.0175                  4.470499770127785E-5
0.0065                    -0.0165                  7.541731989145405E-5
0.0065                    -0.0155                  1.1544314284591659E-4
0.0065                    -0.0145                  1.5487188329995185E-4
0.0065                    -0.0135                  1.9337883574365442E-4
0.0065                    -0.0125                  2.5309554649243513E-4
0.0065                    -0.0115                  4.2282947383163517E-4
0.0065                    -0.0105                  8.364295895386873E-4
0.0065                    -0.0095                  0.0019363093389486027
0.0065                    -0.0085                  0.005247329968183118
0.0065                    -0.0075                  0.01082894093402795
0.0065                    -0.0065                  0.01523804283775008
0.0065                    -0.0055                  0.015864625779587686