% Model:              Benchmark260518.mph
% Version:            COMSOL 6.2.0.339
% Date:               May 20 2026, 18:54
% Dimension:          2
% Nodes:              4096
% Expressions:        1
% Description:        速度大小
% Length unit:        m
% x                       y                        spf.U (m/s)
% mirrored_by_python_y_to_minus_y, coord_match_decimals=12
0.0005 -0.0315 1.65838305792e-06
0.0005 -0.0305 3.31631816581e-06
0.0005 -0.0295 3.7139301432e-06
0.0005 -0.0285 4.20260432882e-06
0.0005 -0.0275 4.57104838345e-06
0.0005 -0.0265 5.08611285012e-06
0.0005 -0.0255 5.86937719842e-06
0.0005 -0.0245 7.47715194128e-06
0.0005 -0.0235 1.28730692317e-05
0.0005 -0.0225 3.07853233498e-05
0.0005 -0.0215 9.09372618959e-05
0.0005 -0.0205 0.000199310989579
0.0005 -0.0195 0.000344484522909
0.0005 -0.0185 0.000601296965165
0.0005 -0.0175 0.00109148532743
0.0005 -0.0165 0.00175986156535
0.0005 -0.0155 0.00231036058118
0.0005 -0.0145 0.0024387009292
0.0005 -0.0135 0.00205713356744
0.0005 -0.0125 0.00132557778017
0.0005 -0.0115 0.000813906833998
0.0005 -0.0105 0.00137533526937
0.0005 -0.0095 0.0195933582329
0.0005 -0.0085 0.0413423037874
0.0005 -0.0075 0.0455457557603
0.0005 -0.0065 0.0261698912479
0.0005 -0.0055 0.00384466054799
0.0005 -0.0045 0.00132858575726
0.0005 -0.0035 0.000921981523901
0.0005 -0.0025 0.00116113274898
0.0005 -0.0015 0.00240513570441
0.0005 -0.0005 0.00359477332039
0.0005 0.0005 0.00435566317716
0.0005 0.0015 0.00452365206653
0.0005 0.0025 0.00407794543498
0.0005 0.0035 0.00320611006119
0.0005 0.0045 0.00223367374515
0.0005 0.0055 0.00150234523537
0.0005 0.0065 0.00129340521664
0.0005 0.0075 0.00167685092566
0.0005 0.0085 0.00235812155399
0.0005 0.0095 0.00296691520759
0.0005 0.0105 0.00320824726209
0.0005 0.0115 0.00292696174039
0.0005 0.0125 0.00222001436922
0.0005 0.0135 0.00143006784108
0.0005 0.0145 0.0008058274735
0.0005 0.0155 0.000353678694362
0.0005 0.0165 0.000115751328503
0.0005 0.0175 4.53226942613e-05
0.0005 0.0185 2.20554282496e-05
0.0005 0.0195 1.32856258611e-05
0.0005 0.0205 9.42014521858e-06
0.0005 0.0215 7.44729547883e-06
0.0005 0.0225 6.44965932763e-06
0.0005 0.0235 6.28250895799e-06
0.0005 0.0245 6.93462430594e-06
0.0005 0.0255 7.59154318703e-06
0.0005 0.0265 7.90805208256e-06
0.0005 0.0275 7.78468767625e-06
0.0005 0.0285 7.20644939459e-06
0.0005 0.0295 6.41352494878e-06
0.0005 0.0305 5.82165457493e-06
0.0005 0.0315 2.92938603914e-06
0.0015 -0.0315 3.18277541013e-06
0.0015 -0.0305 6.24988075393e-06
0.0015 -0.0295 6.66740612522e-06
0.0015 -0.0285 7.16433447563e-06
0.0015 -0.0275 7.51496574393e-06
0.0015 -0.0265 8.16864986299e-06
0.0015 -0.0255 9.48814492703e-06
0.0015 -0.0245 1.27404824184e-05
0.0015 -0.0235 2.26395555674e-05
0.0015 -0.0225 5.33392700693e-05
0.0015 -0.0215 0.000155479914299
0.0015 -0.0205 0.000373554194036
0.0015 -0.0195 0.000849786145674
0.0015 -0.0185 0.00195888261902
0.0015 -0.0175 0.0038357053135
0.0015 -0.0165 0.00598300072555
0.0015 -0.0155 0.00771427609092
0.0015 -0.0145 0.00864640977422
0.0015 -0.0135 0.00870364701135
0.0015 -0.0125 0.00782854583304
0.0015 -0.0115 0.0060913234025
0.0015 -0.0105 0.00655897799262
0.0015 -0.0095 0.020088809664
0.0015 -0.0085 0.0362149403344
0.0015 -0.0075 0.0408891771669
0.0015 -0.0065 0.0304683349539
0.0015 -0.0055 0.0129898140664
0.0015 -0.0045 0.00504227500101
0.0015 -0.0035 0.00623432454272
0.0015 -0.0025 0.00925608347462
0.0015 -0.0015 0.0119284662289
0.0015 -0.0005 0.0137063358002
0.0015 0.0005 0.014492614282
0.0015 0.0015 0.0142571025624
0.0015 0.0025 0.0129930002637
0.0015 0.0035 0.0108751091511
0.0015 0.0045 0.00832295014036
0.0015 0.0055 0.00596995128582
0.0015 0.0065 0.00458126327454
0.0015 0.0075 0.00465331710766
0.0015 0.0085 0.00546294097452
0.0015 0.0095 0.00607524493223
0.0015 0.0105 0.00621668172095
0.0015 0.0115 0.005732175565
0.0015 0.0125 0.00449245720858
0.0015 0.0135 0.00285984955936
0.0015 0.0145 0.0015548740521
0.0015 0.0155 0.000701784969898
0.0015 0.0165 0.00024010355441
0.0015 0.0175 9.78688781695e-05
0.0015 0.0185 4.93757649322e-05
0.0015 0.0195 2.96849792837e-05
0.0015 0.0205 2.02151735467e-05
0.0015 0.0215 1.51563167841e-05
0.0015 0.0225 1.24640119306e-05
0.0015 0.0235 1.14435517811e-05
0.0015 0.0245 1.17358598761e-05
0.0015 0.0255 1.23338782331e-05
0.0015 0.0265 1.27057259428e-05
0.0015 0.0275 1.2641234556e-05
0.0015 0.0285 1.21544050078e-05
0.0015 0.0295 1.13246937461e-05
0.0015 0.0305 1.09082136242e-05
0.0015 0.0315 5.65999586327e-06
0.0025 -0.0315 3.34301484629e-06
0.0025 -0.0305 6.27163697554e-06
0.0025 -0.0295 6.25390941464e-06
0.0025 -0.0285 6.39386548014e-06
0.0025 -0.0275 6.39323900587e-06
0.0025 -0.0265 6.74041241408e-06
0.0025 -0.0255 8.05435327778e-06
0.0025 -0.0245 1.18875466523e-05
0.0025 -0.0235 2.19442627233e-05
0.0025 -0.0225 5.01549213701e-05
0.0025 -0.0215 0.000157312679541
0.0025 -0.0205 0.000503505470247
0.0025 -0.0195 0.00158009964569
0.0025 -0.0185 0.00395407844048
0.0025 -0.0175 0.00712946156889
0.0025 -0.0165 0.00993122932862
0.0025 -0.0155 0.0119565860993
0.0025 -0.0145 0.0135606456277
0.0025 -0.0135 0.0150326398795
0.0025 -0.0125 0.0160576292448
0.0025 -0.0115 0.0157336630394
0.0025 -0.0105 0.0143298133947
0.0025 -0.0095 0.0180549012462
0.0025 -0.0085 0.0279425259102
0.0025 -0.0075 0.0331668771942
0.0025 -0.0065 0.0296635590027
0.0025 -0.0055 0.022322916173
0.0025 -0.0045 0.0191846723632
0.0025 -0.0035 0.0202999307452
0.0025 -0.0025 0.0221617929252
0.0025 -0.0015 0.0229873310215
0.0025 -0.0005 0.0227509804107
0.0025 0.0005 0.0218882660543
0.0025 0.0015 0.0207013674533
0.0025 0.0025 0.0191543792084
0.0025 0.0035 0.0170068120499
0.0025 0.0045 0.0141266775434
0.0025 0.0055 0.0107545882875
0.0025 0.0065 0.00770587954515
0.0025 0.0075 0.0061515739104
0.0025 0.0085 0.00571749749316
0.0025 0.0095 0.00515705704499
0.0025 0.0105 0.00479868797164
0.0025 0.0115 0.00495081714654
0.0025 0.0125 0.00482188611605
0.0025 0.0135 0.00350946445594
0.0025 0.0145 0.00183579412565
0.0025 0.0155 0.000803617437037
0.0025 0.0165 0.000318057572868
0.0025 0.0175 0.00014900745488
0.0025 0.0185 8.16609816997e-05
0.0025 0.0195 4.8407981341e-05
0.0025 0.0205 3.03509353648e-05
0.0025 0.0215 2.04714455727e-05
0.0025 0.0225 1.51014241297e-05
0.0025 0.0235 1.23231165666e-05
0.0025 0.0245 1.10613297765e-05
0.0025 0.0255 1.06136819717e-05
0.0025 0.0265 1.05132443138e-05
0.0025 0.0275 1.04919070413e-05
0.0025 0.0285 1.05406609943e-05
0.0025 0.0295 1.02501944957e-05
0.0025 0.0305 1.08311330734e-05
0.0025 0.0315 5.98849025953e-06
0.0035 -0.0315 3.72612976009e-06
0.0035 -0.0305 6.71204939377e-06
0.0035 -0.0295 6.54445369962e-06
0.0035 -0.0285 6.87761973962e-06
0.0035 -0.0275 7.04719612888e-06
0.0035 -0.0265 7.64686067865e-06
0.0035 -0.0255 9.53529384583e-06
0.0035 -0.0245 1.46773300777e-05
0.0035 -0.0235 2.7978283096e-05
0.0035 -0.0225 6.53606356226e-05
0.0035 -0.0215 0.000222419809556
0.0035 -0.0205 0.000829757965125
0.0035 -0.0195 0.00279582521917
0.0035 -0.0185 0.00640351394539
0.0035 -0.0175 0.00984709618453
0.0035 -0.0165 0.0116557097497
0.0035 -0.0155 0.0122784527606
0.0035 -0.0145 0.0127689905385
0.0035 -0.0135 0.0139694692608
0.0035 -0.0125 0.0159957559905
0.0035 -0.0115 0.0175828113573
0.0035 -0.0105 0.0167804064075
0.0035 -0.0095 0.0147387705199
0.0035 -0.0085 0.017928201827
0.0035 -0.0075 0.023143350579
0.0035 -0.0065 0.0248657255289
0.0035 -0.0055 0.025067370273
0.0035 -0.0045 0.0261220048478
0.0035 -0.0035 0.0270457330508
0.0035 -0.0025 0.0265617472842
0.0035 -0.0015 0.0247508036354
0.0035 -0.0005 0.0225851734123
0.0035 0.0005 0.0209368165232
0.0035 0.0015 0.0199961539337
0.0035 0.0025 0.0192754910598
0.0035 0.0035 0.018142565223
0.0035 0.0045 0.0160918143939
0.0035 0.0055 0.0128465992289
0.0035 0.0065 0.00882196803443
0.0035 0.0075 0.00556458895637
0.0035 0.0085 0.00394326101164
0.0035 0.0095 0.00284996909602
0.0035 0.0105 0.00257474281408
0.0035 0.0115 0.00353683782039
0.0035 0.0125 0.00490671386585
0.0035 0.0135 0.00459613856408
0.0035 0.0145 0.00256676845456
0.0035 0.0155 0.0010733357956
0.0035 0.0165 0.00055078439123
0.0035 0.0175 0.000309933523303
0.0035 0.0185 0.000174869330835
0.0035 0.0195 9.45766491759e-05
0.0035 0.0205 5.37930044948e-05
0.0035 0.0215 3.28603163632e-05
0.0035 0.0225 2.14461889756e-05
0.0035 0.0235 1.5621907016e-05
0.0035 0.0245 1.28713502838e-05
0.0035 0.0255 1.16111881544e-05
0.0035 0.0265 1.10408891185e-05
0.0035 0.0275 1.07386009532e-05
0.0035 0.0285 1.05909200959e-05
0.0035 0.0295 1.01313586912e-05
0.0035 0.0305 1.12614933386e-05
0.0035 0.0315 6.54371297001e-06
0.0045 -0.0315 4.05206317506e-06
0.0045 -0.0305 7.10469988789e-06
0.0045 -0.0295 6.77242081877e-06
0.0045 -0.0285 7.25292075645e-06
0.0045 -0.0275 7.68786809685e-06
0.0045 -0.0265 8.69821164398e-06
0.0045 -0.0255 1.1397270196e-05
0.0045 -0.0245 1.8512886257e-05
0.0045 -0.0235 3.83814900833e-05
0.0045 -0.0225 0.000106329146679
0.0045 -0.0215 0.00035764701947
0.0045 -0.0205 0.00130829883611
0.0045 -0.0195 0.00420917534716
0.0045 -0.0185 0.00865437714522
0.0045 -0.0175 0.0115428915356
0.0045 -0.0165 0.0115050792008
0.0045 -0.0155 0.00981162200593
0.0045 -0.0145 0.00814600059595
0.0045 -0.0135 0.00770777165227
0.0045 -0.0125 0.00859377937745
0.0045 -0.0115 0.0100753653511
0.0045 -0.0105 0.0108702672606
0.0045 -0.0095 0.00964276691491
0.0045 -0.0085 0.00881358021112
0.0045 -0.0075 0.0124616819
0.0045 -0.0065 0.0168013637945
0.0045 -0.0055 0.0199003650394
0.0045 -0.0045 0.0213857315733
0.0045 -0.0035 0.0207991144807
0.0045 -0.0025 0.0184984854486
0.0045 -0.0015 0.0157016078465
0.0045 -0.0005 0.0136086509271
0.0045 0.0005 0.0128993196294
0.0045 0.0015 0.0135485445007
0.0045 0.0025 0.0148841109238
0.0045 0.0035 0.0157692649339
0.0045 0.0045 0.0152367940556
0.0045 0.0055 0.0128559459194
0.0045 0.0065 0.00867163845613
0.0045 0.0075 0.00427363510463
0.0045 0.0085 0.00197516502444
0.0045 0.0095 0.001176581975
0.0045 0.0105 0.00113883751308
0.0045 0.0115 0.00204892788979
0.0045 0.0125 0.00399329585661
0.0045 0.0135 0.00530683766646
0.0045 0.0145 0.00420454107346
0.0045 0.0155 0.00237915274238
0.0045 0.0165 0.00140840845313
0.0045 0.0175 0.000843655292632
0.0045 0.0185 0.0004361933562
0.0045 0.0195 0.000203424640542
0.0045 0.0205 0.000109893206999
0.0045 0.0215 5.91425339243e-05
0.0045 0.0225 3.33412824494e-05
0.0045 0.0235 2.12656124592e-05
0.0045 0.0245 1.56099799045e-05
0.0045 0.0255 1.29144038619e-05
0.0045 0.0265 1.15460702363e-05
0.0045 0.0275 1.07459317491e-05
0.0045 0.0285 1.03038229108e-05
0.0045 0.0295 9.78782897202e-06
0.0045 0.0305 1.16176980624e-05
0.0045 0.0315 7.05078025626e-06
0.0055 -0.0315 4.47623906522e-06
0.0055 -0.0305 7.69573043326e-06
0.0055 -0.0295 7.19165439298e-06
0.0055 -0.0285 7.81502968854e-06
0.0055 -0.0275 8.57583890854e-06
0.0055 -0.0265 1.019425221e-05
0.0055 -0.0255 1.40574048422e-05
0.0055 -0.0245 2.38790889629e-05
0.0055 -0.0235 5.20429380471e-05
0.0055 -0.0225 0.000162659298387
0.0055 -0.0215 0.000541902116899
0.0055 -0.0205 0.00188717281244
0.0055 -0.0195 0.00555874094223
0.0055 -0.0185 0.0103489559914
0.0055 -0.0175 0.0124053727447
0.0055 -0.0165 0.010585841062
0.0055 -0.0155 0.00698151322336
0.0055 -0.0145 0.00415827028907
0.0055 -0.0135 0.00308518244593
0.0055 -0.0125 0.00288059882683
0.0055 -0.0115 0.00290422026006
0.0055 -0.0105 0.00342645035678
0.0055 -0.0095 0.00378181872252
0.0055 -0.0085 0.00323177586939
0.0055 -0.0075 0.00446258736349
0.0055 -0.0065 0.00752891854034
0.0055 -0.0055 0.00983134144059
0.0055 -0.0045 0.0102875184442
0.0055 -0.0035 0.00899770535193
0.0055 -0.0025 0.00710114549993
0.0055 -0.0015 0.00561878675966
0.0055 -0.0005 0.00481979890675
0.0055 0.0005 0.00487260032415
0.0055 0.0015 0.00623144666628
0.0055 0.0025 0.00916912768332
0.0055 0.0035 0.0124191022971
0.0055 0.0045 0.0139223053988
0.0055 0.0055 0.0128093573685
0.0055 0.0065 0.00889751491444
0.0055 0.0075 0.00402988697625
0.0055 0.0085 0.00133568103078
0.0055 0.0095 0.00066342787079
0.0055 0.0105 0.000559739132168
0.0055 0.0115 0.000940698379768
0.0055 0.0125 0.00227406167953
0.0055 0.0135 0.00447176370362
0.0055 0.0145 0.00556749713896
0.0055 0.0155 0.00474193393735
0.0055 0.0165 0.00329452853148
0.0055 0.0175 0.00202955776043
0.0055 0.0185 0.00108345589765
0.0055 0.0195 0.000536224491327
0.0055 0.0205 0.000265654973043
0.0055 0.0215 0.00011633516721
0.0055 0.0225 5.72296538003e-05
0.0055 0.0235 3.16845777316e-05
0.0055 0.0245 2.04903254063e-05
0.0055 0.0255 1.51178142724e-05
0.0055 0.0265 1.23253239985e-05
0.0055 0.0275 1.07902010781e-05
0.0055 0.0285 1.0057615026e-05
0.0055 0.0295 9.56832482462e-06
0.0055 0.0305 1.23280948991e-05
0.0055 0.0315 7.82927682837e-06
0.0065 -0.0315 4.93675931424e-06
0.0065 -0.0305 8.41392326702e-06
0.0065 -0.0295 7.81034401686e-06
0.0065 -0.0285 8.6516236959e-06
0.0065 -0.0275 9.90866248247e-06
0.0065 -0.0265 1.25005844189e-05
0.0065 -0.0255 1.81714026271e-05
0.0065 -0.0245 3.15791915818e-05
0.0065 -0.0235 6.80734015384e-05
0.0065 -0.0225 0.000213138765819
0.0065 -0.0215 0.000722395691342
0.0065 -0.0205 0.00248441104715
0.0065 -0.0195 0.0067059650399
0.0065 -0.0185 0.011477047326
0.0065 -0.0175 0.0126577311786
0.0065 -0.0165 0.00953937802973
0.0065 -0.0155 0.00512023571343
0.0065 -0.0145 0.0023481309278
0.0065 -0.0135 0.00153719624008
0.0065 -0.0125 0.00124537158228
0.0065 -0.0115 0.00091137601083
0.0065 -0.0105 0.000862320254449
0.0065 -0.0095 0.000957088948935
0.0065 -0.0085 0.000999936749974
0.0065 -0.0075 0.00122506814845
0.0065 -0.0065 0.00193876991291
0.0065 -0.0055 0.00265866565687
0.0065 -0.0045 0.00277250783151
0.0065 -0.0035 0.0022644425218
0.0065 -0.0025 0.00180142083646
0.0065 -0.0015 0.00170141263548
0.0065 -0.0005 0.00165619834601
0.0065 0.0005 0.00167453847785
0.0065 0.0015 0.00260174601751
0.0065 0.0025 0.00590596982927
0.0065 0.0035 0.0107766510936
0.0065 0.0045 0.0139333373157
0.0065 0.0055 0.0135284024677
0.0065 0.0065 0.00930037650402
0.0065 0.0075 0.00396166830198
0.0065 0.0085 0.00120030695331
0.0065 0.0095 0.000539214522313
0.0065 0.0105 0.000352040366525
0.0065 0.0115 0.000429015210257
0.0065 0.0125 0.000951663148051
0.0065 0.0135 0.00250019379976
0.0065 0.0145 0.0046677800564
0.0065 0.0155 0.00583532407352
0.0065 0.0165 0.00542508489607
0.0065 0.0175 0.00409528998049
0.0065 0.0185 0.00257023125562
0.0065 0.0195 0.00138092251892
0.0065 0.0205 0.0006531260846
0.0065 0.0215 0.000262769941139
0.0065 0.0225 0.000104458531525
0.0065 0.0235 5.15147141375e-05
0.0065 0.0245 2.995354758e-05
0.0065 0.0255 1.91350543644e-05
0.0065 0.0265 1.36871245174e-05
0.0065 0.0275 1.10189327264e-05
0.0065 0.0285 9.91735011891e-06
0.0065 0.0295 9.45678448385e-06
0.0065 0.0305 1.29691143014e-05
0.0065 0.0315 8.48038213766e-06
0.0075 -0.0315 5.44559138689e-06
0.0075 -0.0305 9.29220128492e-06
0.0075 -0.0295 8.73929342417e-06
0.0075 -0.0285 1.00858832221e-05
0.0075 -0.0275 1.23857677928e-05
0.0075 -0.0265 1.69888835445e-05
0.0075 -0.0255 2.62115384686e-05
0.0075 -0.0245 4.67262358105e-05
0.0075 -0.0235 9.87203251508e-05
0.0075 -0.0225 0.00028847780703
0.0075 -0.0215 0.000949548935797
0.0075 -0.0205 0.00312569863152
0.0075 -0.0195 0.0076879374992
0.0075 -0.0185 0.0121598988179
0.0075 -0.0175 0.012489256123
0.0075 -0.0165 0.00861149038395
0.0075 -0.0155 0.00411449774552
0.0075 -0.0145 0.00164964118704
0.0075 -0.0135 0.000977585863534
0.0075 -0.0125 0.000682608606853
0.0075 -0.0115 0.000404307742515
0.0075 -0.0105 0.000316959754801
0.0075 -0.0095 0.00032127850468
0.0075 -0.0085 0.000383788407745
0.0075 -0.0075 0.000468448084005
0.0075 -0.0065 0.000570507066467
0.0075 -0.0055 0.000691997017031
0.0075 -0.0045 0.00073726445548
0.0075 -0.0035 0.000618850949428
0.0075 -0.0025 0.000527893418865
0.0075 -0.0015 0.000603983255019
0.0075 -0.0005 0.00073127778843
0.0075 0.0005 0.000904375031003
0.0075 0.0015 0.00194164038092
0.0075 0.0025 0.00560079916311
0.0075 0.0035 0.0112867720524
0.0075 0.0045 0.0150183763387
0.0075 0.0055 0.0141014037953
0.0075 0.0065 0.0088334876143
0.0075 0.0075 0.00330395088927
0.0075 0.0085 0.000949014674815
0.0075 0.0095 0.000425204641918
0.0075 0.0105 0.000247840883482
0.0075 0.0115 0.00024274216046
0.0075 0.0125 0.000429048893743
0.0075 0.0135 0.00111664769051
0.0075 0.0145 0.00258592399015
0.0075 0.0155 0.00443014041318
0.0075 0.0165 0.00574639144624
0.0075 0.0175 0.00588443390624
0.0075 0.0185 0.00482731998643
0.0075 0.0195 0.00311756589608
0.0075 0.0205 0.00153247784779
0.0075 0.0215 0.000574131190935
0.0075 0.0225 0.0002064563707
0.0075 0.0235 9.95001849077e-05
0.0075 0.0245 5.0138516781e-05
0.0075 0.0255 2.68522251575e-05
0.0075 0.0265 1.64339672852e-05
0.0075 0.0275 1.18037719897e-05
0.0075 0.0285 1.00625603256e-05
0.0075 0.0295 9.50988519603e-06
0.0075 0.0305 1.34765753055e-05
0.0075 0.0315 8.93986684962e-06
0.0085 -0.0315 6.10377135257e-06
0.0085 -0.0305 1.04664098543e-05
0.0085 -0.0295 1.01778545726e-05
0.0085 -0.0285 1.26868655106e-05
0.0085 -0.0275 1.74274606656e-05
0.0085 -0.0265 2.6824386534e-05
0.0085 -0.0255 4.54111766212e-05
0.0085 -0.0245 8.41235865589e-05
0.0085 -0.0235 0.000187899276763
0.0085 -0.0225 0.000483148274972
0.0085 -0.0215 0.00135721986434
0.0085 -0.0205 0.00392385582122
0.0085 -0.0195 0.0085842006737
0.0085 -0.0185 0.0124551425309
0.0085 -0.0175 0.0120065660518
0.0085 -0.0165 0.00780674834533
0.0085 -0.0155 0.00351080213817
0.0085 -0.0145 0.00130989595719
0.0085 -0.0135 0.00070284474665
0.0085 -0.0125 0.000457393059078
0.0085 -0.0115 0.000235619775938
0.0085 -0.0105 0.000148892857333
0.0085 -0.0095 0.000133259021604
0.0085 -0.0085 0.000146857709084
0.0085 -0.0075 0.00016148765749
0.0085 -0.0065 0.000177342745427
0.0085 -0.0055 0.00020064801181
0.0085 -0.0045 0.000213517053112
0.0085 -0.0035 0.000207444395168
0.0085 -0.0025 0.000213493725647
0.0085 -0.0015 0.000269275383862
0.0085 -0.0005 0.000420668158361
0.0085 0.0005 0.000797327056556
0.0085 0.0015 0.00236841440134
0.0085 0.0025 0.00668848233911
0.0085 0.0035 0.012734624022
0.0085 0.0045 0.0160197222734
0.0085 0.0055 0.0136734007267
0.0085 0.0065 0.00744431609164
0.0085 0.0075 0.00240903919681
0.0085 0.0085 0.000663813140223
0.0085 0.0095 0.000287114081249
0.0085 0.0105 0.000170741818472
0.0085 0.0115 0.000147404775156
0.0085 0.0125 0.000228840458189
0.0085 0.0135 0.000512824449816
0.0085 0.0145 0.00112537724895
0.0085 0.0155 0.00224766672437
0.0085 0.0165 0.00385460217701
0.0085 0.0175 0.00542783596926
0.0085 0.0185 0.00613413506389
0.0085 0.0195 0.00530675560096
0.0085 0.0205 0.0032702205206
0.0085 0.0215 0.00141957866852
0.0085 0.0225 0.0005559521681
0.0085 0.0235 0.000241705640567
0.0085 0.0245 9.3912472055e-05
0.0085 0.0255 4.21113385642e-05
0.0085 0.0265 2.15606312495e-05
0.0085 0.0275 1.35608797591e-05
0.0085 0.0285 1.06717481248e-05
0.0085 0.0295 9.79130094889e-06
0.0085 0.0305 1.4073116748e-05
0.0085 0.0315 9.41898891432e-06
0.0095 -0.0315 6.89834570795e-06
0.0095 -0.0305 1.20893849596e-05
0.0095 -0.0295 1.26589521904e-05
0.0095 -0.0285 1.76203123653e-05
0.0095 -0.0275 2.77992613096e-05
0.0095 -0.0265 4.99760775287e-05
0.0095 -0.0255 9.59783712837e-05
0.0095 -0.0245 0.00020528497461
0.0095 -0.0235 0.000456716212741
0.0095 -0.0225 0.000973197329022
0.0095 -0.0215 0.00217913743096
0.0095 -0.0205 0.00503648706142
0.0095 -0.0195 0.0093647314697
0.0095 -0.0185 0.0123095230917
0.0095 -0.0175 0.0112193457002
0.0095 -0.0165 0.00703658807362
0.0095 -0.0155 0.00307852657451
0.0095 -0.0145 0.00111137427948
0.0095 -0.0135 0.000534606679545
0.0095 -0.0125 0.000324310927532
0.0095 -0.0115 0.000161115937555
0.0095 -0.0105 9.17269043404e-05
0.0095 -0.0095 6.84300662867e-05
0.0095 -0.0085 6.46898074446e-05
0.0095 -0.0075 6.76113420644e-05
0.0095 -0.0065 7.30536923433e-05
0.0095 -0.0055 7.95183356077e-05
0.0095 -0.0045 8.55902750324e-05
0.0095 -0.0035 9.53876731294e-05
0.0095 -0.0025 0.000122072636823
0.0095 -0.0015 0.000188822076397
0.0095 -0.0005 0.00036181707244
0.0095 0.0005 0.000929198934486
0.0095 0.0015 0.00312118215535
0.0095 0.0025 0.00823294766702
0.0095 0.0035 0.0142740561172
0.0095 0.0045 0.0163212721584
0.0095 0.0055 0.0122662965421
0.0095 0.0065 0.00575131974524
0.0095 0.0075 0.0016997746878
0.0095 0.0085 0.000475483310038
0.0095 0.0095 0.000191791434493
0.0095 0.0105 0.0001153913518
0.0095 0.0115 9.38465479014e-05
0.0095 0.0125 0.000122697479784
0.0095 0.0135 0.000215377574322
0.0095 0.0145 0.000433487217279
0.0095 0.0155 0.000892834948957
0.0095 0.0165 0.0017484467814
0.0095 0.0175 0.00320808615788
0.0095 0.0185 0.00511212618582
0.0095 0.0195 0.00627523534917
0.0095 0.0205 0.00540859476215
0.0095 0.0215 0.00320153667277
0.0095 0.0225 0.00144266701599
0.0095 0.0235 0.000576992716416
0.0095 0.0245 0.00020118386109
0.0095 0.0255 7.00895991283e-05
0.0095 0.0265 3.06535271606e-05
0.0095 0.0275 1.69490123797e-05
0.0095 0.0285 1.19620037949e-05
0.0095 0.0295 1.03804398141e-05
0.0095 0.0305 1.48406178311e-05
0.0095 0.0315 9.97299398427e-06
0.0105 -0.0315 8.29658197355e-06
0.0105 -0.0305 1.50918641033e-05
0.0105 -0.0295 1.76130307719e-05
0.0105 -0.0285 2.76536768567e-05
0.0105 -0.0275 4.89898521917e-05
0.0105 -0.0265 0.000102423730682
0.0105 -0.0255 0.000251222774185
0.0105 -0.0245 0.00058123166962
0.0105 -0.0235 0.00119696307988
0.0105 -0.0225 0.00220978662829
0.0105 -0.0215 0.00385195510441
0.0105 -0.0205 0.00652323350927
0.0105 -0.0195 0.00977199911286
0.0105 -0.0185 0.0115467983335
0.0105 -0.0175 0.0100833952648
0.0105 -0.0165 0.00626080567162
0.0105 -0.0155 0.00278449084572
0.0105 -0.0145 0.00101890172397
0.0105 -0.0135 0.000434754153566
0.0105 -0.0125 0.000236021303007
0.0105 -0.0115 0.000118637657717
0.0105 -0.0105 6.72141862868e-05
0.0105 -0.0095 4.52205248768e-05
0.0105 -0.0085 3.73474433118e-05
0.0105 -0.0075 3.61243644905e-05
0.0105 -0.0065 3.76586261869e-05
0.0105 -0.0055 4.07840730735e-05
0.0105 -0.0045 4.72656460282e-05
0.0105 -0.0035 6.34510457573e-05
0.0105 -0.0025 0.000101636819012
0.0105 -0.0015 0.000181022031586
0.0105 -0.0005 0.000390405417445
0.0105 0.0005 0.00118354471091
0.0105 0.0015 0.00403430815647
0.0105 0.0025 0.0098552435763
0.0105 0.0035 0.0155095259812
0.0105 0.0045 0.0159034563372
0.0105 0.0055 0.0104554505122
0.0105 0.0065 0.00430185360367
0.0105 0.0075 0.00125822478535
0.0105 0.0085 0.000378239246605
0.0105 0.0095 0.000151825400079
0.0105 0.0105 8.59126014575e-05
0.0105 0.0115 6.34652333639e-05
0.0105 0.0125 6.97344916251e-05
0.0105 0.0135 0.000104016387056
0.0105 0.0145 0.000176626970721
0.0105 0.0155 0.000334591343427
0.0105 0.0165 0.000620936862029
0.0105 0.0175 0.00131281958413
0.0105 0.0185 0.00289345827186
0.0105 0.0195 0.00511731323683
0.0105 0.0205 0.00632306983857
0.0105 0.0215 0.00524288227163
0.0105 0.0225 0.00295899587115
0.0105 0.0235 0.00120924560539
0.0105 0.0245 0.000394760995116
0.0105 0.0255 0.00011998242015
0.0105 0.0265 4.81155116847e-05
0.0105 0.0275 2.2855687644e-05
0.0105 0.0285 1.41599679627e-05
0.0105 0.0295 1.13289704039e-05
0.0105 0.0305 1.58008372204e-05
0.0105 0.0315 1.06186244659e-05
0.0115 -0.0315 1.12378098223e-05
0.0115 -0.0305 2.18537199588e-05
0.0115 -0.0295 2.90902234658e-05
0.0115 -0.0285 5.00160942701e-05
0.0115 -0.0275 9.65322697785e-05
0.0115 -0.0265 0.000217767366011
0.0115 -0.0255 0.000601333289615
0.0115 -0.0245 0.00151255659092
0.0115 -0.0235 0.00303989809908
0.0115 -0.0225 0.0048537529773
0.0115 -0.0215 0.00651843175358
0.0115 -0.0205 0.00796856284614
0.0115 -0.0195 0.00934688496581
0.0115 -0.0185 0.00994329868649
0.0115 -0.0175 0.00855487669365
0.0115 -0.0165 0.00557561873804
0.0115 -0.0155 0.00276825210975
0.0115 -0.0145 0.00112924214532
0.0115 -0.0135 0.000446531999775
0.0115 -0.0125 0.000201635155593
0.0115 -0.0115 0.000102137989153
0.0115 -0.0105 5.95208856019e-05
0.0115 -0.0095 3.80484952615e-05
0.0115 -0.0085 2.86029830251e-05
0.0115 -0.0075 2.53813788605e-05
0.0115 -0.0065 2.52527215021e-05
0.0115 -0.0055 2.7537548732e-05
0.0115 -0.0045 3.4597422285e-05
0.0115 -0.0035 5.39810596652e-05
0.0115 -0.0025 0.000104252102103
0.0115 -0.0015 0.000224385241159
0.0115 -0.0005 0.000512962075107
0.0115 0.0005 0.00156133842083
0.0115 0.0015 0.00504535194286
0.0115 0.0025 0.0113617146505
0.0115 0.0035 0.0163001745989
0.0115 0.0045 0.0150170954099
0.0115 0.0055 0.00874321711499
0.0115 0.0065 0.00326501758342
0.0115 0.0075 0.000986744850858
0.0115 0.0085 0.000321616254204
0.0115 0.0095 0.000133698588332
0.0115 0.0105 7.16387430986e-05
0.0115 0.0115 4.78938025411e-05
0.0115 0.0125 4.5046367892e-05
0.0115 0.0135 5.71943975224e-05
0.0115 0.0145 8.49042256465e-05
0.0115 0.0155 0.000133209885046
0.0115 0.0165 0.000221965421326
0.0115 0.0175 0.000477515532314
0.0115 0.0185 0.00124915811913
0.0115 0.0195 0.00300910913792
0.0115 0.0205 0.00531068760944
0.0115 0.0215 0.00623409024451
0.0115 0.0225 0.00470678831263
0.0115 0.0235 0.00227894304674
0.0115 0.0245 0.000777619047351
0.0115 0.0255 0.000241961530486
0.0115 0.0265 7.92458417267e-05
0.0115 0.0275 3.21831725678e-05
0.0115 0.0285 1.75298490357e-05
0.0115 0.0295 1.27214727093e-05
0.0115 0.0305 1.69509183709e-05
0.0115 0.0315 1.13384002157e-05
0.0125 -0.0315 1.95599408765e-05
0.0125 -0.0305 3.95819866345e-05
0.0125 -0.0295 5.80869898191e-05
0.0125 -0.0285 0.000108827807464
0.0125 -0.0275 0.000217916343708
0.0125 -0.0265 0.000534217368529
0.0125 -0.0255 0.00151312208854
0.0125 -0.0245 0.00367545946547
0.0125 -0.0235 0.00637998029073
0.0125 -0.0225 0.00826148140271
0.0125 -0.0215 0.00880981466318
0.0125 -0.0205 0.0083182996465
0.0125 -0.0195 0.00765267290684
0.0125 -0.0185 0.00739468485507
0.0125 -0.0175 0.00677053432297
0.0125 -0.0165 0.00525367927771
0.0125 -0.0155 0.00331613235472
0.0125 -0.0145 0.00165658018878
0.0125 -0.0135 0.000678784660699
0.0125 -0.0125 0.000269199401621
0.0125 -0.0115 0.000122348130994
0.0125 -0.0105 6.3189312608e-05
0.0125 -0.0095 3.83654285164e-05
0.0125 -0.0085 2.75371671441e-05
0.0125 -0.0075 2.28495408948e-05
0.0125 -0.0065 2.14508879907e-05
0.0125 -0.0055 2.28687975127e-05
0.0125 -0.0045 2.94660284879e-05
0.0125 -0.0035 4.91092435616e-05
0.0125 -0.0025 0.000103625278602
0.0125 -0.0015 0.000262686585713
0.0125 -0.0005 0.000673051384474
0.0125 0.0005 0.00203160175739
0.0125 0.0015 0.00609739281109
0.0125 0.0025 0.0126625565915
0.0125 0.0035 0.0166750601455
0.0125 0.0045 0.0139184081757
0.0125 0.0055 0.00730231743197
0.0125 0.0065 0.00255390553143
0.0125 0.0075 0.000806243103297
0.0125 0.0085 0.000291340839763
0.0125 0.0095 0.000124335110149
0.0125 0.0105 6.39294187245e-05
0.0125 0.0115 4.01614873409e-05
0.0125 0.0125 3.38206137089e-05
0.0125 0.0135 3.72167954846e-05
0.0125 0.0145 4.78224975885e-05
0.0125 0.0155 6.7254608379e-05
0.0125 0.0165 0.000107335539615
0.0125 0.0175 0.000207824005189
0.0125 0.0185 0.000524609454575
0.0125 0.0195 0.00145621263236
0.0125 0.0205 0.00348666299117
0.0125 0.0215 0.00577188185983
0.0125 0.0225 0.00596815171718
0.0125 0.0235 0.00370983452247
0.0125 0.0245 0.00144430448363
0.0125 0.0255 0.00043656039176
0.0125 0.0265 0.000123579809678
0.0125 0.0275 4.64315882721e-05
0.0125 0.0285 2.27458690064e-05
0.0125 0.0295 1.48001852855e-05
0.0125 0.0305 1.84131089846e-05
0.0125 0.0315 1.21946317645e-05
0.0135 -0.0315 4.59581324839e-05
0.0135 -0.0305 9.08287139193e-05
0.0135 -0.0295 0.000131319187989
0.0135 -0.0285 0.000288867572252
0.0135 -0.0275 0.000625674121698
0.0135 -0.0265 0.00150606043109
0.0135 -0.0255 0.00377343155201
0.0135 -0.0245 0.00715544181526
0.0135 -0.0235 0.0094601768461
0.0135 -0.0225 0.00946370609225
0.0135 -0.0215 0.008068209571
0.0135 -0.0205 0.00630017588514
0.0135 -0.0195 0.00474937619372
0.0135 -0.0185 0.00438041823883
0.0135 -0.0175 0.00510132917913
0.0135 -0.0165 0.00533412116337
0.0135 -0.0155 0.00440908727706
0.0135 -0.0145 0.00273415727426
0.0135 -0.0135 0.00125868665316
0.0135 -0.0125 0.000482801372786
0.0135 -0.0115 0.000184977103516
0.0135 -0.0105 7.96341219661e-05
0.0135 -0.0095 4.66940399038e-05
0.0135 -0.0085 3.22630437591e-05
0.0135 -0.0075 2.54126717127e-05
0.0135 -0.0065 2.22512423628e-05
0.0135 -0.0055 2.21021552979e-05
0.0135 -0.0045 2.69972373834e-05
0.0135 -0.0035 4.40686315846e-05
0.0135 -0.0025 9.29766266242e-05
0.0135 -0.0015 0.000261231127225
0.0135 -0.0005 0.000793220191318
0.0135 0.0005 0.0025220361591
0.0135 0.0015 0.00715018634025
0.0135 0.0025 0.0137560209974
0.0135 0.0035 0.0167349800603
0.0135 0.0045 0.0127772154744
0.0135 0.0055 0.0061159097655
0.0135 0.0065 0.00202151033001
0.0135 0.0075 0.000653959346145
0.0135 0.0085 0.000262263313018
0.0135 0.0095 0.000114826415857
0.0135 0.0105 5.81045918279e-05
0.0135 0.0115 3.62192191586e-05
0.0135 0.0125 2.94115097568e-05
0.0135 0.0135 2.96102809305e-05
0.0135 0.0145 3.37455229177e-05
0.0135 0.0155 4.27429870629e-05
0.0135 0.0165 6.2563813154e-05
0.0135 0.0175 0.000112492720699
0.0135 0.0185 0.000253826814802
0.0135 0.0195 0.000705338130937
0.0135 0.0205 0.00199088126323
0.0135 0.0215 0.00443889266955
0.0135 0.0225 0.00627173305013
0.0135 0.0235 0.00513391443874
0.0135 0.0245 0.00238867826007
0.0135 0.0255 0.000696143040907
0.0135 0.0265 0.000192922064708
0.0135 0.0275 7.14055359481e-05
0.0135 0.0285 3.16246168246e-05
0.0135 0.0295 1.8179173475e-05
0.0135 0.0305 2.03567006078e-05
0.0135 0.0315 1.32254294427e-05
0.0145 -0.0315 0.000133843925716
0.0145 -0.0305 0.000256646737487
0.0145 -0.0295 0.000361116965187
0.0145 -0.0285 0.000764899333318
0.0145 -0.0275 0.00171206858794
0.0145 -0.0265 0.0038202509291
0.0145 -0.0255 0.00722021488049
0.0145 -0.0245 0.00986750011643
0.0145 -0.0235 0.00949083574705
0.0145 -0.0225 0.0069199378118
0.0145 -0.0215 0.0044713976693
0.0145 -0.0205 0.00296876156845
0.0145 -0.0195 0.00206603922285
0.0145 -0.0185 0.00207840350213
0.0145 -0.0175 0.00351773607389
0.0145 -0.0165 0.00498778138993
0.0145 -0.0155 0.00528472937335
0.0145 -0.0145 0.00408624113296
0.0145 -0.0135 0.00223988813757
0.0145 -0.0125 0.000923836144433
0.0145 -0.0115 0.000352570915512
0.0145 -0.0105 0.000145821188261
0.0145 -0.0095 7.45951497412e-05
0.0145 -0.0085 4.8102985603e-05
0.0145 -0.0075 3.56325804145e-05
0.0145 -0.0065 2.88524482091e-05
0.0145 -0.0055 2.5526985631e-05
0.0145 -0.0045 2.73362524231e-05
0.0145 -0.0035 4.04169175094e-05
0.0145 -0.0025 8.33566662304e-05
0.0145 -0.0015 0.000258393815239
0.0145 -0.0005 0.000892856860359
0.0145 0.0005 0.00300935766352
0.0145 0.0015 0.008180627083
0.0145 0.0025 0.0146729813022