% Model:              Benchmark260518.mph
% Version:            COMSOL 6.2.0.339
% Date:               May 19 2026, 17:42
% Dimension:          2
% Nodes:              4096
% Expressions:        1
% Description:        速度大小
% Length unit:        m
% x                       y                        spf.U (m/s)
5.0E-4                    -0.0315                  1.0624453360893733E-6
5.0E-4                    -0.0305                  2.143241934263123E-6
5.0E-4                    -0.0295                  2.38996181202599E-6
5.0E-4                    -0.0285                  2.6723400809275853E-6
5.0E-4                    -0.0275                  2.8427585520641294E-6
5.0E-4                    -0.0265                  2.9663797760021866E-6
5.0E-4                    -0.0255                  3.0648241543036567E-6
5.0E-4                    -0.0245                  3.145576757337591E-6
5.0E-4                    -0.0235                  3.2156159055163066E-6
5.0E-4                    -0.0225                  3.2800121174930593E-6
5.0E-4                    -0.0215                  3.3406807692384627E-6
5.0E-4                    -0.0205                  3.4000797838828797E-6
5.0E-4                    -0.0195                  3.4593486243711654E-6
5.0E-4                    -0.0185                  3.5192911056770395E-6
5.0E-4                    -0.0175                  3.5832015954931708E-6
5.0E-4                    -0.0165                  3.6620026649479186E-6
5.0E-4                    -0.0155                  3.7911638840146766E-6
5.0E-4                    -0.0145                  4.043191149342146E-6
5.0E-4                    -0.0135                  4.496145389886814E-6
5.0E-4                    -0.0125                  5.798529278637249E-6
5.0E-4                    -0.0115                  9.013243038409883E-6
5.0E-4                    -0.0105                  1.5272302165349598E-5
5.0E-4                    -0.0095                  2.6550362372158557E-5
5.0E-4                    -0.0085                  4.621455107779108E-5
5.0E-4                    -0.0075                  8.230998289581263E-5
5.0E-4                    -0.0065                  2.4675654429773253E-4
5.0E-4                    -0.0055                  5.64663536438439E-4
5.0E-4                    -0.0045                  8.93350083189818E-4
5.0E-4                    -0.0035                  0.001070462731370453
5.0E-4                    -0.0025                  9.892943885130992E-4
5.0E-4                    -0.0015                  9.522348804999706E-4
5.0E-4                    -5.0E-4                  0.005905671018624169
5.0E-4                    5.0E-4                   0.01912017060063605
5.0E-4                    0.0015                   0.0266995886377576
5.0E-4                    0.0025                   0.022240102004550667
5.0E-4                    0.0035                   0.01610775567588907
5.0E-4                    0.0045                   0.009378884704580702
5.0E-4                    0.0055                   0.004010756441778348
5.0E-4                    0.0065                   0.0010883785642735253
5.0E-4                    0.0075                   2.603108409416934E-4
5.0E-4                    0.0085                   1.0940827204255178E-4
5.0E-4                    0.0095                   1.5033514367505634E-4
5.0E-4                    0.0105                   6.787521206039858E-4
5.0E-4                    0.0115                   0.002547545711708607
5.0E-4                    0.0125                   0.00634115436786122
5.0E-4                    0.0135                   0.01031285116703179
5.0E-4                    0.0145                   0.011772561246186843
5.0E-4                    0.0155                   0.006845734389211547
5.0E-4                    0.0165                   0.001257544059554685
5.0E-4                    0.0175                   2.901609217527015E-4
5.0E-4                    0.0185                   7.555821911687655E-5
5.0E-4                    0.0195                   2.618592437650953E-5
5.0E-4                    0.0205                   1.2548917564409125E-5
5.0E-4                    0.0215                   8.444696177058854E-6
5.0E-4                    0.0225                   7.0163995107959895E-6
5.0E-4                    0.0235                   6.141214674100227E-6
5.0E-4                    0.0245                   5.710098570544365E-6
5.0E-4                    0.0255                   5.4211752158560075E-6
5.0E-4                    0.0265                   5.205494980050871E-6
5.0E-4                    0.0275                   4.980716815585986E-6
5.0E-4                    0.0285                   4.750853079438155E-6
5.0E-4                    0.0295                   4.308418735782396E-6
5.0E-4                    0.0305                   3.900078830050164E-6
5.0E-4                    0.0315                   1.957765604720294E-6
0.0015                    -0.0315                  2.075665884395754E-6
0.0015                    -0.0305                  4.1629607035411745E-6
0.0015                    -0.0295                  4.522359221825862E-6
0.0015                    -0.0285                  4.852261092162656E-6
0.0015                    -0.0275                  4.974873944662539E-6
0.0015                    -0.0265                  5.049090194911185E-6
0.0015                    -0.0255                  5.099943817835819E-6
0.0015                    -0.0245                  5.14200775245801E-6
0.0015                    -0.0235                  5.181671917416093E-6
0.0015                    -0.0225                  5.224267719031484E-6
0.0015                    -0.0215                  5.272415449691218E-6
0.0015                    -0.0205                  5.330149112620291E-6
0.0015                    -0.0195                  5.401767903337169E-6
0.0015                    -0.0185                  5.493642108523763E-6
0.0015                    -0.0175                  5.619830451917704E-6
0.0015                    -0.0165                  5.817153679829211E-6
0.0015                    -0.0155                  6.188481647317023E-6
0.0015                    -0.0145                  6.978942484558136E-6
0.0015                    -0.0135                  8.719181457051595E-6
0.0015                    -0.0125                  1.2875507348973786E-5
0.0015                    -0.0115                  2.179845161091965E-5
0.0015                    -0.0105                  3.8639547673477716E-5
0.0015                    -0.0095                  6.873098814745411E-5
0.0015                    -0.0085                  1.2216089470004561E-4
0.0015                    -0.0075                  3.0938471805621546E-4
0.0015                    -0.0065                  8.15372237792369E-4
0.0015                    -0.0055                  0.001424789463445142
0.0015                    -0.0045                  0.0017113959307649984
0.0015                    -0.0035                  0.0014516610662029506
0.0015                    -0.0025                  0.0013470584124575813
0.0015                    -0.0015                  0.006357114053151937
0.0015                    -5.0E-4                  0.016549475473831152
0.0015                    5.0E-4                   0.025847444023098805
0.0015                    0.0015                   0.026258824825845475
0.0015                    0.0025                   0.020270306017750303
0.0015                    0.0035                   0.01311429671314759
0.0015                    0.0045                   0.006516059389419679
0.0015                    0.0055                   0.002391059151234666
0.0015                    0.0065                   7.304274360912262E-4
0.0015                    0.0075                   2.3440826002363974E-4
0.0015                    0.0085                   1.0555411927881245E-4
0.0015                    0.0095                   1.405474153275484E-4
0.0015                    0.0105                   4.1922895664167853E-4
0.0015                    0.0115                   0.0014118536149150137
0.0015                    0.0125                   0.004541867853085531
0.0015                    0.0135                   0.00950990472054659
0.0015                    0.0145                   0.011875196171856587
0.0015                    0.0155                   0.008000026904920604
0.0015                    0.0165                   0.002674608728832525
0.0015                    0.0175                   6.078721045013046E-4
0.0015                    0.0185                   1.584671475056016E-4
0.0015                    0.0195                   5.4799175042195685E-5
0.0015                    0.0205                   2.4901481098131776E-5
0.0015                    0.0215                   1.5119704054785037E-5
0.0015                    0.0225                   1.1569644105657005E-5
0.0015                    0.0235                   9.883952253815888E-6
0.0015                    0.0245                   9.136837940326653E-6
0.0015                    0.0255                   8.76451540735718E-6
0.0015                    0.0265                   8.569026301995372E-6
0.0015                    0.0275                   8.41758439090946E-6
0.0015                    0.0285                   8.297502821615766E-6
0.0015                    0.0295                   7.862805047203986E-6
0.0015                    0.0305                   7.468678454405006E-6
0.0015                    0.0315                   3.819707915688834E-6
0.0025                    -0.0315                  2.1187017743845204E-6
0.0025                    -0.0305                  4.215309746120095E-6
0.0025                    -0.0295                  4.5429768868496915E-6
0.0025                    -0.0285                  4.773408035180649E-6
0.0025                    -0.0275                  4.710338870301348E-6
0.0025                    -0.0265                  4.592412625625251E-6
0.0025                    -0.0255                  4.4545832389765494E-6
0.0025                    -0.0245                  4.326843322669969E-6
0.0025                    -0.0235                  4.216009311831384E-6
0.0025                    -0.0225                  4.126795599418569E-6
0.0025                    -0.0215                  4.063174175014705E-6
0.0025                    -0.0205                  4.03077457409208E-6
0.0025                    -0.0195                  4.038685032360586E-6
0.0025                    -0.0185                  4.102156189536652E-6
0.0025                    -0.0175                  4.250494561453258E-6
0.0025                    -0.0165                  4.552784971592002E-6
0.0025                    -0.0155                  5.1926008099242535E-6
0.0025                    -0.0145                  6.6735640116179655E-6
0.0025                    -0.0135                  1.0350625712368651E-5
0.0025                    -0.0125                  1.896850418831215E-5
0.0025                    -0.0115                  3.649156847966212E-5
0.0025                    -0.0105                  6.810109113987256E-5
0.0025                    -0.0095                  1.1402333382908367E-4
0.0025                    -0.0085                  2.3664184751812577E-4
0.0025                    -0.0075                  6.762341042822731E-4
0.0025                    -0.0065                  0.0013222427957564258
0.0025                    -0.0055                  0.0013443957834825525
0.0025                    -0.0045                  4.904660850187449E-5
0.0025                    -0.0035                  0.0030744122670782388
0.0025                    -0.0025                  0.008451572175499944
0.0025                    -0.0015                  0.016327051018431637
0.0025                    -5.0E-4                  0.023937108050942277
0.0025                    5.0E-4                   0.02696797622222336
0.0025                    0.0015                   0.02352736249768849
0.0025                    0.0025                   0.016396708107325894
0.0025                    0.0035                   0.009221597519492952
0.0025                    0.0045                   0.003926293198600011
0.0025                    0.0055                   0.001357651654064324
0.0025                    0.0065                   4.772578150452568E-4
0.0025                    0.0075                   2.0046460748166322E-4
0.0025                    0.0085                   1.0696145444522912E-4
0.0025                    0.0095                   1.2494921843985479E-4
0.0025                    0.0105                   3.589613900388463E-4
0.0025                    0.0115                   0.0011547625416114722
0.0025                    0.0125                   0.003650752376343574
0.0025                    0.0135                   0.008601611692118483
0.0025                    0.0145                   0.01187859340746965
0.0025                    0.0155                   0.008764477967529596
0.0025                    0.0165                   0.00340694106469069
0.0025                    0.0175                   8.613187385759506E-4
0.0025                    0.0185                   2.2820198965262196E-4
0.0025                    0.0195                   8.07075010759109E-5
0.0025                    0.0205                   3.3507117594956663E-5
0.0025                    0.0215                   1.714259244569684E-5
0.0025                    0.0225                   1.0879482160950325E-5
0.0025                    0.0235                   8.469497224447547E-6
0.0025                    0.0245                   7.569393180154678E-6
0.0025                    0.0255                   7.323628701295427E-6
0.0025                    0.0265                   7.362344333951199E-6
0.0025                    0.0275                   7.508566157737377E-6
0.0025                    0.0285                   7.685427461616634E-6
0.0025                    0.0295                   7.528114045002622E-6
0.0025                    0.0305                   7.647540113636404E-6
0.0025                    0.0315                   4.102579896752058E-6
0.0035                    -0.0315                  2.181292812086396E-6
0.0035                    -0.0305                  4.2788698438503734E-6
0.0035                    -0.0295                  4.680769653181088E-6
0.0035                    -0.0285                  5.106419568385086E-6
0.0035                    -0.0275                  5.147096039237253E-6
0.0035                    -0.0265                  5.053399291308059E-6
0.0035                    -0.0255                  4.89092459587371E-6
0.0035                    -0.0245                  4.715002516575856E-6
0.0035                    -0.0235                  4.547177100038556E-6
0.0035                    -0.0225                  4.400754138014405E-6
0.0035                    -0.0215                  4.28570267532964E-6
0.0035                    -0.0205                  4.213370404894251E-6
0.0035                    -0.0195                  4.19925905186074E-6
0.0035                    -0.0185                  4.267493558151101E-6
0.0035                    -0.0175                  4.463175642520076E-6
0.0035                    -0.0165                  4.891065970511074E-6
0.0035                    -0.0155                  5.834310766136359E-6
0.0035                    -0.0145                  8.097587140258667E-6
0.0035                    -0.0135                  1.3840763209152504E-5
0.0035                    -0.0125                  2.8721172386496362E-5
0.0035                    -0.0115                  6.314693194670162E-5
0.0035                    -0.0105                  1.1111147572397803E-4
0.0035                    -0.0095                  1.6683463773094944E-4
0.0035                    -0.0085                  4.0280281664301765E-4
0.0035                    -0.0075                  9.072913193205149E-4
0.0035                    -0.0065                  9.553170930655226E-4
0.0035                    -0.0055                  0.0019963096638569927
0.0035                    -0.0045                  0.005998377213510086
0.0035                    -0.0035                  0.011715843347632949
0.0035                    -0.0025                  0.018235869500325175
0.0035                    -0.0015                  0.023893232416850232
0.0035                    -5.0E-4                  0.026513757033679048
0.0035                    5.0E-4                   0.024655698664859765
0.0035                    0.0015                   0.018659770882897435
0.0035                    0.0025                   0.011338414511131543
0.0035                    0.0035                   0.005494876419979086
0.0035                    0.0045                   0.0020997883045651205
0.0035                    0.0055                   7.377337467731392E-4
0.0035                    0.0065                   2.8332251592432276E-4
0.0035                    0.0075                   1.4336022629687705E-4
0.0035                    0.0085                   8.56237681014296E-5
0.0035                    0.0095                   9.84051698461844E-5
0.0035                    0.0105                   2.426227151534824E-4
0.0035                    0.0115                   8.221645440764904E-4
0.0035                    0.0125                   0.0028488878121645115
0.0035                    0.0135                   0.007534784133596534
0.0035                    0.0145                   0.011698763064294527
0.0035                    0.0155                   0.009986183537450975
0.0035                    0.0165                   0.004726274332688178
0.0035                    0.0175                   0.0014364149803199795
0.0035                    0.0185                   4.3157335626596186E-4
0.0035                    0.0195                   1.408694838250255E-4
0.0035                    0.0205                   5.486823163160609E-5
0.0035                    0.0215                   2.4811712474824184E-5
0.0035                    0.0225                   1.3792850180271218E-5
0.0035                    0.0235                   9.670830298001528E-6
0.0035                    0.0245                   8.23548751760273E-6
0.0035                    0.0255                   7.848197082931894E-6
0.0035                    0.0265                   7.86771840051185E-6
0.0035                    0.0275                   7.978162073392513E-6
0.0035                    0.0285                   8.044505890998309E-6
0.0035                    0.0295                   7.682989132945708E-6
0.0035                    0.0305                   8.058195153533434E-6
0.0035                    0.0315                   4.519704658021294E-6
0.0045                    -0.0315                  2.2144068289715605E-6
0.0045                    -0.0305                  4.25740573016511E-6
0.0045                    -0.0295                  4.622515638007756E-6
0.0045                    -0.0285                  5.17372023034185E-6
0.0045                    -0.0275                  5.360498991303275E-6
0.0045                    -0.0265                  5.3646474286996915E-6
0.0045                    -0.0255                  5.241214613523159E-6
0.0045                    -0.0245                  5.062805442510118E-6
0.0045                    -0.0235                  4.868003291426515E-6
0.0045                    -0.0225                  4.682773476320235E-6
0.0045                    -0.0215                  4.526123438799582E-6
0.0045                    -0.0205                  4.416948547570264E-6
0.0045                    -0.0195                  4.378928376089571E-6
0.0045                    -0.0185                  4.44811543934631E-6
0.0045                    -0.0175                  4.692034681528278E-6
0.0045                    -0.0165                  5.265824713320596E-6
0.0045                    -0.0155                  6.574702356942885E-6
0.0045                    -0.0145                  9.7023890758939E-6
0.0045                    -0.0135                  1.7518151464088268E-5
0.0045                    -0.0125                  3.865267201209639E-5
0.0045                    -0.0115                  9.515644630589496E-5
0.0045                    -0.0105                  1.7479126639042693E-4
0.0045                    -0.0095                  2.6249039328504455E-4
0.0045                    -0.0085                  5.432708093094589E-4
0.0045                    -0.0075                  0.0012499340689692278
0.0045                    -0.0065                  0.003901242700362874
0.0045                    -0.0055                  0.008854342155209067
0.0045                    -0.0045                  0.014834096078911634
0.0045                    -0.0035                  0.020475646755787075
0.0045                    -0.0025                  0.024593467958386375
0.0045                    -0.0015                  0.026100253109541085
0.0045                    -5.0E-4                  0.024293639016153272
0.0045                    5.0E-4                   0.01922793054179807
0.0045                    0.0015                   0.012411187427106498
0.0045                    0.0025                   0.006445172205544795
0.0045                    0.0035                   0.0027560954770642974
0.0045                    0.0045                   0.0010277318414734196
0.0045                    0.0055                   3.915345213365745E-4
0.0045                    0.0065                   1.7815397933179251E-4
0.0045                    0.0075                   9.575808038375456E-5
0.0045                    0.0085                   6.358839561021383E-5
0.0045                    0.0095                   7.460801546285398E-5
0.0045                    0.0105                   1.6178052225954194E-4
0.0045                    0.0115                   5.6670400541167E-4
0.0045                    0.0125                   0.0020614775980007274
0.0045                    0.0135                   0.006077251202720136
0.0045                    0.0145                   0.01094040565956739
0.0045                    0.0155                   0.011215891203774619
0.0045                    0.0165                   0.006664743066400095
0.0045                    0.0175                   0.0025637613035462783
0.0045                    0.0185                   8.551340745878408E-4
0.0045                    0.0195                   2.8227390706110774E-4
0.0045                    0.0205                   9.613437580894378E-5
0.0045                    0.0215                   3.848003297114171E-5
0.0045                    0.0225                   1.837749200041462E-5
0.0045                    0.0235                   1.1428940039592113E-5
0.0045                    0.0245                   9.05822728729472E-6
0.0045                    0.0255                   8.343477395076766E-6
0.0045                    0.0265                   8.208348261872454E-6
0.0045                    0.0275                   8.163584280739344E-6
0.0045                    0.0285                   8.046159540911822E-6
0.0045                    0.0295                   7.563606572878487E-6
0.0045                    0.0305                   8.238851521954151E-6
0.0045                    0.0315                   4.779861808939543E-6
0.0055                    -0.0315                  2.2486519261031424E-6
0.0055                    -0.0305                  4.259914741183402E-6
0.0055                    -0.0295                  4.574079807300882E-6
0.0055                    -0.0285                  5.19180407262558E-6
0.0055                    -0.0275                  5.502122842704741E-6
0.0055                    -0.0265                  5.63422749325268E-6
0.0055                    -0.0255                  5.602424553372479E-6
0.0055                    -0.0245                  5.472355871955663E-6
0.0055                    -0.0235                  5.291526846042683E-6
0.0055                    -0.0225                  5.098113329272207E-6
0.0055                    -0.0215                  4.921740909252556E-6
0.0055                    -0.0205                  4.790546884245494E-6
0.0055                    -0.0195                  4.739372019982345E-6
0.0055                    -0.0185                  4.823500987930219E-6
0.0055                    -0.0175                  5.150118237937508E-6
0.0055                    -0.0165                  5.959488745930022E-6
0.0055                    -0.0155                  7.832202918833037E-6
0.0055                    -0.0145                  1.2229594478958215E-5
0.0055                    -0.0135                  2.2904811117609544E-5
0.0055                    -0.0125                  5.2268375662082775E-5
0.0055                    -0.0115                  1.4727657668145978E-4
0.0055                    -0.0105                  3.374379890676626E-4
0.0055                    -0.0095                  6.699703423014835E-4
0.0055                    -0.0085                  0.0018619310016515526
0.0055                    -0.0075                  0.005224472323533065
0.0055                    -0.0065                  0.010809708653563021
0.0055                    -0.0055                  0.016928399760063714
0.0055                    -0.0045                  0.021960083190549262
0.0055                    -0.0035                  0.02496929853010627
0.0055                    -0.0025                  0.0254037067952298
0.0055                    -0.0015                  0.023047595451443238
0.0055                    -5.0E-4                  0.018224244615726425
0.0055                    5.0E-4                   0.012093861043218718
0.0055                    0.0015                   0.006559960257079902
0.0055                    0.0025                   0.0029818969362234394
0.0055                    0.0035                   0.0012263236675611165
0.0055                    0.0045                   4.830569441697451E-4
0.0055                    0.0055                   2.137480226844033E-4
0.0055                    0.0065                   1.2152879973526483E-4
0.0055                    0.0075                   6.804545714675501E-5
0.0055                    0.0085                   4.6989677026842215E-5
0.0055                    0.0095                   5.6806315208611306E-5
0.0055                    0.0105                   1.2284696528748116E-4
0.0055                    0.0115                   4.1505534061132257E-4
0.0055                    0.0125                   0.0014061012633016484
0.0055                    0.0135                   0.004378819062124382
0.0055                    0.0145                   0.009345861901362105
0.0055                    0.0155                   0.011810578388091247
0.0055                    0.0165                   0.008912531856283133
0.0055                    0.0175                   0.004306222595755107
0.0055                    0.0185                   0.001570519632784966
0.0055                    0.0195                   5.497120614760516E-4
0.0055                    0.0205                   1.7894128472920075E-4
0.0055                    0.0215                   5.943606525086847E-5
0.0055                    0.0225                   2.478371626232094E-5
0.0055                    0.0235                   1.391249256641864E-5
0.0055                    0.0245                   1.0193819450508128E-5
0.0055                    0.0255                   8.941422443770824E-6
0.0055                    0.0265                   8.530742897602945E-6
0.0055                    0.0275                   8.271032045016693E-6
0.0055                    0.0285                   7.995655616686446E-6
0.0055                    0.0295                   7.462040378249664E-6
0.0055                    0.0305                   8.442398233243379E-6
0.0055                    0.0315                   5.029481741013829E-6
0.0065                    -0.0315                  2.2801779140557034E-6
0.0065                    -0.0305                  4.268874278715299E-6
0.0065                    -0.0295                  4.527954284762745E-6
0.0065                    -0.0285                  5.172839645386221E-6
0.0065                    -0.0275                  5.565086800098781E-6
0.0065                    -0.0265                  5.811229948366127E-6
0.0065                    -0.0255                  5.889249553543844E-6
0.0065                    -0.0245                  5.841047523279347E-6
0.0065                    -0.0235                  5.70849080039486E-6
0.0065                    -0.0225                  5.536546888096958E-6
0.0065                    -0.0215                  5.366791791607212E-6
0.0065                    -0.0205                  5.24066499951971E-6
0.0065                    -0.0195                  5.211498371966204E-6
0.0065                    -0.0185                  5.370175216404452E-6
0.0065                    -0.0175                  5.898340539828454E-6
0.0065                    -0.0165                  7.186427059754735E-6
0.0065                    -0.0155                  1.0150435008535723E-5
0.0065                    -0.0145                  1.6993719772058752E-5
0.0065                    -0.0135                  3.4237263150345235E-5
0.0065                    -0.0125                  8.093709917372125E-5
0.0065                    -0.0115                  2.586131313919982E-4
0.0065                    -0.0105                  7.281842272467882E-4
0.0065                    -0.0095                  0.0020299645865308473
0.0065                    -0.0085                  0.005536315793864682
0.0065                    -0.0075                  0.0114425231510248
0.0065                    -0.0065                  0.017720527270641384
0.0065                    -0.0055                  0.02236623123698694