% Model:              Benchmark260518.mph
% Version:            COMSOL 6.2.0.339
% Date:               May 19 2026, 18:56
% Dimension:          2
% Nodes:              4096
% Expressions:        1
% Description:        速度大小
% Length unit:        m
% x                       y                        spf.U (m/s)
% mirrored_by_python_y_to_minus_y, coord_match_decimals=12
0.0005 -0.0315 3.59052049673e-06
0.0005 -0.0305 1.58719920672e-05
0.0005 -0.0295 5.42350569743e-05
0.0005 -0.0285 0.000179593093796
0.0005 -0.0275 0.00069253973599
0.0005 -0.0265 0.000783848462491
0.0005 -0.0255 0.026492252194
0.0005 -0.0245 0.0694741667126
0.0005 -0.0235 0.0875064905356
0.0005 -0.0225 0.0506895335981
0.0005 -0.0215 0.00519626318598
0.0005 -0.0205 0.00237110321574
0.0005 -0.0195 0.000739925718473
0.0005 -0.0185 0.000472340608677
0.0005 -0.0175 0.000278149064082
0.0005 -0.0165 0.000129285261566
0.0005 -0.0155 7.85053269276e-05
0.0005 -0.0145 7.91274918218e-05
0.0005 -0.0135 0.000124936368855
0.0005 -0.0125 0.000244550621205
0.0005 -0.0115 0.000454023680587
0.0005 -0.0105 0.00084443483751
0.0005 -0.0095 0.00146803803747
0.0005 -0.0085 0.00195483499731
0.0005 -0.0075 0.00178280773673
0.0005 -0.0065 0.000945827991753
0.0005 -0.0055 0.00156016972652
0.0005 -0.0045 0.00312412685012
0.0005 -0.0035 0.00453179687498
0.0005 -0.0025 0.00550974753901
0.0005 -0.0015 0.00589178803917
0.0005 -0.0005 0.00561327617993
0.0005 0.0005 0.00475703312229
0.0005 0.0015 0.00354613544551
0.0005 0.0025 0.00229242459369
0.0005 0.0035 0.0013070239011
0.0005 0.0045 0.000786465783864
0.0005 0.0055 0.000580730564276
0.0005 0.0065 0.000388565705
0.0005 0.0075 0.000179153450817
0.0005 0.0085 5.94478142344e-05
0.0005 0.0095 2.42147073149e-05
0.0005 0.0105 1.284599612e-05
0.0005 0.0115 8.95648610184e-06
0.0005 0.0125 7.23785390586e-06
0.0005 0.0135 6.20885894608e-06
0.0005 0.0145 5.63684518694e-06
0.0005 0.0155 5.29860929927e-06
0.0005 0.0165 5.09076941612e-06
0.0005 0.0175 4.94869950363e-06
0.0005 0.0185 4.83865125237e-06
0.0005 0.0195 4.7401956707e-06
0.0005 0.0205 4.63512530979e-06
0.0005 0.0215 4.52810597193e-06
0.0005 0.0225 4.4094345727e-06
0.0005 0.0235 4.27227350904e-06
0.0005 0.0245 4.14086934096e-06
0.0005 0.0255 3.989964094e-06
0.0005 0.0265 3.82131938418e-06
0.0005 0.0275 3.6479478299e-06
0.0005 0.0285 3.40105094066e-06
0.0005 0.0295 3.05329800793e-06
0.0005 0.0305 2.80200701837e-06
0.0005 0.0315 1.40395666746e-06
0.0015 -0.0315 7.01761571394e-06
0.0015 -0.0305 3.0883871135e-05
0.0015 -0.0295 0.00010658891224
0.0015 -0.0285 0.000393275089916
0.0015 -0.0275 0.00150574579218
0.0015 -0.0265 0.0011799920512
0.0015 -0.0255 0.0231678231851
0.0015 -0.0245 0.0639504293842
0.0015 -0.0235 0.0859644432824
0.0015 -0.0225 0.0622075099485
0.0015 -0.0215 0.0155816735361
0.0015 -0.0205 0.00454662684164
0.0015 -0.0195 0.00197992156304
0.0015 -0.0185 0.000949474108408
0.0015 -0.0175 0.000578295657525
0.0015 -0.0165 0.000310857202221
0.0015 -0.0155 0.000192363405011
0.0015 -0.0145 0.000206876239171
0.0015 -0.0135 0.000347651552748
0.0015 -0.0125 0.000632804521214
0.0015 -0.0115 0.00115146883103
0.0015 -0.0105 0.00200472111042
0.0015 -0.0095 0.00271378578986
0.0015 -0.0085 0.00197413683168
0.0015 -0.0075 0.00201599828117
0.0015 -0.0065 0.00592960481286
0.0015 -0.0055 0.0101449743149
0.0015 -0.0045 0.0137245489501
0.0015 -0.0035 0.0163955231724
0.0015 -0.0025 0.0180101068294
0.0015 -0.0015 0.0184446214741
0.0015 -0.0005 0.0176312199819
0.0015 0.0005 0.0156261149508
0.0015 0.0015 0.0126568180279
0.0015 0.0025 0.00916067774829
0.0015 0.0035 0.00575894738643
0.0015 0.0045 0.00311265966599
0.0015 0.0055 0.00161056150475
0.0015 0.0065 0.000863728615975
0.0015 0.0075 0.00037708593524
0.0015 0.0085 0.000123875046289
0.0015 0.0095 5.06185777999e-05
0.0015 0.0105 2.57743736998e-05
0.0015 0.0115 1.63225608437e-05
0.0015 0.0125 1.21470160353e-05
0.0015 0.0135 9.95237199581e-06
0.0015 0.0145 8.81717990818e-06
0.0015 0.0155 8.21826738414e-06
0.0015 0.0165 7.88964650164e-06
0.0015 0.0175 7.6915203859e-06
0.0015 0.0185 7.55363724313e-06
0.0015 0.0195 7.43809798226e-06
0.0015 0.0205 7.32057407793e-06
0.0015 0.0215 7.20303519352e-06
0.0015 0.0225 7.0776324853e-06
0.0015 0.0235 6.94229528913e-06
0.0015 0.0245 6.8229747999e-06
0.0015 0.0255 6.70005540234e-06
0.0015 0.0265 6.57817086589e-06
0.0015 0.0275 6.4580213709e-06
0.0015 0.0285 6.2720767837e-06
0.0015 0.0295 5.86735296542e-06
0.0015 0.0305 5.47772505074e-06
0.0015 0.0315 2.7496623678e-06
0.0025 -0.0315 6.39556124849e-06
0.0025 -0.0305 2.66650336991e-05
0.0025 -0.0295 0.000104528121353
0.0025 -0.0285 0.000472074472265
0.0025 -0.0275 0.00181673508764
0.0025 -0.0265 0.000648404042551
0.0025 -0.0255 0.0181639839802
0.0025 -0.0245 0.0563736760685
0.0025 -0.0235 0.0827628470352
0.0025 -0.0225 0.0705982812001
0.0025 -0.0215 0.0289689712965
0.0025 -0.0205 0.00194812368536
0.0025 -0.0195 0.00391581015827
0.0025 -0.0185 0.0015676787938
0.0025 -0.0175 0.000828734226313
0.0025 -0.0165 0.000512930194712
0.0025 -0.0155 0.000363428549118
0.0025 -0.0145 0.00047479673923
0.0025 -0.0135 0.00083240635256
0.0025 -0.0125 0.00147753837428
0.0025 -0.0115 0.00229712931541
0.0025 -0.0105 0.00236055547552
0.0025 -0.0095 0.000632883781611
0.0025 -0.0085 0.00625258441062
0.0025 -0.0075 0.0133489408106
0.0025 -0.0065 0.0197357143414
0.0025 -0.0055 0.0244751988343
0.0025 -0.0045 0.0275505620144
0.0025 -0.0035 0.0292795082462
0.0025 -0.0025 0.0299743274799
0.0025 -0.0015 0.0298057407223
0.0025 -0.0005 0.0287830278494
0.0025 0.0005 0.0267991885677
0.0025 0.0015 0.0236896094014
0.0025 0.0025 0.0193428037288
0.0025 0.0035 0.0139754738727
0.0025 0.0045 0.00839257411872
0.0025 0.0055 0.00402253880241
0.0025 0.0065 0.0016460867617
0.0025 0.0075 0.000602858972623
0.0025 0.0085 0.000191554605902
0.0025 0.0095 7.94501395699e-05
0.0025 0.0105 3.73288575508e-05
0.0025 0.0115 2.02760614967e-05
0.0025 0.0125 1.23707217482e-05
0.0025 0.0135 8.72595838521e-06
0.0025 0.0145 7.05432568679e-06
0.0025 0.0155 6.29182608623e-06
0.0025 0.0165 5.94949646673e-06
0.0025 0.0175 5.79973149652e-06
0.0025 0.0185 5.73464096754e-06
0.0025 0.0195 5.70505759351e-06
0.0025 0.0205 5.69264644784e-06
0.0025 0.0215 5.69262187222e-06
0.0025 0.0225 5.70949026086e-06
0.0025 0.0235 5.75294714002e-06
0.0025 0.0245 5.82920433057e-06
0.0025 0.0255 5.94253625181e-06
0.0025 0.0265 6.08838500658e-06
0.0025 0.0275 6.22392257498e-06
0.0025 0.0285 6.30693106527e-06
0.0025 0.0295 6.01657462547e-06
0.0025 0.0305 5.60330981555e-06
0.0025 0.0315 2.82203700708e-06
0.0035 -0.0315 5.14882049565e-06
0.0035 -0.0305 1.93509118864e-05
0.0035 -0.0295 9.04631192205e-05
0.0035 -0.0285 0.000443605396088
0.0035 -0.0275 0.00177729834665
0.0035 -0.0265 0.00106232371499
0.0035 -0.0255 0.0120771609499
0.0035 -0.0245 0.0466450336573
0.0035 -0.0235 0.0774789759998
0.0035 -0.0225 0.0763298225297
0.0035 -0.0215 0.0452151864557
0.0035 -0.0205 0.00852841859731
0.0035 -0.0195 0.00530158788426
0.0035 -0.0185 0.00322855484047
0.0035 -0.0175 0.001623538285
0.0035 -0.0165 0.00108182873891
0.0035 -0.0155 0.000998865480325
0.0035 -0.0145 0.00148770874103
0.0035 -0.0135 0.00256214628756
0.0035 -0.0125 0.00357649066066
0.0035 -0.0115 0.00282453481234
0.0035 -0.0105 0.00249338689281
0.0035 -0.0095 0.0106303499076
0.0035 -0.0085 0.0199677935113
0.0035 -0.0075 0.0275699409374
0.0035 -0.0065 0.0325447707311
0.0035 -0.0055 0.0351224894576
0.0035 -0.0045 0.0360387114399
0.0035 -0.0035 0.0360320476676
0.0035 -0.0025 0.0356033195866
0.0035 -0.0015 0.0350014462448
0.0035 -0.0005 0.0342327629835
0.0035 0.0005 0.0331007809798
0.0035 0.0015 0.0312556535139
0.0035 0.0025 0.0281877483566
0.0035 0.0035 0.0233580874606
0.0035 0.0045 0.016712083342
0.0035 0.0055 0.00952390193032
0.0035 0.0065 0.00405729137354
0.0035 0.0075 0.00135987553481
0.0035 0.0085 0.000448835605694
0.0035 0.0095 0.000165522874864
0.0035 0.0105 7.59103665579e-05
0.0035 0.0115 3.55366345941e-05
0.0035 0.0125 1.84425522192e-05
0.0035 0.0135 1.13996445475e-05
0.0035 0.0145 8.34906427754e-06
0.0035 0.0155 7.00352123079e-06
0.0035 0.0165 6.40923396573e-06
0.0035 0.0175 6.14795767519e-06
0.0035 0.0185 6.0320456443e-06
0.0035 0.0195 5.9813058132e-06
0.0035 0.0205 5.96553091167e-06
0.0035 0.0215 5.97993014863e-06
0.0035 0.0225 6.03218847671e-06
0.0035 0.0235 6.1315146377e-06
0.0035 0.0245 6.28118438119e-06
0.0035 0.0255 6.47067848768e-06
0.0035 0.0265 6.67131060871e-06
0.0035 0.0275 6.80377645866e-06
0.0035 0.0285 6.77348385291e-06
0.0035 0.0295 6.23420483013e-06
0.0035 0.0305 5.72071920657e-06
0.0035 0.0315 2.91993829364e-06
0.0045 -0.0315 4.0813225202e-06
0.0045 -0.0305 1.60284089934e-05
0.0045 -0.0295 7.95460094892e-05
0.0045 -0.0285 0.000357754688157
0.0045 -0.0275 0.00137310768589
0.0045 -0.0265 0.00151170190855
0.0045 -0.0255 0.00580096324729
0.0045 -0.0245 0.0351875126776
0.0045 -0.0235 0.0694668009114
0.0045 -0.0225 0.0782003033214
0.0045 -0.0215 0.0598656875919
0.0045 -0.0205 0.0247313863509
0.0045 -0.0195 0.0012088844133
0.0045 -0.0185 0.0053094288199
0.0045 -0.0175 0.00349746053119
0.0045 -0.0165 0.00296426951031
0.0045 -0.0155 0.00355590671102
0.0045 -0.0145 0.00480244017698
0.0045 -0.0135 0.00558933553341
0.0045 -0.0125 0.00366283182156
0.0045 -0.0115 0.0048403093186
0.0045 -0.0105 0.0150522359085
0.0045 -0.0095 0.0256727602441
0.0045 -0.0085 0.0334829642628
0.0045 -0.0075 0.037810531161
0.0045 -0.0065 0.0391655950469
0.0045 -0.0055 0.0385677890847
0.0045 -0.0045 0.0369973765351
0.0045 -0.0035 0.0352716889421
0.0045 -0.0025 0.0339580831274
0.0045 -0.0015 0.0333103271333
0.0045 -0.0005 0.0332436402029
0.0045 0.0005 0.0333967501821
0.0045 0.0015 0.0332967890172
0.0045 0.0025 0.0324177277497
0.0045 0.0035 0.0300431860014
0.0045 0.0045 0.0251678223178
0.0045 0.0055 0.0174792999941
0.0045 0.0065 0.00904937218855
0.0045 0.0075 0.00338072994828
0.0045 0.0085 0.00114597061628
0.0045 0.0095 0.000452027190632
0.0045 0.0105 0.000182015973087
0.0045 0.0115 6.82628016194e-05
0.0045 0.0125 3.10877538693e-05
0.0045 0.0135 1.71265779987e-05
0.0045 0.0145 1.13697387856e-05
0.0045 0.0155 8.76927252637e-06
0.0045 0.0165 7.55433585096e-06
0.0045 0.0175 6.95276195192e-06
0.0045 0.0185 6.62742509135e-06
0.0045 0.0195 6.43339588981e-06
0.0045 0.0205 6.31942845189e-06
0.0045 0.0215 6.27906488728e-06
0.0045 0.0225 6.3187596574e-06
0.0045 0.0235 6.43878240003e-06
0.0045 0.0245 6.6248902254e-06
0.0045 0.0255 6.84134579967e-06
0.0045 0.0265 7.02654874708e-06
0.0045 0.0275 7.06687148341e-06
0.0045 0.0285 6.87190318285e-06
0.0045 0.0295 6.17864282822e-06
0.0045 0.0305 5.71653175125e-06
0.0045 0.0315 2.97626534678e-06
0.0055 -0.0315 3.21718680622e-06
0.0055 -0.0305 1.37982663339e-05
0.0055 -0.0295 6.43442153514e-05
0.0055 -0.0285 0.000253815147002
0.0055 -0.0275 0.000855848902018
0.0055 -0.0265 0.00147426116988
0.0055 -0.0255 0.00114180801902
0.0055 -0.0245 0.0231916110783
0.0055 -0.0235 0.0581298610814
0.0055 -0.0225 0.0757036304
0.0055 -0.0215 0.0696958883547
0.0055 -0.0205 0.0445375370607
0.0055 -0.0195 0.0138868608813
0.0055 -0.0185 0.00329899470324
0.0055 -0.0175 0.00621438243385
0.0055 -0.0165 0.00680880073215
0.0055 -0.0155 0.0077341993667
0.0055 -0.0145 0.00738109806801
0.0055 -0.0135 0.00391354992441
0.0055 -0.0125 0.00774192102696
0.0055 -0.0115 0.0195858803278
0.0055 -0.0105 0.0306773939525
0.0055 -0.0095 0.0380384685569
0.0055 -0.0085 0.0411853770495
0.0055 -0.0075 0.0408378603848
0.0055 -0.0065 0.0380911647537
0.0055 -0.0055 0.0340861465054
0.0055 -0.0045 0.0299607384508
0.0055 -0.0035 0.0266912400104
0.0055 -0.0025 0.0248684326163
0.0055 -0.0015 0.0246952919034
0.0055 -0.0005 0.0260204720594
0.0055 0.0005 0.0283457674502
0.0055 0.0015 0.0308352313141
0.0055 0.0025 0.0326075798973
0.0055 0.0035 0.0330099426224
0.0055 0.0045 0.0311554683754
0.0055 0.0055 0.0255582802332
0.0055 0.0065 0.0163637065433
0.0055 0.0075 0.00752309702561
0.0055 0.0085 0.00270400251297
0.0055 0.0095 0.00105372302804
0.0055 0.0105 0.000420775937486
0.0055 0.0115 0.000147964533949
0.0055 0.0125 5.88430538309e-05
0.0055 0.0135 3.00842554393e-05
0.0055 0.0145 1.85409745218e-05
0.0055 0.0155 1.33368446192e-05
0.0055 0.0165 1.06860995314e-05
0.0055 0.0175 9.18375729484e-06
0.0055 0.0185 8.22890343193e-06
0.0055 0.0195 7.57529985715e-06
0.0055 0.0205 7.13230353785e-06
0.0055 0.0215 6.87734140882e-06
0.0055 0.0225 6.79934985826e-06
0.0055 0.0235 6.86876851405e-06
0.0055 0.0245 7.03431086683e-06
0.0055 0.0255 7.22056062913e-06
0.0055 0.0265 7.33183376662e-06
0.0055 0.0275 7.24438308525e-06
0.0055 0.0285 6.91116812343e-06
0.0055 0.0295 6.13701096832e-06
0.0055 0.0305 5.74260188329e-06
0.0055 0.0315 3.03276780536e-06
0.0065 -0.0315 2.47858774459e-06
0.0065 -0.0305 1.11019981231e-05
0.0065 -0.0295 4.21527975635e-05
0.0065 -0.0285 0.000155085336647
0.0065 -0.0275 0.000484970956493
0.0065 -0.0265 0.00133274966502
0.0065 -0.0255 0.00152201841264
0.0065 -0.0245 0.0120861252198
0.0065 -0.0235 0.0433236831386
0.0065 -0.0225 0.0684367092233
0.0065 -0.0215 0.0731256708515
0.0065 -0.0205 0.0602659340217
0.0065 -0.0195 0.0350928877761
0.0065 -0.0185 0.0110633732694
0.0065 -0.0175 0.00295837432515
0.0065 -0.0165 0.00576144730925
0.0065 -0.0155 0.00485675395214
0.0065 -0.0145 0.00271310661978
0.0065 -0.0135 0.0119733642856
0.0065 -0.0125 0.0245461070838
0.0065 -0.0115 0.035313319923
0.0065 -0.0105 0.0418074873177
0.0065 -0.0095 0.0435169015337
0.0065 -0.0085 0.0411478644715
0.0065 -0.0075 0.0357949299827
0.0065 -0.0065 0.0289330681246
0.0065 -0.0055 0.0222160534573
0.0065 -0.0045 0.0169089640121
0.0065 -0.0035 0.0135303749612
0.0065 -0.0025 0.0120541712114
0.0065 -0.0015 0.0123960883239
0.0065 -0.0005 0.0146043373245
0.0065 0.0005 0.0186375045536
0.0065 0.0015 0.0238632328795
0.0065 0.0025 0.0290062908382
0.0065 0.0035 0.0326768025677
0.0065 0.0045 0.0339219140837
0.0065 0.0055 0.0315039958092
0.0065 0.0065 0.0241361610702
0.0065 0.0075 0.0138847701548
0.0065 0.0085 0.00585154948317
0.0065 0.0095 0.00214856718363
0.0065 0.0105 0.000866161326578
0.0065 0.0115 0.000339024284393
0.0065 0.0125 0.000132166678978
0.0065 0.0135 6.16849916884e-05
0.0065 0.0145 3.66254423519e-05
0.0065 0.0155 2.49838494497e-05
0.0065 0.0165 1.87501747523e-05
0.0065 0.0175 1.48489570096e-05
0.0065 0.0185 1.21862034349e-05
0.0065 0.0195 1.02517741068e-05
0.0065 0.0205 8.86762660849e-06
0.0065 0.0215 7.99654719613e-06
0.0065 0.0225 7.55671047926e-06
0.0065 0.0235 7.42784153062e-06
0.0065 0.0245 7.47888760106e-06
0.0065 0.0255 7.57217933356e-06
0.0065 0.0265 7.57280694595e-06
0.0065 0.0275 7.35875351238e-06
0.0065 0.0285 6.92307043729e-06
0.0065 0.0295 6.10410131947e-06
0.0065 0.0305 5.77525887205e-06
0.0065 0.0315 3.08358234944e-06
0.0075 -0.0315 2.00171366077e-06
0.0075 -0.0305 8.38609962844e-06
0.0075 -0.0295 2.5350080376e-05
0.0075 -0.0285 9.07894679153e-05
0.0075 -0.0275 0.000291676160612
0.0075 -0.0265 0.00103842742769
0.0075 -0.0255 0.00201430015479
0.0075 -0.0245 0.00319135432585
0.0075 -0.0235 0.0266550501518
0.0075 -0.0225 0.0561178579853
0.0075 -0.0215 0.0701049559821
0.0075 -0.0205 0.0681477875966
0.0075 -0.0195 0.0539319368289
0.0075 -0.0185 0.0333951221648
0.0075 -0.0175 0.0165147171682
0.0075 -0.0165 0.00915289083237
0.0075 -0.0155 0.0109091691735
0.0075 -0.0145 0.0192956074083
0.0075 -0.0135 0.0303169096684
0.0075 -0.0125 0.0397969756341
0.0075 -0.0115 0.0450416610769
0.0075 -0.0105 0.0452304191357
0.0075 -0.0095 0.0407566957929
0.0075 -0.0085 0.0328253053537
0.0075 -0.0075 0.0235380952835
0.0075 -0.0065 0.0152910075725
0.0075 -0.0055 0.00945235018909
0.0075 -0.0045 0.00599924628603
0.0075 -0.0035 0.00423066126773
0.0075 -0.0025 0.00358252573356
0.0075 -0.0015 0.00386589669022
0.0075 -0.0005 0.00536735313828
0.0075 0.0005 0.00879241221211
0.0075 0.0015 0.014597621332
0.0075 0.0025 0.0220182659525
0.0075 0.0035 0.0290508216551
0.0075 0.0045 0.0336251216391
0.0075 0.0055 0.0344489598934
0.0075 0.0065 0.0302979237519
0.0075 0.0075 0.0212611493679
0.0075 0.0085 0.011168847522
0.0075 0.0095 0.00449461273534
0.0075 0.0105 0.00170728189032
0.0075 0.0115 0.000740991696994
0.0075 0.0125 0.00033615487201
0.0075 0.0135 0.000158391965464
0.0075 0.0145 8.83919889964e-05
0.0075 0.0155 6.03796741485e-05
0.0075 0.0165 4.24345290614e-05
0.0075 0.0175 3.0782635884e-05
0.0075 0.0185 2.29921491984e-05
0.0075 0.0195 1.71835819635e-05
0.0075 0.0205 1.30979701642e-05
0.0075 0.0215 1.05511901974e-05
0.0075 0.0225 9.12558451102e-06
0.0075 0.0235 8.41960247509e-06
0.0075 0.0245 8.13924713996e-06
0.0075 0.0255 8.01662337594e-06
0.0075 0.0265 7.84175206552e-06
0.0075 0.0275 7.48043551619e-06
0.0075 0.0285 6.94539855448e-06
0.0075 0.0295 6.08781836621e-06
0.0075 0.0305 5.81315044751e-06
0.0075 0.0315 3.12977811249e-06
0.0085 -0.0315 1.73127476159e-06
0.0085 -0.0305 6.60501566265e-06
0.0085 -0.0295 1.8140110705e-05
0.0085 -0.0285 5.49250982989e-05
0.0085 -0.0275 0.000177270201603
0.0085 -0.0265 0.000597727029932
0.0085 -0.0255 0.00154878633733
0.0085 -0.0245 0.00150267568936
0.0085 -0.0235 0.0117372540683
0.0085 -0.0225 0.0390419777228
0.0085 -0.0215 0.0607305584291
0.0085 -0.0205 0.0677208972986
0.0085 -0.0195 0.0631662220582
0.0085 -0.0185 0.0512969001176
0.0085 -0.0175 0.0380278740713
0.0085 -0.0165 0.0302244080275
0.0085 -0.0155 0.0308554377257
0.0085 -0.0145 0.0370775310781
0.0085 -0.0135 0.0438442401704
0.0085 -0.0125 0.0474350999957
0.0085 -0.0115 0.0461550923702
0.0085 -0.0105 0.039774292975
0.0085 -0.0095 0.0297315168069
0.0085 -0.0085 0.0190055607611
0.0085 -0.0075 0.010553263617
0.0085 -0.0065 0.00539181881027
0.0085 -0.0055 0.00277118236624
0.0085 -0.0045 0.00155787315419
0.0085 -0.0035 0.000991960195069
0.0085 -0.0025 0.000749955286146
0.0085 -0.0015 0.000773906142003
0.0085 -0.0005 0.00125351295621
0.0085 0.0005 0.00285068447739
0.0085 0.0015 0.00682290728943
0.0085 0.0025 0.0138839761117
0.0085 0.0035 0.0227192222499
0.0085 0.0045 0.0304172975364
0.0085 0.0055 0.0344652559379
0.0085 0.0065 0.0336941708575
0.0085 0.0075 0.027675287465
0.0085 0.0085 0.0180188524765
0.0085 0.0095 0.00899309368924
0.0085 0.0105 0.00368884583496
0.0085 0.0115 0.00158962625865
0.0085 0.0125 0.00084667131646
0.0085 0.0135 0.000493336442835
0.0085 0.0145 0.000305241932838
0.0085 0.0155 0.000191774965102
0.0085 0.0165 0.000116082814148
0.0085 0.0175 8.22776173794e-05
0.0085 0.0185 5.70299216617e-05
0.0085 0.0195 3.65186460867e-05
0.0085 0.0205 2.3926886168e-05
0.0085 0.0215 1.68978754311e-05
0.0085 0.0225 1.27316493917e-05
0.0085 0.0235 1.04541453255e-05
0.0085 0.0245 9.31866563857e-06
0.0085 0.0255 8.69614275782e-06
0.0085 0.0265 8.20107347716e-06
0.0085 0.0275 7.6275108543e-06
0.0085 0.0285 6.97264039534e-06
0.0085 0.0295 6.07560155148e-06
0.0085 0.0305 5.84981066286e-06
0.0085 0.0315 3.17197930055e-06
0.0095 -0.0315 1.60860659506e-06
0.0095 -0.0305 5.63078262113e-06
0.0095 -0.0295 1.34738828858e-05
0.0095 -0.0285 3.24050053477e-05
0.0095 -0.0275 9.50077786742e-05
0.0095 -0.0265 0.000294479827029
0.0095 -0.0255 0.000939123005084
0.0095 -0.0245 0.00212876970488
0.0095 -0.0235 0.00177236693857
0.0095 -0.0225 0.0204518109776
0.0095 -0.0215 0.0454244317632
0.0095 -0.0205 0.0599439610161
0.0095 -0.0195 0.0624901629946
0.0095 -0.0185 0.0574463054416
0.0095 -0.0175 0.0495399043923
0.0095 -0.0165 0.0439741761542
0.0095 -0.0155 0.043634805573
0.0095 -0.0145 0.0463974833104
0.0095 -0.0135 0.0479756135224
0.0095 -0.0125 0.0453763588893
0.0095 -0.0115 0.0375745681813
0.0095 -0.0105 0.0262573756452
0.0095 -0.0095 0.0152435699203
0.0095 -0.0085 0.00754560679722
0.0095 -0.0075 0.0034732344221
0.0095 -0.0065 0.00166963119882
0.0095 -0.0055 0.000909275138185
0.0095 -0.0045 0.000540955776415
0.0095 -0.0035 0.000343339391498
0.0095 -0.0025 0.000246921640042
0.0095 -0.0015 0.000235992451913
0.0095 -0.0005 0.000345997644115
0.0095 0.0005 0.000788423075211
0.0095 0.0015 0.00249674626826
0.0095 0.0025 0.00723203336586
0.0095 0.0035 0.015493123936
0.0095 0.0045 0.0249384806127
0.0095 0.0055 0.0319050242047
0.0095 0.0065 0.0341661359427
0.0095 0.0075 0.0314885243924
0.0095 0.0085 0.0244339546199
0.0095 0.0095 0.0153842902254
0.0095 0.0105 0.00802194646589
0.0095 0.0115 0.0039810580039
0.0095 0.0125 0.00229389276157
0.0095 0.0135 0.00154687964499
0.0095 0.0145 0.00107970598606
0.0095 0.0155 0.000702497463173
0.0095 0.0165 0.000447690484394
0.0095 0.0175 0.000304354310096
0.0095 0.0185 0.000177642726027
0.0095 0.0195 9.29377196706e-05
0.0095 0.0205 5.59294546507e-05
0.0095 0.0215 3.36265765151e-05
0.0095 0.0225 2.11157647237e-05
0.0095 0.0235 1.476039797e-05
0.0095 0.0245 1.15212518567e-05
0.0095 0.0255 9.81506634848e-06
0.0095 0.0265 8.72376601914e-06
0.0095 0.0275 7.81725735107e-06
0.0095 0.0285 7.00590331409e-06
0.0095 0.0295 6.06795359669e-06
0.0095 0.0305 5.89061593901e-06
0.0095 0.0315 3.21540811952e-06
0.0105 -0.0315 1.61350598542e-06
0.0105 -0.0305 5.10557771568e-06
0.0105 -0.0295 1.07404138997e-05
0.0105 -0.0285 2.27511768201e-05
0.0105 -0.0275 5.43648497444e-05
0.0105 -0.0265 0.000172257225335
0.0105 -0.0255 0.00056667066262
0.0105 -0.0245 0.00150542665011
0.0105 -0.0235 0.00227574087894
0.0105 -0.0225 0.00642038129928
0.0105 -0.0215 0.0272013269556
0.0105 -0.0205 0.0462204362458
0.0105 -0.0195 0.0540038628685
0.0105 -0.0185 0.0531948435544
0.0105 -0.0175 0.0487574207061
0.0105 -0.0165 0.0452748048009
0.0105 -0.0155 0.0446858597382
0.0105 -0.0145 0.0446095880183
0.0105 -0.0135 0.0411950377646
0.0105 -0.0125 0.0328459796567
0.0105 -0.0115 0.0216782835413
0.0105 -0.0105 0.0117467698131
0.0105 -0.0095 0.00547678089702
0.0105 -0.0085 0.00250425393452
0.0105 -0.0075 0.0012428528716
0.0105 -0.0065 0.000611715913378
0.0105 -0.0055 0.000298321967405
0.0105 -0.0045 0.000177983570922
0.0105 -0.0035 0.000117041183897
0.0105 -0.0025 8.79779656006e-05
0.0105 -0.0015 9.04252337887e-05
0.0105 -0.0005 0.000149286521932
0.0105 0.0005 0.000324073941747
0.0105 0.0015 0.000894582005493
0.0105 0.0025 0.00322149879849
0.0105 0.0035 0.00926993503804
0.0105 0.0045 0.0185317058857
0.0105 0.0055 0.0273850479293
0.0105 0.0065 0.0321751430945
0.0105 0.0075 0.032170462154
0.0105 0.0085 0.0282375040896
0.0105 0.0095 0.0215351916999
0.0105 0.0105 0.0145560071834
0.0105 0.0115 0.00949688254459
0.0105 0.0125 0.00660780188143
0.0105 0.0135 0.00493015225638
0.0105 0.0145 0.0036648994492
0.0105 0.0155 0.00254919878007
0.0105 0.0165 0.0016665501446
0.0105 0.0175 0.00105323824771
0.0105 0.0185 0.000604547744076
0.0105 0.0195 0.00031922029586
0.0105 0.0205 0.000165824598808
0.0105 0.0215 7.82753985632e-05
0.0105 0.0225 4.08569369166e-05
0.0105 0.0235 2.35285070145e-05
0.0105 0.0245 1.5620481643e-05
0.0105 0.0255 1.17591144737e-05
0.0105 0.0265 9.56980055423e-06
0.0105 0.0275 8.11995726097e-06
0.0105 0.0285 7.08298715845e-06
0.0105 0.0295 6.09137319941e-06
0.0105 0.0305 5.95666893744e-06
0.0105 0.0315 3.27085544098e-06
0.0115 -0.0315 1.72054178745e-06
0.0115 -0.0305 5.03506339029e-06
0.0115 -0.0295 9.6616560158e-06
0.0115 -0.0285 1.85673922295e-05
0.0115 -0.0275 4.05419768874e-05
0.0115 -0.0265 0.000114532625535
0.0115 -0.0255 0.000359168364132
0.0115 -0.0245 0.00112956729393
0.0115 -0.0235 0.00278530024505
0.0115 -0.0225 0.00184145121413
0.0115 -0.0215 0.0124038458503
0.0115 -0.0205 0.0303001743752
0.0115 -0.0195 0.0403473411622
0.0115 -0.0185 0.0414038276893
0.0115 -0.0175 0.0382556309602
0.0115 -0.0165 0.0358008195876
0.0115 -0.0155 0.0346748584338
0.0115 -0.0145 0.0315771503194
0.0115 -0.0135 0.0246000124552
0.0115 -0.0125 0.0156363859842
0.0115 -0.0115 0.00811333221678
0.0115 -0.0105 0.00380682316861
0.0115 -0.0095 0.00189784682763
0.0115 -0.0085 0.000949584761193
0.0115 -0.0075 0.000428997812723
0.0115 -0.0065 0.000197992606517
0.0115 -0.0055 9.39186793851e-05
0.0115 -0.0045 5.75554620594e-05
0.0115 -0.0035 4.02985398746e-05
0.0115 -0.0025 3.33766336787e-05
0.0115 -0.0015 3.71969977225e-05
0.0115 -0.0005 6.47801033642e-05
0.0115 0.0005 0.00015820064452
0.0115 0.0015 0.000404134684828
0.0115 0.0025 0.00136959964417
0.0115 0.0035 0.00504765197084
0.0115 0.0045 0.0126855293161
0.0115 0.0055 0.0219109919246
0.0115 0.0065 0.0283157170918
0.0115 0.0075 0.0301221702863
0.0115 0.0085 0.0284690132502
0.0115 0.0095 0.0247043254446
0.0115 0.0105 0.0204619540558
0.0115 0.0115 0.0171110041589
0.0115 0.0125 0.014720649163
0.0115 0.0135 0.0126803394835
0.0115 0.0145 0.0105204900754
0.0115 0.0155 0.00804953761371
0.0115 0.0165 0.00550012225944
0.0115 0.0175 0.00334659519502
0.0115 0.0185 0.00187020232942
0.0115 0.0195 0.00100737174001
0.0115 0.0205 0.000502573428026
0.0115 0.0215 0.000210444578734
0.0115 0.0225 8.44287629572e-05
0.0115 0.0235 4.06761637523e-05
0.0115 0.0245 2.36091447864e-05
0.0115 0.0255 1.54614420121e-05
0.0115 0.0265 1.11899981112e-05
0.0115 0.0275 8.75383506054e-06
0.0115 0.0285 7.3225424427e-06
0.0115 0.0295 6.21685255253e-06
0.0115 0.0305 6.09095048331e-06
0.0115 0.0315 3.35638629329e-06
0.0125 -0.0315 1.93161528903e-06
0.0125 -0.0305 5.39158885703e-06
0.0125 -0.0295 9.78016802402e-06
0.0125 -0.0285 1.78542383216e-05
0.0125 -0.0275 3.52829632245e-05
0.0125 -0.0265 8.11110605902e-05
0.0125 -0.0255 0.000272653110284
0.0125 -0.0245 0.00108803425827
0.0125 -0.0235 0.00322815730544
0.0125 -0.0225 0.00298946731885
0.0125 -0.0215 0.00580013029722
0.0125 -0.0205 0.0191675132468
0.0125 -0.0195 0.0272000015107
0.0125 -0.0185 0.0270638551347
0.0125 -0.0175 0.0228405429039
0.0125 -0.0165 0.0196399568737
0.0125 -0.0155 0.0176027241012
0.0125 -0.0145 0.0138799688292
0.0125 -0.0135 0.00886720978159
0.0125 -0.0125 0.00478278833249
0.0125 -0.0115 0.00237044708839
0.0125 -0.0105 0.00122605639203
0.0125 -0.0095 0.000675110060097
0.0125 -0.0085 0.000317005689878
0.0125 -0.0075 0.000139412230094
0.0125 -0.0065 7.41674013775e-05
0.0125 -0.0055 4.15108360632e-05
0.0125 -0.0045 2.647335626e-05
0.0125 -0.0035 2.01579270128e-05
0.0125 -0.0025 1.8810459098e-05
0.0125 -0.0015 2.35066714439e-05
0.0125 -0.0005 3.99899879237e-05
0.0125 0.0005 9.86105462821e-05
0.0125 0.0015 0.000243518797107
0.0125 0.0025 0.000668356513286
0.0125 0.0035 0.0028061885116
0.0125 0.0045 0.00856747324099
0.0125 0.0055 0.016839497551
0.0125 0.0065 0.0234132830652
0.0125 0.0075 0.0259180633634
0.0125 0.0085 0.0253781737119
0.0125 0.0095 0.0237007035086
0.0125 0.0105 0.0225051621908
0.0125 0.0115 0.0222758825013
0.0125 0.0125 0.0222654867901
0.0125 0.0135 0.0217113598462
0.0125 0.0145 0.020249648618
0.0125 0.0155 0.0176370400367
0.0125 0.0165 0.0138544449174
0.0125 0.0175 0.00945475477776
0.0125 0.0185 0.0054843235059
0.0125 0.0195 0.00277091684498
0.0125 0.0205 0.00127683574917
0.0125 0.0215 0.000506254413352
0.0125 0.0225 0.000174260381185
0.0125 0.0235 7.86051664545e-05
0.0125 0.0245 4.0554004539e-05
0.0125 0.0255 2.3427859028e-05
0.0125 0.0265 1.46628145031e-05
0.0125 0.0275 1.02131048026e-05
0.0125 0.0285 7.98117338574e-06
0.0125 0.0295 6.5777530015e-06
0.0125 0.0305 6.36342207712e-06
0.0125 0.0315 3.49801126603e-06
0.0135 -0.0315 2.23903324028e-06
0.0135 -0.0305 6.10509960632e-06
0.0135 -0.0295 1.09338524454e-05
0.0135 -0.0285 2.00894746458e-05
0.0135 -0.0275 3.90246180258e-05
0.0135 -0.0265 8.37023629188e-05
0.0135 -0.0255 0.000252100799059
0.0135 -0.0245 0.00117126697776
0.0135 -0.0235 0.00314997776406
0.0135 -0.0225 0.00270482079487
0.0135 -0.0215 0.00957845998128
0.0135 -0.0205 0.0191105192675
0.0135 -0.0195 0.0229752160771
0.0135 -0.0185 0.0192361178825
0.0135 -0.0175 0.011419888105
0.0135 -0.0165 0.00619931458462
0.0135 -0.0155 0.00472169493307
0.0135 -0.0145 0.00336098165233
0.0135 -0.0135 0.00209273413117
0.0135 -0.0125 0.0013445091012
0.0135 -0.0115 0.000741442411472
0.0135 -0.0105 0.000350984136704
0.0135 -0.0095 0.000202551795447
0.0135 -0.0085 0.00011641179862
0.0135 -0.0075 6.19518121427e-05
0.0135 -0.0065 3.50870978497e-05
0.0135 -0.0055 2.2347290724e-05
0.0135 -0.0045 1.59639069879e-05
0.0135 -0.0035 1.34769536612e-05
0.0135 -0.0025 1.4348117377e-05
0.0135 -0.0015 2.05449631625e-05
0.0135 -0.0005 4.00319397487e-05
0.0135 0.0005 0.000108525537285
0.0135 0.0015 0.000270609496763
0.0135 0.0025 0.000616479856932
0.0135 0.0035 0.00228827142103
0.0135 0.0045 0.00703390693452
0.0135 0.0055 0.0138071488611
0.0135 0.0065 0.0189492503545
0.0135 0.0075 0.02049661765
0.0135 0.0085 0.0195907450045
0.0135 0.0095 0.0187883231023
0.0135 0.0105 0.019771712807
0.0135 0.0115 0.0218884990176
0.0135 0.0125 0.0238405811641
0.0135 0.0135 0.0251048242385
0.0135 0.0145 0.0256000183101
0.0135 0.0155 0.0250244067805
0.0135 0.0165 0.0227830484844
0.0135 0.0175 0.0185359279042
0.0135 0.0185 0.0128065514818
0.0135 0.0195 0.00718453097056
0.0135 0.0205 0.00324066063047
0.0135 0.0215 0.00123494424098
0.0135 0.0225 0.000439999881529
0.0135 0.0235 0.000173277775706
0.0135 0.0245 8.45873234453e-05
0.0135 0.0255 4.17757592899e-05
0.0135 0.0265 2.21765341905e-05
0.0135 0.0275 1.35333148368e-05
0.0135 0.0285 9.54311259757e-06
0.0135 0.0295 7.39579589799e-06
0.0135 0.0305 6.87209300858e-06
0.0135 0.0315 3.72808837214e-06
0.0145 -0.0315 2.62254861199e-06
0.0145 -0.0305 7.0872259416e-06
0.0145 -0.0295 1.29176896461e-05
0.0145 -0.0285 2.49564719931e-05
0.0145 -0.0275 5.32928280304e-05
0.0145 -0.0265 0.000123238384547
0.0145 -0.0255 0.000282060295634
0.0145 -0.0245 0.00112866842272
0.0145 -0.0235 0.00248310341706
0.0145 -0.0225 0.00724128246121
0.0145 -0.0215 0.0166685908728
0.0145 -0.0205 0.0234298734724
0.0145 -0.0195 0.0233730501543
0.0145 -0.0185 0.0161235598784
0.0145 -0.0175 0.00699399020548
0.0145 -0.0165 0.00211718636213
0.0145 -0.0155 0.00105117676674
0.0145 -0.0145 0.000748199574519
0.0145 -0.0135 0.000486078563515
0.0145 -0.0125 0.000338741532317
0.0145 -0.0115 0.000222538430564
0.0145 -0.0105 0.000135223423783
0.0145 -0.0095 8.21235429273e-05
0.0145 -0.0085 5.15636444787e-05
0.0145 -0.0075 3.27574759082e-05
0.0145 -0.0065 2.15041565334e-05
0.0145 -0.0055 1.53287045537e-05
0.0145 -0.0045 1.2313184821e-05
0.0145 -0.0035 1.17553495064e-05
0.0145 -0.0025 1.43412031265e-05
0.0145 -0.0015 2.35818247501e-05
0.0145 -0.0005 5.2384603457e-05
0.0145 0.0005 0.000165718019933
0.0145 0.0015 0.000472146819852
0.0145 0.0025 0.00120924853951
0.0145 0.0035 0.00365955001136
0.0145 0.0045 0.00871695282275
0.0145 0.0055 0.0141946478437
0.0145 0.0065 0.0169677894123
0.0145 0.0075 0.0160507576448
0.0145 0.0085 0.0128754212253