% Model:              Benchmark260518.mph
% Version:            COMSOL 6.2.0.339
% Date:               May 20 2026, 16:25
% Dimension:          2
% Nodes:              4096
% Expressions:        1
% Description:        速度大小
% Length unit:        m
% x                       y                        spf.U (m/s)
5.0E-4                    -0.0315                  1.5744091269384663E-6
5.0E-4                    -0.0305                  3.1364165784957412E-6
5.0E-4                    -0.0295                  3.5003365640604483E-6
5.0E-4                    -0.0285                  3.8881843262686835E-6
5.0E-4                    -0.0275                  4.084594158272608E-6
5.0E-4                    -0.0265                  4.2692474867776375E-6
5.0E-4                    -0.0255                  4.39982401717924E-6
5.0E-4                    -0.0245                  4.515111167076149E-6
5.0E-4                    -0.0235                  4.616927452085516E-6
5.0E-4                    -0.0225                  4.709732371143355E-6
5.0E-4                    -0.0215                  4.795793591859852E-6
5.0E-4                    -0.0205                  4.878580150371939E-6
5.0E-4                    -0.0195                  4.962517227518079E-6
5.0E-4                    -0.0185                  5.051134419678928E-6
5.0E-4                    -0.0175                  5.148848476601215E-6
5.0E-4                    -0.0165                  5.2598267574520416E-6
5.0E-4                    -0.0155                  5.386156154647582E-6
5.0E-4                    -0.0145                  5.5272753347492575E-6
5.0E-4                    -0.0135                  5.6816439462836314E-6
5.0E-4                    -0.0125                  5.836181521226431E-6
5.0E-4                    -0.0115                  5.974913252956185E-6
5.0E-4                    -0.0105                  6.081635726190366E-6
5.0E-4                    -0.0095                  6.14125861106474E-6
5.0E-4                    -0.0085                  6.147135313083944E-6
5.0E-4                    -0.0075                  6.125467700585981E-6
5.0E-4                    -0.0065                  6.10446224848275E-6
5.0E-4                    -0.0055                  6.161470004344547E-6
5.0E-4                    -0.0045                  6.382359110123401E-6
5.0E-4                    -0.0035                  6.690764304564872E-6
5.0E-4                    -0.0025                  8.256712521188425E-6
5.0E-4                    -0.0015                  1.4051271044003885E-5
5.0E-4                    -5.0E-4                  3.057070416941018E-5
5.0E-4                    5.0E-4                   7.519047846838342E-5
5.0E-4                    0.0015                   1.1909697740444747E-4
5.0E-4                    0.0025                   1.509510076211802E-4
5.0E-4                    0.0035                   3.8172231105065943E-4
5.0E-4                    0.0045                   8.536269696605127E-4
5.0E-4                    0.0055                   0.0020311677129089814
5.0E-4                    0.0065                   0.01685044158384293
5.0E-4                    0.0075                   0.030026456178200166
5.0E-4                    0.0085                   0.025571214267742615
5.0E-4                    0.0095                   0.010710910811926709
5.0E-4                    0.0105                   5.092583160736532E-4
5.0E-4                    0.0115                   2.1120681696780138E-4
5.0E-4                    0.0125                   1.6219132403118958E-4
5.0E-4                    0.0135                   1.174897250970307E-4
5.0E-4                    0.0145                   5.6727530736683796E-5
5.0E-4                    0.0155                   1.9840867378456172E-5
5.0E-4                    0.0165                   8.344114363825872E-6
5.0E-4                    0.0175                   5.356226196536642E-6
5.0E-4                    0.0185                   4.638716865266749E-6
5.0E-4                    0.0195                   4.307248992405732E-6
5.0E-4                    0.0205                   4.17369934434452E-6
5.0E-4                    0.0215                   4.093768791840618E-6
5.0E-4                    0.0225                   4.019427058138558E-6
5.0E-4                    0.0235                   3.94374841745809E-6
5.0E-4                    0.0245                   3.858386265293405E-6
5.0E-4                    0.0255                   3.759691922181596E-6
5.0E-4                    0.0265                   3.6451810339211475E-6
5.0E-4                    0.0275                   3.4889776876160894E-6
5.0E-4                    0.0285                   3.332611073661285E-6
5.0E-4                    0.0295                   3.0010708258158552E-6
5.0E-4                    0.0305                   2.7151897075675217E-6
5.0E-4                    0.0315                   1.379799172332861E-6
0.0015                    -0.0315                  3.0613867133185386E-6
0.0015                    -0.0305                  6.016908399604768E-6
0.0015                    -0.0295                  6.415906612506936E-6
0.0015                    -0.0285                  6.825863693393783E-6
0.0015                    -0.0275                  6.9479140795183816E-6
0.0015                    -0.0265                  7.070781208842063E-6
0.0015                    -0.0255                  7.153023569738528E-6
0.0015                    -0.0245                  7.231983094935813E-6
0.0015                    -0.0235                  7.308130201969046E-6
0.0015                    -0.0225                  7.383397255531263E-6
0.0015                    -0.0215                  7.458545820907414E-6
0.0015                    -0.0205                  7.536655767031908E-6
0.0015                    -0.0195                  7.6227956564808805E-6
0.0015                    -0.0185                  7.722269100891916E-6
0.0015                    -0.0175                  7.841975053945621E-6
0.0015                    -0.0165                  7.988933959064907E-6
0.0015                    -0.0155                  8.16778504352954E-6
0.0015                    -0.0145                  8.379384946858764E-6
0.0015                    -0.0135                  8.620475797711743E-6
0.0015                    -0.0125                  8.872778949613334E-6
0.0015                    -0.0115                  9.110407354916504E-6
0.0015                    -0.0105                  9.304441753362674E-6
0.0015                    -0.0095                  9.429234839322656E-6
0.0015                    -0.0085                  9.479336453427017E-6
0.0015                    -0.0075                  9.50043412646773E-6
0.0015                    -0.0065                  9.572433606634635E-6
0.0015                    -0.0055                  9.862554963540491E-6
0.0015                    -0.0045                  1.0600052108825947E-5
0.0015                    -0.0035                  1.209171195278857E-5
0.0015                    -0.0025                  1.6285318163030553E-5
0.0015                    -0.0015                  2.762428073081613E-5
0.0015                    -5.0E-4                  5.588367434565041E-5
0.0015                    5.0E-4                   1.261153968772365E-4
0.0015                    0.0015                   2.2130034975633892E-4
0.0015                    0.0025                   4.759014437885848E-4
0.0015                    0.0035                   0.0010856690857962376
0.0015                    0.0045                   0.0012062132150875314
0.0015                    0.0055                   0.005798322288247852
0.0015                    0.0065                   0.02053956891405923
0.0015                    0.0075                   0.029211590307548062
0.0015                    0.0085                   0.02310234996269642
0.0015                    0.0095                   0.009669375946769771
0.0015                    0.0105                   0.0010655686560050212
0.0015                    0.0115                   4.0593360795440175E-4
0.0015                    0.0125                   2.409020213655723E-4
0.0015                    0.0135                   1.593473810653828E-4
0.0015                    0.0145                   7.713802687793162E-5
0.0015                    0.0155                   3.0036420348965442E-5
0.0015                    0.0165                   1.3487909356916719E-5
0.0015                    0.0175                   8.534679301841753E-6
0.0015                    0.0185                   7.158251585342389E-6
0.0015                    0.0195                   6.62727100392688E-6
0.0015                    0.0205                   6.424740804194496E-6
0.0015                    0.0215                   6.326665369911057E-6
0.0015                    0.0225                   6.252502926680354E-6
0.0015                    0.0235                   6.185061710728422E-6
0.0015                    0.0245                   6.115382777941743E-6
0.0015                    0.0255                   6.04122323570477E-6
0.0015                    0.0265                   5.962314541839812E-6
0.0015                    0.0275                   5.855768551624288E-6
0.0015                    0.0285                   5.764870814133239E-6
0.0015                    0.0295                   5.434000377126758E-6
0.0015                    0.0305                   5.175214835037598E-6
0.0015                    0.0315                   2.6701005502427717E-6
0.0025                    -0.0315                  3.2396247541383074E-6
0.0025                    -0.0305                  6.128376274755588E-6
0.0025                    -0.0295                  6.1699267542944645E-6
0.0025                    -0.0285                  6.362016093573426E-6
0.0025                    -0.0275                  6.248358358873272E-6
0.0025                    -0.0265                  6.112244680083699E-6
0.0025                    -0.0255                  5.97453289032363E-6
0.0025                    -0.0245                  5.856322060649786E-6
0.0025                    -0.0235                  5.758973548625111E-6
0.0025                    -0.0225                  5.6811463007638725E-6
0.0025                    -0.0215                  5.6206676417952065E-6
0.0025                    -0.0205                  5.577088377862646E-6
0.0025                    -0.0195                  5.552047964384778E-6
0.0025                    -0.0185                  5.549535890123879E-6
0.0025                    -0.0175                  5.5753328205545345E-6
0.0025                    -0.0165                  5.636100964231306E-6
0.0025                    -0.0155                  5.737751993779908E-6
0.0025                    -0.0145                  5.883331196639819E-6
0.0025                    -0.0135                  6.069921602866536E-6
0.0025                    -0.0125                  6.286901355555812E-6
0.0025                    -0.0115                  6.514332111182785E-6
0.0025                    -0.0105                  6.72555500522576E-6
0.0025                    -0.0095                  6.896130694124589E-6
0.0025                    -0.0085                  7.0236247697816136E-6
0.0025                    -0.0075                  7.155510816010132E-6
0.0025                    -0.0065                  7.432381578612294E-6
0.0025                    -0.0055                  8.130562258153214E-6
0.0025                    -0.0045                  9.734562658908964E-6
0.0025                    -0.0035                  1.3214195480614911E-5
0.0025                    -0.0025                  2.0261842432688453E-5
0.0025                    -0.0015                  3.362687406285101E-5
0.0025                    -5.0E-4                  5.8488649834467114E-5
0.0025                    5.0E-4                   1.1560149431922209E-4
0.0025                    0.0015                   2.9057025879133556E-4
0.0025                    0.0025                   8.615792948184325E-4
0.0025                    0.0035                   0.001547187277246433
0.0025                    0.0045                   5.234450898696288E-4
0.0025                    0.0055                   0.009881458317009885
0.0025                    0.0065                   0.0229389754748788
0.0025                    0.0075                   0.027848797110636994
0.0025                    0.0085                   0.020018024908231354
0.0025                    0.0095                   0.007649898531929073
0.0025                    0.0105                   0.0010865462295514513
0.0025                    0.0115                   2.984105324760007E-4
0.0025                    0.0125                   1.304538833316718E-4
0.0025                    0.0135                   7.211059888336964E-5
0.0025                    0.0145                   3.5097717922318056E-5
0.0025                    0.0155                   1.7854185712865915E-5
0.0025                    0.0165                   9.719309288547054E-6
0.0025                    0.0175                   6.372337318317177E-6
0.0025                    0.0185                   5.191398533469095E-6
0.0025                    0.0195                   4.8194978206158754E-6
0.0025                    0.0205                   4.710987069943705E-6
0.0025                    0.0215                   4.701184629036933E-6
0.0025                    0.0225                   4.730139523515921E-6
0.0025                    0.0235                   4.778491264856766E-6
0.0025                    0.0245                   4.843794276051553E-6
0.0025                    0.0255                   4.926769917649045E-6
0.0025                    0.0265                   5.02877152199979E-6
0.0025                    0.0275                   5.13635818862202E-6
0.0025                    0.0285                   5.242013490269305E-6
0.0025                    0.0295                   5.1290428745238465E-6
0.0025                    0.0305                   5.265551603431739E-6
0.0025                    0.0315                   2.8493723796770013E-6
0.0035                    -0.0315                  3.5291135644768727E-6
0.0035                    -0.0305                  6.399802444118534E-6
0.0035                    -0.0295                  6.2800624330148966E-6
0.0035                    -0.0285                  6.654670592024935E-6
0.0035                    -0.0275                  6.644044166148121E-6
0.0035                    -0.0265                  6.538148434868936E-6
0.0035                    -0.0255                  6.375520356883786E-6
0.0035                    -0.0245                  6.211674541037082E-6
0.0035                    -0.0235                  6.059257831982229E-6
0.0035                    -0.0225                  5.9238719565335E-6
0.0035                    -0.0215                  5.805787251106447E-6
0.0035                    -0.0205                  5.705366431750172E-6
0.0035                    -0.0195                  5.624794455498787E-6
0.0035                    -0.0185                  5.569062894982521E-6
0.0035                    -0.0175                  5.546023239172256E-6
0.0035                    -0.0165                  5.565562739467949E-6
0.0035                    -0.0155                  5.637973310053582E-6
0.0035                    -0.0145                  5.77174470504863E-6
0.0035                    -0.0135                  5.971321682402261E-6
0.0035                    -0.0125                  6.234708026463161E-6
0.0035                    -0.0115                  6.551128122731802E-6
0.0035                    -0.0105                  6.899009591197485E-6
0.0035                    -0.0095                  7.24856732635273E-6
0.0035                    -0.0085                  7.578914524944429E-6
0.0035                    -0.0075                  7.926900284907521E-6
0.0035                    -0.0065                  8.48311106498123E-6
0.0035                    -0.0055                  9.752002406542899E-6
0.0035                    -0.0045                  1.2754497479787457E-5
0.0035                    -0.0035                  1.9085837143570012E-5
0.0035                    -0.0025                  3.076957798362145E-5
0.0035                    -0.0015                  5.005576879672093E-5
0.0035                    -5.0E-4                  8.192867184563513E-5
0.0035                    5.0E-4                   1.5771322967434413E-4
0.0035                    0.0015                   4.6878227808486573E-4
0.0035                    0.0025                   0.0012318791794275323
0.0035                    0.0035                   0.0013114482067995107
0.0035                    0.0045                   0.00334367126192771
0.0035                    0.0055                   0.014284333384159303
0.0035                    0.0065                   0.024637830472748347
0.0035                    0.0075                   0.025856115449027658
0.0035                    0.0085                   0.01658099367051078
0.0035                    0.0095                   0.005629771997183459
0.0035                    0.0105                   9.414714887591597E-4
0.0035                    0.0115                   1.9549017579933043E-4
0.0035                    0.0125                   9.030912195078789E-5
0.0035                    0.0135                   4.748586838554846E-5
0.0035                    0.0145                   2.4216775256398964E-5
0.0035                    0.0155                   1.3298179365965972E-5
0.0035                    0.0165                   8.33526237413607E-6
0.0035                    0.0175                   6.136011948186606E-6
0.0035                    0.0185                   5.282464848440385E-6
0.0035                    0.0195                   4.991796534340267E-6
0.0035                    0.0205                   4.915744430504876E-6
0.0035                    0.0215                   4.921137340332667E-6
0.0035                    0.0225                   4.9640770566594E-6
0.0035                    0.0235                   5.0310125627223355E-6
0.0035                    0.0245                   5.118576476479344E-6
0.0035                    0.0255                   5.222473713640657E-6
0.0035                    0.0265                   5.3341818184190564E-6
0.0035                    0.0275                   5.411644053174389E-6
0.0035                    0.0285                   5.437442037886873E-6
0.0035                    0.0295                   5.190297654818322E-6
0.0035                    0.0305                   5.511799412337303E-6
0.0035                    0.0315                   3.1210856853866067E-6
0.0045                    -0.0315                  3.7098610873959128E-6
0.0045                    -0.0305                  6.50099838208814E-6
0.0045                    -0.0295                  6.156958089696495E-6
0.0045                    -0.0285                  6.631949133349393E-6
0.0045                    -0.0275                  6.77139154268888E-6
0.0045                    -0.0265                  6.7745233032316055E-6
0.0045                    -0.0255                  6.658783374255616E-6
0.0045                    -0.0245                  6.499040092233438E-6
0.0045                    -0.0235                  6.326453964471199E-6
0.0045                    -0.0225                  6.157577317136012E-6
0.0045                    -0.0215                  5.998390808447558E-6
0.0045                    -0.0205                  5.8518657971674145E-6
0.0045                    -0.0195                  5.721497047837138E-6
0.0045                    -0.0185                  5.6136854737621E-6
0.0045                    -0.0175                  5.538650645197186E-6
0.0045                    -0.0165                  5.51009618839575E-6
0.0045                    -0.0155                  5.543700860438075E-6
0.0045                    -0.0145                  5.6549584544959475E-6
0.0045                    -0.0135                  5.857094040985883E-6
0.0045                    -0.0125                  6.159528715293643E-6
0.0045                    -0.0115                  6.565934478881753E-6
0.0045                    -0.0105                  7.070392656340438E-6
0.0045                    -0.0095                  7.654387414509574E-6
0.0045                    -0.0085                  8.299391818763285E-6
0.0045                    -0.0075                  9.049686277166996E-6
0.0045                    -0.0065                  1.0185113007237335E-5
0.0045                    -0.0055                  1.2576089342979288E-5
0.0045                    -0.0045                  1.8239428520264838E-5
0.0045                    -0.0035                  3.0377383700223172E-5
0.0045                    -0.0025                  5.1849068530985334E-5
0.0045                    -0.0015                  8.458232457912172E-5
0.0045                    -5.0E-4                  1.269113666251087E-4
0.0045                    5.0E-4                   2.6194796788749417E-4
0.0045                    0.0015                   7.530251707026566E-4
0.0045                    0.0025                   0.0014040260151694233
0.0045                    0.0035                   4.3316254877649567E-4
0.0045                    0.0045                   0.007244269461844512
0.0045                    0.0055                   0.018112690580450026
0.0045                    0.0065                   0.025200147099336195
0.0045                    0.0075                   0.023128478155846063
0.0045                    0.0085                   0.013079633557365697
0.0045                    0.0095                   0.003945253280018101
0.0045                    0.0105                   7.810027703114331E-4
0.0045                    0.0115                   1.8263315506042145E-4
0.0045                    0.0125                   5.964600549729878E-5
0.0045                    0.0135                   2.8811738656129252E-5
0.0045                    0.0145                   1.647881762189765E-5
0.0045                    0.0155                   1.0222932602774359E-5
0.0045                    0.0165                   7.2056522203891255E-6
0.0045                    0.0175                   5.898002737259508E-6
0.0045                    0.0185                   5.3869801427404555E-6
0.0045                    0.0195                   5.214569080216359E-6
0.0045                    0.0205                   5.172232026874455E-6
0.0045                    0.0215                   5.182336834110676E-6
0.0045                    0.0225                   5.221450851076516E-6
0.0045                    0.0235                   5.283164066119031E-6
0.0045                    0.0245                   5.362370822027594E-6
0.0045                    0.0255                   5.4456760661597415E-6
0.0045                    0.0265                   5.5083483516492575E-6
0.0045                    0.0275                   5.491898681188785E-6
0.0045                    0.0285                   5.396183938552654E-6
0.0045                    0.0295                   5.073622617346151E-6
0.0045                    0.0305                   5.595133737667027E-6
0.0045                    0.0315                   3.2752505906699873E-6
0.0055                    -0.0315                  3.872509078306279E-6
0.0055                    -0.0305                  6.615191647510409E-6
0.0055                    -0.0295                  6.0537615546182075E-6
0.0055                    -0.0285                  6.559085280997065E-6
0.0055                    -0.0275                  6.809476111337738E-6
0.0055                    -0.0265                  6.942375857717207E-6
0.0055                    -0.0255                  6.921578554154059E-6
0.0055                    -0.0245                  6.81459499752461E-6
0.0055                    -0.0235                  6.662333258133169E-6
0.0055                    -0.0225                  6.4924215998598485E-6
0.0055                    -0.0215                  6.317816982046495E-6
0.0055                    -0.0205                  6.145025119026088E-6
0.0055                    -0.0195                  5.97902881905708E-6
0.0055                    -0.0185                  5.827217421490859E-6
0.0055                    -0.0175                  5.701675148705822E-6
0.0055                    -0.0165                  5.61990803372504E-6
0.0055                    -0.0155                  5.603890754551663E-6
0.0055                    -0.0145                  5.6779044554248015E-6
0.0055                    -0.0135                  5.866344153682408E-6
0.0055                    -0.0125                  6.1924875130615915E-6
0.0055                    -0.0115                  6.678347505675129E-6
0.0055                    -0.0105                  7.344002816329498E-6
0.0055                    -0.0095                  8.20584182702226E-6
0.0055                    -0.0085                  9.288632865357968E-6
0.0055                    -0.0075                  1.0705317684810467E-5
0.0055                    -0.0065                  1.292921111556367E-5
0.0055                    -0.0055                  1.745551686418518E-5
0.0055                    -0.0045                  2.7996915518485927E-5
0.0055                    -0.0035                  5.3012358999390186E-5
0.0055                    -0.0025                  1.0396560992627249E-4
0.0055                    -0.0015                  1.5909328233919932E-4
0.0055                    -5.0E-4                  2.0018066439241294E-4
0.0055                    5.0E-4                   4.4027411122172784E-4
0.0055                    0.0015                   0.0010359795380410776
0.0055                    0.0025                   9.89033603668094E-4
0.0055                    0.0035                   0.002878862365837601
0.0055                    0.0045                   0.011507212069606343
0.0055                    0.0055                   0.020761270686466358
0.0055                    0.0065                   0.024508377840458673
0.0055                    0.0075                   0.019816650467273142
0.0055                    0.0085                   0.009810814268057985
0.0055                    0.0095                   0.0027023611972467705
0.0055                    0.0105                   6.271595760167076E-4
0.0055                    0.0115                   1.529895173069056E-4
0.0055                    0.0125                   4.35782449271421E-5
0.0055                    0.0135                   2.1339300718829805E-5
0.0055                    0.0145                   1.2799203233864256E-5
0.0055                    0.0155                   8.74944257072925E-6
0.0055                    0.0165                   6.808592279485269E-6
0.0055                    0.0175                   6.000174504803141E-6
0.0055                    0.0185                   5.704364995114374E-6
0.0055                    0.0195                   5.605055527894137E-6
0.0055                    0.0205                   5.5718857712028865E-6
0.0055                    0.0215                   5.564515321843705E-6
0.0055                    0.0225                   5.576250895141655E-6
0.0055                    0.0235                   5.605502737537281E-6
0.0055                    0.0245                   5.643493021177202E-6
0.0055                    0.0255                   5.666965363180135E-6
0.0055                    0.0265                   5.641691817747381E-6
0.0055                    0.0275                   5.513738098539523E-6
0.0055                    0.0285                   5.326087946768971E-6
0.0055                    0.0295                   4.978681159171263E-6
0.0055                    0.0305                   5.70249445532905E-6
0.0055                    0.0315                   3.4271825940840347E-6
0.0065                    -0.0315                  4.0173871720606555E-6
0.0065                    -0.0305                  6.729583753377311E-6
0.0065                    -0.0295                  5.963575944170921E-6
0.0065                    -0.0285                  6.44795525498232E-6
0.0065                    -0.0275                  6.747783566796201E-6
0.0065                    -0.0265                  6.975228471457669E-6
0.0065                    -0.0255                  7.050061179563306E-6
0.0065                    -0.0245                  7.016284171148075E-6
0.0065                    -0.0235                  6.910123215631378E-6
0.0065                    -0.0225                  6.7641506046923126E-6
0.0065                    -0.0215                  6.596829197615085E-6
0.0065                    -0.0205                  6.4177514329034655E-6
0.0065                    -0.0195                  6.2326654400223325E-6
0.0065                    -0.0185                  6.048644877254509E-6
0.0065                    -0.0175                  5.877961922732708E-6
0.0065                    -0.0165                  5.740456848350778E-6
0.0065                    -0.0155                  5.6639986225429775E-6
0.0065                    -0.0145                  5.682884511234265E-6
0.0065                    -0.0135                  5.835286874176591E-6
0.0065                    -0.0125                  6.162122992702341E-6
0.0065                    -0.0115                  6.708874570818248E-6
0.0065                    -0.0105                  7.5321371995541326E-6
0.0065                    -0.0095                  8.712868149692667E-6
0.0065                    -0.0085                  1.0383816500018913E-5
0.0065                    -0.0075                  1.283072371124558E-5
0.0065                    -0.0065                  1.6874582040327344E-5
0.0065                    -0.0055                  2.5010509156605938E-5