% Model:              Benchmark260518.mph
% Version:            COMSOL 6.2.0.339
% Date:               May 20 2026, 13:34
% Dimension:          2
% Nodes:              4096
% Expressions:        1
% Description:        速度大小
% Length unit:        m
% x                       y                        spf.U (m/s)
5.0E-4                    -0.0315                  1.4468943762741068E-6
5.0E-4                    -0.0305                  2.8791534261085724E-6
5.0E-4                    -0.0295                  3.2193527705758384E-6
5.0E-4                    -0.0285                  3.6047593247528395E-6
5.0E-4                    -0.0275                  3.819608289624077E-6
5.0E-4                    -0.0265                  4.0303152937200226E-6
5.0E-4                    -0.0255                  4.209881116586711E-6
5.0E-4                    -0.0245                  4.3771008033880136E-6
5.0E-4                    -0.0235                  4.527514578297402E-6
5.0E-4                    -0.0225                  4.664382472069544E-6
5.0E-4                    -0.0215                  4.797037032300163E-6
5.0E-4                    -0.0205                  4.947625053130042E-6
5.0E-4                    -0.0195                  5.150074916149507E-6
5.0E-4                    -0.0185                  5.4564389376489755E-6
5.0E-4                    -0.0175                  5.994501625510725E-6
5.0E-4                    -0.0165                  7.044807353664126E-6
5.0E-4                    -0.0155                  9.283878551767485E-6
5.0E-4                    -0.0145                  1.6612530748034616E-5
5.0E-4                    -0.0135                  4.043179961128432E-5
5.0E-4                    -0.0125                  1.1638338085679551E-4
5.0E-4                    -0.0115                  2.497371532895108E-4
5.0E-4                    -0.0105                  4.0287078203637337E-4
5.0E-4                    -0.0095                  6.227470029370765E-4
5.0E-4                    -0.0085                  0.0010858218272879793
5.0E-4                    -0.0075                  0.0018925735469548365
5.0E-4                    -0.0065                  0.0028912854377240635
5.0E-4                    -0.0055                  0.003804103474475452
5.0E-4                    -0.0045                  0.004369613046080854
5.0E-4                    -0.0035                  0.004415476010108224
5.0E-4                    -0.0025                  0.00390865474102374
5.0E-4                    -0.0015                  0.0029504373155719455
5.0E-4                    -5.0E-4                  0.0017826771952598594
5.0E-4                    5.0E-4                   0.0010882751561064185
5.0E-4                    0.0015                   0.001872260545584506
5.0E-4                    0.0025                   0.0027184356780356874
5.0E-4                    0.0035                   0.002911221394066083
5.0E-4                    0.0045                   0.0025654070624728316
5.0E-4                    0.0055                   0.0030112135485079027
5.0E-4                    0.0065                   0.02349668757903083
5.0E-4                    0.0075                   0.04253776502079815
5.0E-4                    0.0085                   0.03739027928450322
5.0E-4                    0.0095                   0.016270419802446503
5.0E-4                    0.0105                   0.0012661217863653247
5.0E-4                    0.0115                   0.001187717100377647
5.0E-4                    0.0125                   6.90104777944204E-4
5.0E-4                    0.0135                   2.6506369559084274E-4
5.0E-4                    0.0145                   8.648282099463601E-5
5.0E-4                    0.0155                   5.716416469467417E-5
5.0E-4                    0.0165                   3.297804920306819E-5
5.0E-4                    0.0175                   1.8309449172096097E-5
5.0E-4                    0.0185                   1.057628269369169E-5
5.0E-4                    0.0195                   7.177972905807789E-6
5.0E-4                    0.0205                   5.7865210928506805E-6
5.0E-4                    0.0215                   5.008653990724497E-6
5.0E-4                    0.0225                   4.583701311827953E-6
5.0E-4                    0.0235                   4.334265302088516E-6
5.0E-4                    0.0245                   4.152314772060632E-6
5.0E-4                    0.0255                   4.000941613834939E-6
5.0E-4                    0.0265                   3.857010634630596E-6
5.0E-4                    0.0275                   3.6741052472984137E-6
5.0E-4                    0.0285                   3.4610178612265244E-6
5.0E-4                    0.0295                   3.079038194819547E-6
5.0E-4                    0.0305                   2.700136824568183E-6
5.0E-4                    0.0315                   1.3324967083474716E-6
0.0015                    -0.0315                  2.8029812458486137E-6
0.0015                    -0.0305                  5.497619744102337E-6
0.0015                    -0.0295                  5.8569945931255E-6
0.0015                    -0.0285                  6.252768741858506E-6
0.0015                    -0.0275                  6.399111242967208E-6
0.0015                    -0.0265                  6.5631413421867176E-6
0.0015                    -0.0255                  6.7183019201861786E-6
0.0015                    -0.0245                  6.879382365154024E-6
0.0015                    -0.0235                  7.034486107406748E-6
0.0015                    -0.0225                  7.181148465818113E-6
0.0015                    -0.0215                  7.329533010261682E-6
0.0015                    -0.0205                  7.512447019534707E-6
0.0015                    -0.0195                  7.789312616683838E-6
0.0015                    -0.0185                  8.267612491703503E-6
0.0015                    -0.0175                  9.196655683271785E-6
0.0015                    -0.0165                  1.1161205516850793E-5
0.0015                    -0.0155                  1.578980648977733E-5
0.0015                    -0.0145                  2.953491930010198E-5
0.0015                    -0.0135                  7.189719161117314E-5
0.0015                    -0.0125                  2.1085807716664758E-4
0.0015                    -0.0115                  4.962339527702352E-4
0.0015                    -0.0105                  0.0010198291905198847
0.0015                    -0.0095                  0.0021365547591662686
0.0015                    -0.0085                  0.004107242599901969
0.0015                    -0.0075                  0.006629295422769113
0.0015                    -0.0065                  0.009125017987439612
0.0015                    -0.0055                  0.011111388102670858
0.0015                    -0.0045                  0.012298147207329642
0.0015                    -0.0035                  0.012580036656283967
0.0015                    -0.0025                  0.011992764660849899
0.0015                    -0.0015                  0.01064858587235174
0.0015                    -5.0E-4                  0.008665208645913499
0.0015                    5.0E-4                   0.006104065686548871
0.0015                    0.0015                   0.0032900767669534706
0.0015                    0.0025                   0.0016721757770601679
0.0015                    0.0035                   0.00239211311695227
0.0015                    0.0045                   0.0022999252922520754
0.0015                    0.0055                   0.009044928809187835
0.0015                    0.0065                   0.028107182955988273
0.0015                    0.0075                   0.04047761330145965
0.0015                    0.0085                   0.03459894116056664
0.0015                    0.0095                   0.016527874146865587
0.0015                    0.0105                   0.002580596882026238
0.0015                    0.0115                   0.0022341408444098354
0.0015                    0.0125                   0.0017481793365028996
0.0015                    0.0135                   8.810803609827695E-4
0.0015                    0.0145                   2.841898237352018E-4
0.0015                    0.0155                   1.4571641814386212E-4
0.0015                    0.0165                   8.683216898301732E-5
0.0015                    0.0175                   4.479510934657702E-5
0.0015                    0.0185                   2.345928662663506E-5
0.0015                    0.0195                   1.3814922647853984E-5
0.0015                    0.0205                   9.870133426953417E-6
0.0015                    0.0215                   8.073588499581507E-6
0.0015                    0.0225                   7.218826930015648E-6
0.0015                    0.0235                   6.799795236732502E-6
0.0015                    0.0245                   6.568639480437694E-6
0.0015                    0.0255                   6.429535507183235E-6
0.0015                    0.0265                   6.33488190011908E-6
0.0015                    0.0275                   6.223990860207103E-6
0.0015                    0.0285                   6.087821300584854E-6
0.0015                    0.0295                   5.670097054896128E-6
0.0015                    0.0305                   5.165746920642625E-6
0.0015                    0.0315                   2.571860129429147E-6
0.0025                    -0.0315                  2.958350058011868E-6
0.0025                    -0.0305                  5.572453091189151E-6
0.0025                    -0.0295                  5.569183070923941E-6
0.0025                    -0.0285                  5.706712854656767E-6
0.0025                    -0.0275                  5.583866466721032E-6
0.0025                    -0.0265                  5.46734876952736E-6
0.0025                    -0.0255                  5.380728355879801E-6
0.0025                    -0.0245                  5.337769374808984E-6
0.0025                    -0.0235                  5.3249390462913954E-6
0.0025                    -0.0225                  5.32865380377651E-6
0.0025                    -0.0215                  5.3478014667837866E-6
0.0025                    -0.0205                  5.4075340410837585E-6
0.0025                    -0.0195                  5.5752001233734536E-6
0.0025                    -0.0185                  5.998091801881172E-6
0.0025                    -0.0175                  6.999558886643641E-6
0.0025                    -0.0165                  9.381812688147317E-6
0.0025                    -0.0155                  1.536819204437723E-5
0.0025                    -0.0145                  3.11515527616884E-5
0.0025                    -0.0135                  7.761277393094513E-5
0.0025                    -0.0125                  2.5476729915484796E-4
0.0025                    -0.0115                  7.5181361388373E-4
0.0025                    -0.0105                  0.0020512657732711897
0.0025                    -0.0095                  0.0047101837406345395
0.0025                    -0.0085                  0.008316913261013721
0.0025                    -0.0075                  0.01172818351628157
0.0025                    -0.0065                  0.014270666927136308
0.0025                    -0.0055                  0.015917510460794298
0.0025                    -0.0045                  0.016917379949785222
0.0025                    -0.0035                  0.01751860415400116
0.0025                    -0.0025                  0.017854698677779276
0.0025                    -0.0015                  0.01789117566864492
0.0025                    -5.0E-4                  0.01741774337500311
0.0025                    5.0E-4                   0.016080867332384213
0.0025                    0.0015                   0.013616868534614864
0.0025                    0.0025                   0.010321312234818027
0.0025                    0.0035                   0.007530589171114672
0.0025                    0.0045                   0.008303362429306784
0.0025                    0.0055                   0.016543913587304723
0.0025                    0.0065                   0.029618027487043314
0.0025                    0.0075                   0.036146059564007973
0.0025                    0.0085                   0.030325351638969707
0.0025                    0.0095                   0.01621450974240504
0.0025                    0.0105                   0.004354293368491169
0.0025                    0.0115                   9.447050994426061E-4
0.0025                    0.0125                   0.0016613433768839397
0.0025                    0.0135                   0.0012424332942607785
0.0025                    0.0145                   5.145326346714788E-4
0.0025                    0.0155                   2.5508440681351336E-4
0.0025                    0.0165                   1.5838548223275482E-4
0.0025                    0.0175                   7.855364713674312E-5
0.0025                    0.0185                   3.3740955973668606E-5
0.0025                    0.0195                   1.6473262429832242E-5
0.0025                    0.0205                   9.65645173496402E-6
0.0025                    0.0215                   6.817027686035516E-6
0.0025                    0.0225                   5.6649553086038405E-6
0.0025                    0.0235                   5.240876208074562E-6
0.0025                    0.0245                   5.146678453414611E-6
0.0025                    0.0255                   5.2169990002890525E-6
0.0025                    0.0265                   5.3761046472068595E-6
0.0025                    0.0275                   5.562310580143724E-6
0.0025                    0.0285                   5.702079937040306E-6
0.0025                    0.0295                   5.492658182501097E-6
0.0025                    0.0305                   5.1348695743772555E-6
0.0025                    0.0315                   2.59206535060444E-6
0.0035                    -0.0315                  3.230322906384007E-6
0.0035                    -0.0305                  5.8348824126554984E-6
0.0035                    -0.0295                  5.6730714000600855E-6
0.0035                    -0.0285                  5.943780756079323E-6
0.0035                    -0.0275                  5.873935674994825E-6
0.0035                    -0.0265                  5.748555881463752E-6
0.0035                    -0.0255                  5.623259674638727E-6
0.0035                    -0.0245                  5.553088345178995E-6
0.0035                    -0.0235                  5.5362592101864225E-6
0.0035                    -0.0225                  5.555771624267382E-6
0.0035                    -0.0215                  5.601613663872335E-6
0.0035                    -0.0205                  5.702958080002246E-6
0.0035                    -0.0195                  5.963184028715114E-6
0.0035                    -0.0185                  6.621323969153386E-6
0.0035                    -0.0175                  8.19875035211244E-6
0.0035                    -0.0165                  1.195859314116476E-5
0.0035                    -0.0155                  2.1055071075179522E-5
0.0035                    -0.0145                  4.534934740283977E-5
0.0035                    -0.0135                  1.1576334138846251E-4
0.0035                    -0.0125                  4.04408093960167E-4
0.0035                    -0.0115                  0.0014048039944854775
0.0035                    -0.0105                  0.004079485743843617
0.0035                    -0.0095                  0.008322831584941383
0.0035                    -0.0085                  0.012380682785610511
0.0035                    -0.0075                  0.014996698870475306
0.0035                    -0.0065                  0.016255446638581875
0.0035                    -0.0055                  0.016735570042625807
0.0035                    -0.0045                  0.016955720479397297
0.0035                    -0.0035                  0.01733780173829858
0.0035                    -0.0025                  0.018164656060966983
0.0035                    -0.0015                  0.019429901307640766
0.0035                    -5.0E-4                  0.020802577412247822
0.0035                    5.0E-4                   0.02174859586414425
0.0035                    0.0015                   0.021702029427160645
0.0035                    0.0025                   0.020479819209654623
0.0035                    0.0035                   0.018855829043645425
0.0035                    0.0045                   0.018764533137930157
0.0035                    0.0055                   0.02207540941449074
0.0035                    0.0065                   0.027407241926936422
0.0035                    0.0075                   0.029071180865448156
0.0035                    0.0085                   0.02385709288430123
0.0035                    0.0095                   0.01568341175730761
0.0035                    0.0105                   0.010427458628237712
0.0035                    0.0115                   0.007681133364990442
0.0035                    0.0125                   0.0053368825671082365
0.0035                    0.0135                   0.003075886814248502
0.0035                    0.0145                   0.0014589059491549772
0.0035                    0.0155                   6.992709496823417E-4
0.0035                    0.0165                   3.4450483001284294E-4
0.0035                    0.0175                   1.4180617988520226E-4
0.0035                    0.0185                   5.253655080160125E-5
0.0035                    0.0195                   2.4156546831643667E-5
0.0035                    0.0205                   1.2868268540598625E-5
0.0035                    0.0215                   8.243407848699873E-6
0.0035                    0.0225                   6.415829986875295E-6
0.0035                    0.0235                   5.759119709195804E-6
0.0035                    0.0245                   5.6168747080581705E-6
0.0035                    0.0255                   5.708131237747466E-6
0.0035                    0.0265                   5.897881870055641E-6
0.0035                    0.0275                   6.070221830058653E-6
0.0035                    0.0285                   6.105093695439843E-6
0.0035                    0.0295                   5.679370933450177E-6
0.0035                    0.0305                   5.23887908649295E-6
0.0035                    0.0315                   2.687888720402671E-6
0.0045                    -0.0315                  3.4140451874098E-6
0.0045                    -0.0305                  5.968665494430885E-6
0.0045                    -0.0295                  5.608088931249607E-6
0.0045                    -0.0285                  5.9536739218065516E-6
0.0045                    -0.0275                  5.984525446066787E-6
0.0045                    -0.0265                  5.9159818605251575E-6
0.0045                    -0.0255                  5.810808674692051E-6
0.0045                    -0.0245                  5.7705675330555104E-6
0.0045                    -0.0235                  5.8274900021492E-6
0.0045                    -0.0225                  5.9708000638438434E-6
0.0045                    -0.0215                  6.178421187520862E-6
0.0045                    -0.0205                  6.4804159902766134E-6
0.0045                    -0.0195                  7.041344574211592E-6
0.0045                    -0.0185                  8.26903155689543E-6
0.0045                    -0.0175                  1.1066316319697878E-5
0.0045                    -0.0165                  1.7491356376272303E-5
0.0045                    -0.0155                  3.3476035986607685E-5
0.0045                    -0.0145                  7.741972972198278E-5
0.0045                    -0.0135                  2.284693790225972E-4
0.0045                    -0.0125                  7.602710198524829E-4
0.0045                    -0.0115                  0.002650582473127889
0.0045                    -0.0105                  0.006975189232673016
0.0045                    -0.0095                  0.012103033875623196
0.0045                    -0.0085                  0.015248401641281287
0.0045                    -0.0075                  0.01598408574275189
0.0045                    -0.0065                  0.015227491536594102
0.0045                    -0.0055                  0.013846125061905282
0.0045                    -0.0045                  0.01261539595300565
0.0045                    -0.0035                  0.012112717065337154
0.0045                    -0.0025                  0.01264852547283687
0.0045                    -0.0015                  0.01427251335980998
0.0045                    -5.0E-4                  0.016748528773801296
0.0045                    5.0E-4                   0.019590882705888584
0.0045                    0.0015                   0.02210388857743981
0.0045                    0.0025                   0.023554925298984494
0.0045                    0.0035                   0.02370180968278075
0.0045                    0.0045                   0.023032992084821017
0.0045                    0.0055                   0.022299220646947334
0.0045                    0.0065                   0.021606630198788408
0.0045                    0.0075                   0.019563773533494366
0.0045                    0.0085                   0.016126577404529323
0.0045                    0.0095                   0.01528696460751436
0.0045                    0.0105                   0.016002281438350672
0.0045                    0.0115                   0.01483760869794129
0.0045                    0.0125                   0.011963106143569775
0.0045                    0.0135                   0.008335039180952
0.0045                    0.0145                   0.004794991109068566
0.0045                    0.0155                   0.0022126191123631885
0.0045                    0.0165                   8.494741326132397E-4
0.0045                    0.0175                   2.98099819501323E-4
0.0045                    0.0185                   9.830246512039346E-5
0.0045                    0.0195                   3.64958774519277E-5
0.0045                    0.0205                   1.750040866179915E-5
0.0045                    0.0215                   1.040853262142179E-5
0.0045                    0.0225                   7.515370861300962E-6
0.0045                    0.0235                   6.450887303932038E-6
0.0045                    0.0245                   6.170832877367586E-6
0.0045                    0.0255                   6.213815562778585E-6
0.0045                    0.0265                   6.356033889423553E-6
0.0045                    0.0275                   6.427620979349865E-6
0.0045                    0.0285                   6.297665151383669E-6
0.0045                    0.0295                   5.715306434345917E-6
0.0045                    0.0305                   5.273201271321724E-6
0.0045                    0.0315                   2.746619014093299E-6
0.0055                    -0.0315                  3.585750849057728E-6
0.0055                    -0.0305                  6.128878272057621E-6
0.0055                    -0.0295                  5.597552465532039E-6
0.0055                    -0.0285                  5.987564464514859E-6
0.0055                    -0.0275                  6.111732350338963E-6
0.0055                    -0.0265                  6.136009697907069E-6
0.0055                    -0.0255                  6.108907420531709E-6
0.0055                    -0.0245                  6.182861115881136E-6
0.0055                    -0.0235                  6.456269842103932E-6
0.0055                    -0.0225                  6.95304194508116E-6
0.0055                    -0.0215                  7.638007162229821E-6
0.0055                    -0.0205                  8.52901400887606E-6
0.0055                    -0.0195                  9.887520827371354E-6
0.0055                    -0.0185                  1.2472450269385398E-5
0.0055                    -0.0175                  1.7878498484555006E-5
0.0055                    -0.0165                  3.0142126724221144E-5
0.0055                    -0.0155                  6.126567639640489E-5
0.0055                    -0.0145                  1.6199471759187516E-4
0.0055                    -0.0135                  4.961976576031821E-4
0.0055                    -0.0125                  0.0015171264901196525
0.0055                    -0.0115                  0.004685495317824638
0.0055                    -0.0105                  0.01036791842519911
0.0055                    -0.0095                  0.015253621904234684
0.0055                    -0.0085                  0.016600310756958565
0.0055                    -0.0075                  0.01496794813086724
0.0055                    -0.0065                  0.011861917507411744
0.0055                    -0.0055                  0.008682300822427984
0.0055                    -0.0045                  0.006458560047719208
0.0055                    -0.0035                  0.00547372563328405
0.0055                    -0.0025                  0.005566716352605367
0.0055                    -0.0015                  0.006589749702375707
0.0055                    -5.0E-4                  0.008483890907035559
0.0055                    5.0E-4                   0.011127068343423883
0.0055                    0.0015                   0.014131571449559224
0.0055                    0.0025                   0.0167897757382036
0.0055                    0.0035                   0.01832522836843768
0.0055                    0.0045                   0.018217254374780768
0.0055                    0.0055                   0.0163871441683155
0.0055                    0.0065                   0.013128653640246327
0.0055                    0.0075                   0.00955072462980802
0.0055                    0.0085                   0.009015201192706972
0.0055                    0.0095                   0.011959916240359096
0.0055                    0.0105                   0.014482184980665341
0.0055                    0.0115                   0.015089367147119575
0.0055                    0.0125                   0.014206524599159437
0.0055                    0.0135                   0.012170897220913754
0.0055                    0.0145                   0.008902773668023767
0.0055                    0.0155                   0.004948902268250235
0.0055                    0.0165                   0.001953519099223968
0.0055                    0.0175                   6.234872827505367E-4
0.0055                    0.0185                   1.8880253496161603E-4
0.0055                    0.0195                   5.8100341207243526E-5
0.0055                    0.0205                   2.5712772846060996E-5
0.0055                    0.0215                   1.3936396291159939E-5
0.0055                    0.0225                   9.288958877017057E-6
0.0055                    0.0235                   7.530119242573932E-6
0.0055                    0.0245                   6.965630706981898E-6
0.0055                    0.0255                   6.868199839329343E-6
0.0055                    0.0265                   6.892464766561425E-6
0.0055                    0.0275                   6.821342835098198E-6
0.0055                    0.0285                   6.5391873265858715E-6
0.0055                    0.0295                   5.843588998055926E-6
0.0055                    0.0305                   5.369639616114677E-6
0.0055                    0.0315                   2.80820554977767E-6
0.0065                    -0.0315                  3.717740932350513E-6
0.0065                    -0.0305                  6.266305610083123E-6
0.0065                    -0.0295                  5.615350111204093E-6
0.0065                    -0.0285                  6.050072209889003E-6
0.0065                    -0.0275                  6.272305918905713E-6
0.0065                    -0.0265                  6.428257661021475E-6
0.0065                    -0.0255                  6.572101266952965E-6
0.0065                    -0.0245                  6.938164122492333E-6
0.0065                    -0.0235                  7.758542848322304E-6
0.0065                    -0.0225                  9.169834047176347E-6
0.0065                    -0.0215                  1.1131963703459199E-5
0.0065                    -0.0205                  1.3567875018363638E-5
0.0065                    -0.0195                  1.688427521033503E-5
0.0065                    -0.0185                  2.258167621383453E-5
0.0065                    -0.0175                  3.4288292613872675E-5
0.0065                    -0.0165                  6.01112820679928E-5
0.0065                    -0.0155                  1.3250307508475313E-4
0.0065                    -0.0145                  3.5514075770431427E-4
0.0065                    -0.0135                  9.713370557662441E-4
0.0065                    -0.0125                  0.0028361092656509408
0.0065                    -0.0115                  0.007449630363787466
0.0065                    -0.0105                  0.013664564527714924
0.0065                    -0.0095                  0.017242408349559528
0.0065                    -0.0085                  0.016307315220914186
0.0065                    -0.0075                  0.01234291022516583
0.0065                    -0.0065                  0.007679555473099078
0.0065                    -0.0055                  0.004212826561454079