% Model:              Benchmark260518.mph
% Version:            COMSOL 6.2.0.339
% Date:               May 20 2026, 05:50
% Dimension:          2
% Nodes:              4096
% Expressions:        1
% Description:        速度大小
% Length unit:        m
% x                       y                        spf.U (m/s)
5.0E-4                    -0.0315                  1.6187936701686154E-6
5.0E-4                    -0.0305                  3.249298049987018E-6
5.0E-4                    -0.0295                  3.642818491488757E-6
5.0E-4                    -0.0285                  4.0969695180808125E-6
5.0E-4                    -0.0275                  4.339849076803279E-6
5.0E-4                    -0.0265                  4.540811833230219E-6
5.0E-4                    -0.0255                  4.718783144211423E-6
5.0E-4                    -0.0245                  4.8575763793852465E-6
5.0E-4                    -0.0235                  4.969631580166874E-6
5.0E-4                    -0.0225                  5.07821106932402E-6
5.0E-4                    -0.0215                  5.170318987253749E-6
5.0E-4                    -0.0205                  5.230594081935924E-6
5.0E-4                    -0.0195                  5.300983730906282E-6
5.0E-4                    -0.0185                  5.350550176093061E-6
5.0E-4                    -0.0175                  5.373386529178315E-6
5.0E-4                    -0.0165                  5.430102743663038E-6
5.0E-4                    -0.0155                  5.4680006230415015E-6
5.0E-4                    -0.0145                  5.482620532498636E-6
5.0E-4                    -0.0135                  5.513461626833921E-6
5.0E-4                    -0.0125                  5.529105483325671E-6
5.0E-4                    -0.0115                  5.535921954408441E-6
5.0E-4                    -0.0105                  5.561208623360524E-6
5.0E-4                    -0.0095                  5.581915445960021E-6
5.0E-4                    -0.0085                  5.569157752877999E-6
5.0E-4                    -0.0075                  5.5764481650158994E-6
5.0E-4                    -0.0065                  5.617936969223387E-6
5.0E-4                    -0.0055                  5.693529483544766E-6
5.0E-4                    -0.0045                  5.82376280288149E-6
5.0E-4                    -0.0035                  6.049631814296289E-6
5.0E-4                    -0.0025                  6.461297725237044E-6
5.0E-4                    -0.0015                  7.1545220871070845E-6
5.0E-4                    -5.0E-4                  8.183467073441084E-6
5.0E-4                    5.0E-4                   1.0106565042446288E-5
5.0E-4                    0.0015                   1.3418681432078883E-5
5.0E-4                    0.0025                   1.8023819292445756E-5
5.0E-4                    0.0035                   2.237019618197462E-5
5.0E-4                    0.0045                   2.284968065650168E-5
5.0E-4                    0.0055                   2.049649330118292E-5
5.0E-4                    0.0065                   2.37799442112553E-5
5.0E-4                    0.0075                   5.810329173971377E-5
5.0E-4                    0.0085                   1.5996885453169006E-4
5.0E-4                    0.0095                   3.4037662328126474E-4
5.0E-4                    0.0105                   5.752542267975512E-4
5.0E-4                    0.0115                   8.102125571923435E-4
5.0E-4                    0.0125                   0.0011139807809593051
5.0E-4                    0.0135                   0.0020920669190525303
5.0E-4                    0.0145                   0.01796495278053091
5.0E-4                    0.0155                   0.03252901286072736
5.0E-4                    0.0165                   0.02787402746414958
5.0E-4                    0.0175                   0.011619055840268854
5.0E-4                    0.0185                   5.19062364852361E-4
5.0E-4                    0.0195                   3.6382440462416035E-4
5.0E-4                    0.0205                   1.0630130549872306E-4
5.0E-4                    0.0215                   8.393195788189287E-5
5.0E-4                    0.0225                   4.875024096724521E-5
5.0E-4                    0.0235                   1.7917847554840006E-5
5.0E-4                    0.0245                   7.331347477096478E-6
5.0E-4                    0.0255                   3.6883699767252563E-6
5.0E-4                    0.0265                   2.4013609443053327E-6
5.0E-4                    0.0275                   1.9564392598321944E-6
5.0E-4                    0.0285                   1.8038770796830143E-6
5.0E-4                    0.0295                   1.7234072325003609E-6
5.0E-4                    0.0305                   1.6740740668759768E-6
5.0E-4                    0.0315                   8.56401415823653E-7
0.0015                    -0.0315                  3.1413009242411074E-6
0.0015                    -0.0305                  6.240800832418069E-6
0.0015                    -0.0295                  6.738276501365294E-6
0.0015                    -0.0285                  7.2453471640494425E-6
0.0015                    -0.0275                  7.42573581524673E-6
0.0015                    -0.0265                  7.572725748963735E-6
0.0015                    -0.0255                  7.7052208454059E-6
0.0015                    -0.0245                  7.8116356668368E-6
0.0015                    -0.0235                  7.899454265038371E-6
0.0015                    -0.0225                  7.987979621879164E-6
0.0015                    -0.0215                  8.061324171420387E-6
0.0015                    -0.0205                  8.104559390104532E-6
0.0015                    -0.0195                  8.155127806683977E-6
0.0015                    -0.0185                  8.185225732874467E-6
0.0015                    -0.0175                  8.192219188837396E-6
0.0015                    -0.0165                  8.23289806070297E-6
0.0015                    -0.0155                  8.259841568430522E-6
0.0015                    -0.0145                  8.267937922955628E-6
0.0015                    -0.0135                  8.293210184023538E-6
0.0015                    -0.0125                  8.306317623929416E-6
0.0015                    -0.0115                  8.311133190818453E-6
0.0015                    -0.0105                  8.332065191141245E-6
0.0015                    -0.0095                  8.347033809547569E-6
0.0015                    -0.0085                  8.334893465626757E-6
0.0015                    -0.0075                  8.359008088013026E-6
0.0015                    -0.0065                  8.45696156324283E-6
0.0015                    -0.0055                  8.660732857641207E-6
0.0015                    -0.0045                  9.039525114594605E-6
0.0015                    -0.0035                  9.728513071153484E-6
0.0015                    -0.0025                  1.1007390061358242E-5
0.0015                    -0.0015                  1.3364485073218439E-5
0.0015                    -5.0E-4                  1.7611740193072506E-5
0.0015                    5.0E-4                   2.5685295408077837E-5
0.0015                    0.0015                   3.848533125957559E-5
0.0015                    0.0025                   5.3959896951786434E-5
0.0015                    0.0035                   7.648686246092414E-5
0.0015                    0.0045                   9.270914272793242E-5
0.0015                    0.0055                   9.549691315111987E-5
0.0015                    0.0065                   1.2077691936024222E-4
0.0015                    0.0075                   2.622395060801361E-4
0.0015                    0.0085                   6.312152752756908E-4
0.0015                    0.0095                   0.0011749283247291461
0.0015                    0.0105                   0.0016902584959983047
0.0015                    0.0115                   0.0020234422885000267
0.0015                    0.0125                   0.0019377971785437956
0.0015                    0.0135                   0.0059355612142354295
0.0015                    0.0145                   0.021849072741620002
0.0015                    0.0155                   0.031955564102593086
0.0015                    0.0165                   0.02575027926864776
0.0015                    0.0175                   0.010864282103632026
0.0015                    0.0185                   8.370787063454266E-4
0.0015                    0.0195                   7.826696090709814E-4
0.0015                    0.0205                   2.8606209649375733E-4
0.0015                    0.0215                   1.4325370142094965E-4
0.0015                    0.0225                   8.068490414226643E-5
0.0015                    0.0235                   3.145920997071039E-5
0.0015                    0.0245                   1.3351965558747558E-5
0.0015                    0.0255                   6.865797145518997E-6
0.0015                    0.0265                   4.546763736335005E-6
0.0015                    0.0275                   3.7743619264662035E-6
0.0015                    0.0285                   3.5607171343121094E-6
0.0015                    0.0295                   3.4512054018615453E-6
0.0015                    0.0305                   3.3283046015182737E-6
0.0015                    0.0315                   1.6923148964584523E-6
0.0025                    -0.0315                  3.2618268390974604E-6
0.0025                    -0.0305                  6.308877294700947E-6
0.0025                    -0.0295                  6.5535618311559315E-6
0.0025                    -0.0285                  6.8313341492368755E-6
0.0025                    -0.0275                  6.749562047079095E-6
0.0025                    -0.0265                  6.626469185712979E-6
0.0025                    -0.0255                  6.492596392879989E-6
0.0025                    -0.0245                  6.376891477796891E-6
0.0025                    -0.0235                  6.2765236250536346E-6
0.0025                    -0.0225                  6.187218085258336E-6
0.0025                    -0.0215                  6.103247119162442E-6
0.0025                    -0.0205                  6.022246688398137E-6
0.0025                    -0.0195                  5.940352200307073E-6
0.0025                    -0.0185                  5.861485959843299E-6
0.0025                    -0.0175                  5.790887721484457E-6
0.0025                    -0.0165                  5.728691418050105E-6
0.0025                    -0.0155                  5.681029548333723E-6
0.0025                    -0.0145                  5.647930855112715E-6
0.0025                    -0.0135                  5.626101624166929E-6
0.0025                    -0.0125                  5.615155487931789E-6
0.0025                    -0.0115                  5.6104018171394596E-6
0.0025                    -0.0105                  5.608184045750862E-6
0.0025                    -0.0095                  5.6127780715679945E-6
0.0025                    -0.0085                  5.645011127387359E-6
0.0025                    -0.0075                  5.743040951569941E-6
0.0025                    -0.0065                  5.973280404284997E-6
0.0025                    -0.0055                  6.438613071871671E-6
0.0025                    -0.0045                  7.304537855608161E-6
0.0025                    -0.0035                  8.86602213276746E-6
0.0025                    -0.0025                  1.1740560806309036E-5
0.0025                    -0.0015                  1.7248158625286522E-5
0.0025                    -5.0E-4                  2.842043045741819E-5
0.0025                    5.0E-4                   5.1020333646246776E-5
0.0025                    0.0015                   9.34740207822755E-5
0.0025                    0.0025                   1.4130312337151877E-4
0.0025                    0.0035                   1.930235937236422E-4
0.0025                    0.0045                   2.3334779775967387E-4
0.0025                    0.0055                   2.496359976807294E-4
0.0025                    0.0065                   4.025471598457812E-4
0.0025                    0.0075                   9.01847230951688E-4
0.0025                    0.0085                   0.0016953148594055613
0.0025                    0.0095                   0.0024245540403191506
0.0025                    0.0105                   0.0027116730386772276
0.0025                    0.0115                   0.002464983678938524
0.0025                    0.0125                   0.0017780405575060613
0.0025                    0.0135                   0.010293798956187013
0.0025                    0.0145                   0.02459195076856276
0.0025                    0.0155                   0.030850125958226362
0.0025                    0.0165                   0.023082203056139543
0.0025                    0.0175                   0.009127375839915021
0.0025                    0.0185                   5.074588862319679E-4
0.0025                    0.0195                   9.044531832098252E-4
0.0025                    0.0205                   3.698860690853435E-4
0.0025                    0.0215                   1.2189866078320226E-4
0.0025                    0.0225                   6.17498591958828E-5
0.0025                    0.0235                   2.7127546886647577E-5
0.0025                    0.0245                   1.2673468626728777E-5
0.0025                    0.0255                   6.991463807892691E-6
0.0025                    0.0265                   4.871142706257439E-6
0.0025                    0.0275                   4.180809679906007E-6
0.0025                    0.0285                   4.003853949449914E-6
0.0025                    0.0295                   3.8045396205674933E-6
0.0025                    0.0305                   3.5193028753861643E-6
0.0025                    0.0315                   1.7682068610816676E-6
0.0035                    -0.0315                  3.492512347982983E-6
0.0035                    -0.0305                  6.51423631519729E-6
0.0035                    -0.0295                  6.667805896126723E-6
0.0035                    -0.0285                  7.166178411803035E-6
0.0035                    -0.0275                  7.205225828420524E-6
0.0035                    -0.0265                  7.117409934913342E-6
0.0035                    -0.0255                  6.963997579699953E-6
0.0035                    -0.0245                  6.808519891965954E-6
0.0035                    -0.0235                  6.664177504753721E-6
0.0035                    -0.0225                  6.532380744009197E-6
0.0035                    -0.0215                  6.407513052407239E-6
0.0035                    -0.0205                  6.283359849570609E-6
0.0035                    -0.0195                  6.157503842256535E-6
0.0035                    -0.0185                  6.030982028701529E-6
0.0035                    -0.0175                  5.908570620070563E-6
0.0035                    -0.0165                  5.797868800316956E-6
0.0035                    -0.0155                  5.704421974713444E-6
0.0035                    -0.0145                  5.632256961943079E-6
0.0035                    -0.0135                  5.582823084965599E-6
0.0035                    -0.0125                  5.55364256451825E-6
0.0035                    -0.0115                  5.541605791313055E-6
0.0035                    -0.0105                  5.5480230547143775E-6
0.0035                    -0.0095                  5.589108751031733E-6
0.0035                    -0.0085                  5.7116859168357005E-6
0.0035                    -0.0075                  6.009261983897564E-6
0.0035                    -0.0065                  6.621131693108701E-6
0.0035                    -0.0055                  7.744701803863996E-6
0.0035                    -0.0045                  9.753241406753709E-6
0.0035                    -0.0035                  1.3312806440245202E-5
0.0035                    -0.0025                  1.970521264365762E-5
0.0035                    -0.0015                  3.251883410314398E-5
0.0035                    -5.0E-4                  5.990201776519468E-5
0.0035                    5.0E-4                   1.2589680348735108E-4
0.0035                    0.0015                   2.5395533221200047E-4
0.0035                    0.0025                   4.2126014635686555E-4
0.0035                    0.0035                   5.944953341745039E-4
0.0035                    0.0045                   7.219432025032484E-4
0.0035                    0.0055                   7.492392221970715E-4
0.0035                    0.0065                   9.104193903865762E-4
0.0035                    0.0075                   0.0015797280654529953
0.0035                    0.0085                   0.0023944013533104542
0.0035                    0.0095                   0.002749393435084333
0.0035                    0.0105                   0.0023890915413639605
0.0035                    0.0115                   0.0014210231447436073
0.0035                    0.0125                   0.004777770450573776
0.0035                    0.0135                   0.015462066482789916
0.0035                    0.0145                   0.026612515495280233
0.0035                    0.0155                   0.0290244648925138
0.0035                    0.0165                   0.019872857375769895
0.0035                    0.0175                   0.006999696450592954
0.0035                    0.0185                   2.239572461521086E-4
0.0035                    0.0195                   8.721954835699728E-4
0.0035                    0.0205                   3.515724071998954E-4
0.0035                    0.0215                   1.118468162944898E-4
0.0035                    0.0225                   5.459805527763405E-5
0.0035                    0.0235                   2.6010469505220414E-5
0.0035                    0.0245                   1.3280906869138752E-5
0.0035                    0.0255                   7.919354404950323E-6
0.0035                    0.0265                   5.79496106309203E-6
0.0035                    0.0275                   5.028137775900331E-6
0.0035                    0.0285                   4.691118573533265E-6
0.0035                    0.0295                   4.225036042809725E-6
0.0035                    0.0305                   3.7394708462319327E-6
0.0035                    0.0315                   1.8719007254920849E-6
0.0045                    -0.0315                  3.6096391914135813E-6
0.0045                    -0.0305                  6.536101967599331E-6
0.0045                    -0.0295                  6.52394773654584E-6
0.0045                    -0.0285                  7.14929056235099E-6
0.0045                    -0.0275                  7.359903121145523E-6
0.0045                    -0.0265                  7.3951460705604954E-6
0.0045                    -0.0255                  7.299668653310632E-6
0.0045                    -0.0245                  7.161904228001627E-6
0.0045                    -0.0235                  7.016953428687328E-6
0.0045                    -0.0225                  6.877823039115117E-6
0.0045                    -0.0215                  6.7422469084059455E-6
0.0045                    -0.0205                  6.602970377438813E-6
0.0045                    -0.0195                  6.4536102031522866E-6
0.0045                    -0.0185                  6.2933117379448585E-6
0.0045                    -0.0175                  6.127522267356578E-6
0.0045                    -0.0165                  5.966098228233648E-6
0.0045                    -0.0155                  5.820898429512663E-6
0.0045                    -0.0145                  5.701923879770995E-6
0.0045                    -0.0135                  5.615333501221334E-6
0.0045                    -0.0125                  5.564188956387651E-6
0.0045                    -0.0115                  5.5515036501443535E-6
0.0045                    -0.0105                  5.590063179744047E-6
0.0045                    -0.0095                  5.7253621940466894E-6
0.0045                    -0.0085                  6.07188581317397E-6
0.0045                    -0.0075                  6.8482008568530745E-6
0.0045                    -0.0065                  8.397527472518452E-6
0.0045                    -0.0055                  1.1126352787469998E-5
0.0045                    -0.0045                  1.5663700903175023E-5
0.0045                    -0.0035                  2.4300182432782132E-5
0.0045                    -0.0025                  4.114884318650719E-5
0.0045                    -0.0015                  7.275123297426962E-5
0.0045                    -5.0E-4                  1.5954112142832066E-4
0.0045                    5.0E-4                   3.73509052276034E-4
0.0045                    0.0015                   7.620947516803503E-4
0.0045                    0.0025                   0.0013468786416335355
0.0045                    0.0035                   0.0020780692433702464
0.0045                    0.0045                   0.0027735725742493575
0.0045                    0.0055                   0.003252102135845545
0.0045                    0.0065                   0.003492401121922487
0.0045                    0.0075                   0.0035673582259651954
0.0045                    0.0085                   0.003358991520754204
0.0045                    0.0095                   0.002597966549965179
0.0045                    0.0105                   0.0017868161046759442
0.0045                    0.0115                   0.003888349552094592
0.0045                    0.0125                   0.010352317655049695
0.0045                    0.0135                   0.019962490719123024
0.0045                    0.0145                   0.02706936167938489
0.0045                    0.0155                   0.02624886433789698
0.0045                    0.0165                   0.016242728451159812
0.0045                    0.0175                   0.004811844520189134
0.0045                    0.0185                   2.6483705100079487E-4
0.0045                    0.0195                   7.408149764004889E-4
0.0045                    0.0205                   2.781157526560923E-4
0.0045                    0.0215                   8.865934240678173E-5
0.0045                    0.0225                   4.4369273675375515E-5
0.0045                    0.0235                   2.3798888924645154E-5
0.0045                    0.0245                   1.328577239170935E-5
0.0045                    0.0255                   8.486795575166838E-6
0.0045                    0.0265                   6.475587843020874E-6
0.0045                    0.0275                   5.641739791630898E-6
0.0045                    0.0285                   5.129946972039024E-6
0.0045                    0.0295                   4.457956517312722E-6
0.0045                    0.0305                   3.874787180262687E-6
0.0045                    0.0315                   1.947957649559525E-6
0.0055                    -0.0315                  3.690242081275827E-6
0.0055                    -0.0305                  6.555222686232436E-6
0.0055                    -0.0295                  6.400541469514672E-6
0.0055                    -0.0285                  7.076301237333645E-6
0.0055                    -0.0275                  7.417363680512195E-6
0.0055                    -0.0265                  7.597955888044286E-6
0.0055                    -0.0255                  7.612009518164662E-6
0.0055                    -0.0245                  7.544318604152399E-6
0.0055                    -0.0235                  7.444775163237267E-6
0.0055                    -0.0225                  7.340687875472956E-6
0.0055                    -0.0215                  7.236291918699768E-6
0.0055                    -0.0205                  7.123299898605065E-6
0.0055                    -0.0195                  6.989997811701362E-6
0.0055                    -0.0185                  6.829242067880667E-6
0.0055                    -0.0175                  6.643234783082312E-6
0.0055                    -0.0165                  6.443900122254285E-6
0.0055                    -0.0155                  6.249371040478019E-6
0.0055                    -0.0145                  6.0792551135000346E-6
0.0055                    -0.0135                  5.950769162847525E-6
0.0055                    -0.0125                  5.878417728725781E-6
0.0055                    -0.0115                  5.880343453314946E-6
0.0055                    -0.0105                  5.99639458872561E-6
0.0055                    -0.0095                  6.328963368821853E-6
0.0055                    -0.0085                  7.131959498305124E-6
0.0055                    -0.0075                  8.931435497338154E-6
0.0055                    -0.0065                  1.2571427479143321E-5
0.0055                    -0.0055                  1.9422219002212068E-5
0.0055                    -0.0045                  3.130045288466076E-5
0.0055                    -0.0035                  5.259451175205052E-5
0.0055                    -0.0025                  1.1040705778743657E-4
0.0055                    -0.0015                  2.3394807835987126E-4
0.0055                    -5.0E-4                  5.125492027405275E-4
0.0055                    5.0E-4                   0.0011363125339826335
0.0055                    0.0015                   0.002318883239343028
0.0055                    0.0025                   0.004065479771742159
0.0055                    0.0035                   0.006007856819541377
0.0055                    0.0045                   0.007686830749701275
0.0055                    0.0055                   0.008902215869037822
0.0055                    0.0065                   0.009693649592214634
0.0055                    0.0075                   0.010079541029427186
0.0055                    0.0085                   0.009962528070907911
0.0055                    0.0095                   0.00940030326962588
0.0055                    0.0105                   0.009108537474410733
0.0055                    0.0115                   0.010788543261656064
0.0055                    0.0125                   0.01575269270928883
0.0055                    0.0135                   0.0220865041466769
0.0055                    0.0145                   0.025547656653269947
0.0055                    0.0155                   0.02251925313847072
0.0055                    0.0165                   0.01253339708635672
0.0055                    0.0175                   0.002977297076700888
0.0055                    0.0185                   4.871850187946013E-4
0.0055                    0.0195                   5.976624963317834E-4
0.0055                    0.0205                   2.0082611124115255E-4
0.0055                    0.0215                   6.8275171833319E-5
0.0055                    0.0225                   3.678982704192855E-5
0.0055                    0.0235                   2.20700200739297E-5
0.0055                    0.0245                   1.3366042237359476E-5
0.0055                    0.0255                   8.98316026459161E-6
0.0055                    0.0265                   7.049157189080526E-6
0.0055                    0.0275                   6.134981661051092E-6
0.0055                    0.0285                   5.476717576782205E-6
0.0055                    0.0295                   4.661240575623155E-6
0.0055                    0.0305                   4.016002305120743E-6
0.0055                    0.0315                   2.0229975129026464E-6
0.0065                    -0.0315                  3.7689620481691214E-6
0.0065                    -0.0305                  6.589755716113829E-6
0.0065                    -0.0295                  6.292200327825148E-6
0.0065                    -0.0285                  6.9677146089928995E-6
0.0065                    -0.0275                  7.374675120673101E-6
0.0065                    -0.0265                  7.662574652510612E-6
0.0065                    -0.0255                  7.78332104404807E-6
0.0065                    -0.0245                  7.801290735212444E-6
0.0065                    -0.0235                  7.767865203488371E-6
0.0065                    -0.0225                  7.721806715856784E-6
0.0065                    -0.0215                  7.676562975215436E-6
0.0065                    -0.0205                  7.6251170341064E-6
0.0065                    -0.0195                  7.548758936300525E-6
0.0065                    -0.0185                  7.429110755318191E-6
0.0065                    -0.0175                  7.258874596366124E-6
0.0065                    -0.0165                  7.0473196263461825E-6
0.0065                    -0.0155                  6.819098284355495E-6
0.0065                    -0.0145                  6.608363533251152E-6
0.0065                    -0.0135                  6.452111488627071E-6
0.0065                    -0.0125                  6.3881568491776564E-6
0.0065                    -0.0115                  6.463850774288445E-6
0.0065                    -0.0105                  6.76348183132463E-6
0.0065                    -0.0095                  7.484066523618198E-6
0.0065                    -0.0085                  9.104893214937201E-6
0.0065                    -0.0075                  1.2781691566757137E-5
0.0065                    -0.0065                  2.087990346148232E-5
0.0065                    -0.0055                  3.786410488993302E-5