% Model:              Benchmark260518.mph
% Version:            COMSOL 6.2.0.339
% Date:               May 19 2026, 07:59
% Dimension:          2
% Nodes:              4096
% Expressions:        1
% Description:        速度大小
% Length unit:        m
% x                       y                        spf.U (m/s)
5.0E-4                    -0.0315                  1.0845028891313002E-6
5.0E-4                    -0.0305                  2.1750740835104155E-6
5.0E-4                    -0.0295                  2.4308774975980276E-6
5.0E-4                    -0.0285                  2.7042658561019352E-6
5.0E-4                    -0.0275                  2.8470749785102534E-6
5.0E-4                    -0.0265                  2.972450911708054E-6
5.0E-4                    -0.0255                  3.063092636473626E-6
5.0E-4                    -0.0245                  3.1439783626253284E-6
5.0E-4                    -0.0235                  3.236041912255851E-6
5.0E-4                    -0.0225                  3.321646730403292E-6
5.0E-4                    -0.0215                  3.402201755483554E-6
5.0E-4                    -0.0205                  3.493498616757028E-6
5.0E-4                    -0.0195                  3.5826263219799056E-6
5.0E-4                    -0.0185                  3.6593296818127512E-6
5.0E-4                    -0.0175                  3.7261770285359005E-6
5.0E-4                    -0.0165                  3.780190359357237E-6
5.0E-4                    -0.0155                  3.819028140621571E-6
5.0E-4                    -0.0145                  3.844046402533593E-6
5.0E-4                    -0.0135                  3.859313698662076E-6
5.0E-4                    -0.0125                  3.8752845329407565E-6
5.0E-4                    -0.0115                  3.904315752549365E-6
5.0E-4                    -0.0105                  3.957061699988207E-6
5.0E-4                    -0.0095                  4.0447058263783046E-6
5.0E-4                    -0.0085                  4.198401156511776E-6
5.0E-4                    -0.0075                  4.468717144268333E-6
5.0E-4                    -0.0065                  4.9545410751703245E-6
5.0E-4                    -0.0055                  5.8446550001780035E-6
5.0E-4                    -0.0045                  7.3680205563346755E-6
5.0E-4                    -0.0035                  1.1640692361063908E-5
5.0E-4                    -0.0025                  2.520491476483124E-5
5.0E-4                    -0.0015                  6.495300824285708E-5
5.0E-4                    -5.0E-4                  1.8026626444124752E-4
5.0E-4                    5.0E-4                   3.8360908563665676E-4
5.0E-4                    0.0015                   6.261778185111234E-4
5.0E-4                    0.0025                   9.98457386495418E-4
5.0E-4                    0.0035                   0.001719261793021181
5.0E-4                    0.0045                   0.0027655529405852383
5.0E-4                    0.0055                   0.0038693359818172397
5.0E-4                    0.0065                   0.004720262203952543
5.0E-4                    0.0075                   0.005068998924818202
5.0E-4                    0.0085                   0.004800269196321443
5.0E-4                    0.0095                   0.003953474233875064
5.0E-4                    0.0105                   0.0027156352124338445
5.0E-4                    0.0115                   0.001475840143555783
5.0E-4                    0.0125                   0.0015207732846358008
5.0E-4                    0.0135                   0.0026636373757904118
5.0E-4                    0.0145                   0.003263739948931444
5.0E-4                    0.0155                   0.002966459078670487
5.0E-4                    0.0165                   0.002147765170383497
5.0E-4                    0.0175                   0.0015194855545418253
5.0E-4                    0.0185                   0.001295966187521817
5.0E-4                    0.0195                   0.0012832914884761406
5.0E-4                    0.0205                   0.0017000795140885122
5.0E-4                    0.0215                   0.004551742294712083
5.0E-4                    0.0225                   0.028802613933358458
5.0E-4                    0.0235                   0.04609917027320207
5.0E-4                    0.0245                   0.03483674363343183
5.0E-4                    0.0255                   0.012805131593222102
5.0E-4                    0.0265                   3.1429331218338434E-4
5.0E-4                    0.0275                   2.720426961386245E-4
5.0E-4                    0.0285                   3.7590237374981105E-5
5.0E-4                    0.0295                   2.0982800749599196E-5
5.0E-4                    0.0305                   9.701524781402313E-6
5.0E-4                    0.0315                   2.9065993757186005E-6
0.0015                    -0.0315                  2.117781487431689E-6
0.0015                    -0.0305                  4.193703975686765E-6
0.0015                    -0.0295                  4.499518982152955E-6
0.0015                    -0.0285                  4.797166000288264E-6
0.0015                    -0.0275                  4.889991647723129E-6
0.0015                    -0.0265                  4.973474568270396E-6
0.0015                    -0.0255                  5.032799842557641E-6
0.0015                    -0.0245                  5.0965511420327154E-6
0.0015                    -0.0235                  5.184165577543189E-6
0.0015                    -0.0225                  5.2789031492702525E-6
0.0015                    -0.0215                  5.381089919758637E-6
0.0015                    -0.0205                  5.504093189057964E-6
0.0015                    -0.0195                  5.632626402663281E-6
0.0015                    -0.0185                  5.751517384412316E-6
0.0015                    -0.0175                  5.857065221506199E-6
0.0015                    -0.0165                  5.940677190457436E-6
0.0015                    -0.0155                  5.995401025377075E-6
0.0015                    -0.0145                  6.021209754980806E-6
0.0015                    -0.0135                  6.025570052681977E-6
0.0015                    -0.0125                  6.0265040018401654E-6
0.0015                    -0.0115                  6.047258854040348E-6
0.0015                    -0.0105                  6.11236001360495E-6
0.0015                    -0.0095                  6.2530157957099406E-6
0.0015                    -0.0085                  6.531570176933756E-6
0.0015                    -0.0075                  7.058332905915286E-6
0.0015                    -0.0065                  8.058891776404857E-6
0.0015                    -0.0055                  9.972239321694278E-6
0.0015                    -0.0045                  1.368908478784104E-5
0.0015                    -0.0035                  2.3037658060011573E-5
0.0015                    -0.0025                  4.87851392454006E-5
0.0015                    -0.0015                  1.209344554524263E-4
0.0015                    -5.0E-4                  3.543351694407947E-4
0.0015                    5.0E-4                   8.498962476511419E-4
0.0015                    0.0015                   0.0017953324213149373
0.0015                    0.0025                   0.003602403630987793
0.0015                    0.0035                   0.006254740744930223
0.0015                    0.0045                   0.00916276287388406
0.0015                    0.0055                   0.011718532551225761
0.0015                    0.0065                   0.013493074319643703
0.0015                    0.0075                   0.014271510672229218
0.0015                    0.0085                   0.014005975989214738
0.0015                    0.0095                   0.01277683345964842
0.0015                    0.0105                   0.010741257914317
0.0015                    0.0115                   0.008051627376532061
0.0015                    0.0125                   0.004928139311519744
0.0015                    0.0135                   0.002742899043783169
0.0015                    0.0145                   0.0038588380071265535
0.0015                    0.0155                   0.00503278774563503
0.0015                    0.0165                   0.0048335614890088726
0.0015                    0.0175                   0.0040980906641636845
0.0015                    0.0185                   0.003523725781114371
0.0015                    0.0195                   0.0032677247766649564
0.0015                    0.0205                   0.002201460306730639
0.0015                    0.0215                   0.014416305383731917
0.0015                    0.0225                   0.03666879813002831
0.0015                    0.0235                   0.04418118293127964
0.0015                    0.0245                   0.03016519437526681
0.0015                    0.0255                   0.01011107211870249
0.0015                    0.0265                   2.984701843218568E-4
0.0015                    0.0275                   5.353485773140862E-4
0.0015                    0.0285                   9.708255373682273E-5
0.0015                    0.0295                   4.2725286707449945E-5
0.0015                    0.0305                   1.980052294591515E-5
0.0015                    0.0315                   6.16337497310019E-6
0.0025                    -0.0315                  2.2348308803299862E-6
0.0025                    -0.0305                  4.283855930076862E-6
0.0025                    -0.0295                  4.3900106558719015E-6
0.0025                    -0.0285                  4.549442332951994E-6
0.0025                    -0.0275                  4.477823002264967E-6
0.0025                    -0.0265                  4.387173626011028E-6
0.0025                    -0.0255                  4.298772061674223E-6
0.0025                    -0.0245                  4.235523986434833E-6
0.0025                    -0.0235                  4.20158156813002E-6
0.0025                    -0.0225                  4.200365034533536E-6
0.0025                    -0.0215                  4.231133787724481E-6
0.0025                    -0.0205                  4.290792106936332E-6
0.0025                    -0.0195                  4.373202596365374E-6
0.0025                    -0.0185                  4.466850700375094E-6
0.0025                    -0.0175                  4.557018028474507E-6
0.0025                    -0.0165                  4.628404535143913E-6
0.0025                    -0.0155                  4.667459191393811E-6
0.0025                    -0.0145                  4.667839723194134E-6
0.0025                    -0.0135                  4.635388537327793E-6
0.0025                    -0.0125                  4.589356832240001E-6
0.0025                    -0.0115                  4.56118752935621E-6
0.0025                    -0.0105                  4.5938655604995425E-6
0.0025                    -0.0095                  4.7482415960623995E-6
0.0025                    -0.0085                  5.121513026495713E-6
0.0025                    -0.0075                  5.894822373801753E-6
0.0025                    -0.0065                  7.448465222573564E-6
0.0025                    -0.0055                  1.0644950171482615E-5
0.0025                    -0.0045                  1.7446100004133682E-5
0.0025                    -0.0035                  3.215938676872863E-5
0.0025                    -0.0025                  6.816079096116816E-5
0.0025                    -0.0015                  1.6317425522618703E-4
0.0025                    -5.0E-4                  5.206036716492135E-4
0.0025                    5.0E-4                   0.001576023855741635
0.0025                    0.0015                   0.004004593414104215
0.0025                    0.0025                   0.007881549458330712
0.0025                    0.0035                   0.012122316708737231
0.0025                    0.0045                   0.015616255219128497
0.0025                    0.0055                   0.01802000845181262
0.0025                    0.0065                   0.01949180731115201
0.0025                    0.0075                   0.020284744324440437
0.0025                    0.0085                   0.020584216011497826
0.0025                    0.0095                   0.020442812107623658
0.0025                    0.0105                   0.01973742379770474
0.0025                    0.0115                   0.0181621886229728
0.0025                    0.0125                   0.015309269536887942
0.0025                    0.0135                   0.010952204245228863
0.0025                    0.0145                   0.005594996985527178
0.0025                    0.0155                   0.0011309471497041594
0.0025                    0.0165                   0.0029383357079320305
0.0025                    0.0175                   0.00405388673190805
0.0025                    0.0185                   0.003740701695921787
0.0025                    0.0195                   0.0022334884994717674
0.0025                    0.0205                   0.008229397731936755
0.0025                    0.0215                   0.025454532557611726
0.0025                    0.0225                   0.040397711036125064
0.0025                    0.0235                   0.04032611405103178
0.0025                    0.0245                   0.023976964012072572
0.0025                    0.0255                   0.006447374064354541
0.0025                    0.0265                   2.9642370103414407E-4
0.0025                    0.0275                   5.1981454479217E-4
0.0025                    0.0285                   1.2513394359338364E-4
0.0025                    0.0295                   5.162774871126092E-5
0.0025                    0.0305                   2.2151925336538315E-5
0.0025                    0.0315                   6.965826399150639E-6
0.0035                    -0.0315                  2.4296021726062535E-6
0.0035                    -0.0305                  4.473727353460464E-6
0.0035                    -0.0295                  4.485669667761769E-6
0.0035                    -0.0285                  4.781825369563288E-6
0.0035                    -0.0275                  4.784401265273124E-6
0.0035                    -0.0265                  4.711720914499155E-6
0.0035                    -0.0255                  4.600399636038174E-6
0.0035                    -0.0245                  4.4974933454892475E-6
0.0035                    -0.0235                  4.419920883896577E-6
0.0035                    -0.0225                  4.3785543280072305E-6
0.0035                    -0.0215                  4.378710809548804E-6
0.0035                    -0.0205                  4.421875754009182E-6
0.0035                    -0.0195                  4.50421148159486E-6
0.0035                    -0.0185                  4.6156783902915965E-6
0.0035                    -0.0175                  4.7399927341279024E-6
0.0035                    -0.0165                  4.85597446539509E-6
0.0035                    -0.0155                  4.941147368241419E-6
0.0035                    -0.0145                  4.978406617067036E-6
0.0035                    -0.0135                  4.965777629920169E-6
0.0035                    -0.0125                  4.925538042975541E-6
0.0035                    -0.0115                  4.907445324760842E-6
0.0035                    -0.0105                  4.989234021061238E-6
0.0035                    -0.0095                  5.286424728741194E-6
0.0035                    -0.0085                  5.9839164329315015E-6
0.0035                    -0.0075                  7.424148260338143E-6
0.0035                    -0.0065                  1.0345893455429634E-5
0.0035                    -0.0055                  1.6524953858039598E-5
0.0035                    -0.0045                  3.079526766754355E-5
0.0035                    -0.0035                  6.351957530333524E-5
0.0035                    -0.0025                  1.3545337643306918E-4
0.0035                    -0.0015                  3.609851063394651E-4
0.0035                    -5.0E-4                  0.0011134877943143147
0.0035                    5.0E-4                   0.0034868624699332792
0.0035                    0.0015                   0.008062659097811634
0.0035                    0.0025                   0.013270326950833248
0.0035                    0.0035                   0.017230811800799852
0.0035                    0.0045                   0.019514627490769813
0.0035                    0.0055                   0.020645345605024897
0.0035                    0.0065                   0.02122699526750995
0.0035                    0.0075                   0.02165957747186302
0.0035                    0.0085                   0.022229650437177412
0.0035                    0.0095                   0.02305021274714495
0.0035                    0.0105                   0.023930535074296527
0.0035                    0.0115                   0.02438058106618455
0.0035                    0.0125                   0.02372594235266529
0.0035                    0.0135                   0.021267576757346876
0.0035                    0.0145                   0.01678228537952657
0.0035                    0.0155                   0.011031453874424396
0.0035                    0.0165                   0.005720500354120584
0.0035                    0.0175                   0.00268498642120007
0.0035                    0.0185                   0.003395369657919603
0.0035                    0.0195                   0.008905143104874875
0.0035                    0.0205                   0.0207054767211239
0.0035                    0.0215                   0.034179497757082324
0.0035                    0.0225                   0.04060613074573396
0.0035                    0.0235                   0.034192457720018755
0.0035                    0.0245                   0.016754994590025444
0.0035                    0.0255                   0.0030379220019704444
0.0035                    0.0265                   4.3547086068300705E-4
0.0035                    0.0275                   3.662128425039209E-4
0.0035                    0.0285                   1.2998562212323522E-4
0.0035                    0.0295                   6.369984399612675E-5
0.0035                    0.0305                   2.5179986558133937E-5
0.0035                    0.0315                   7.6446891483788E-6
0.0045                    -0.0315                  2.5681343676805337E-6
0.0045                    -0.0305                  4.559468276044294E-6
0.0045                    -0.0295                  4.405444531202373E-6
0.0045                    -0.0285                  4.775409635507196E-6
0.0045                    -0.0275                  4.884884396808952E-6
0.0045                    -0.0265                  4.8865581080912644E-6
0.0045                    -0.0255                  4.800912281980214E-6
0.0045                    -0.0245                  4.689958277437741E-6
0.0045                    -0.0235                  4.585911889668636E-6
0.0045                    -0.0225                  4.511987131684789E-6
0.0045                    -0.0215                  4.4829562881081965E-6
0.0045                    -0.0205                  4.5077513801626994E-6
0.0045                    -0.0195                  4.588846553331011E-6
0.0045                    -0.0185                  4.72106147409477E-6
0.0045                    -0.0175                  4.890522783788924E-6
0.0045                    -0.0165                  5.07484515544419E-6
0.0045                    -0.0155                  5.2459099237007145E-6
0.0045                    -0.0145                  5.377366331925182E-6
0.0045                    -0.0135                  5.4588502091121544E-6
0.0045                    -0.0125                  5.517938485349315E-6
0.0045                    -0.0115                  5.640215515583497E-6
0.0045                    -0.0105                  5.970428248221022E-6
0.0045                    -0.0095                  6.7180360306698035E-6
0.0045                    -0.0085                  8.243194086609801E-6
0.0045                    -0.0075                  1.1209736049690667E-5
0.0045                    -0.0065                  1.7040143029143863E-5
0.0045                    -0.0055                  2.9738263088898044E-5
0.0045                    -0.0045                  6.042601771811212E-5
0.0045                    -0.0035                  1.507068872247725E-4
0.0045                    -0.0025                  3.57526523659086E-4
0.0045                    -0.0015                  8.907192972445698E-4
0.0045                    -5.0E-4                  0.0025911800422638936
0.0045                    5.0E-4                   0.006986136918784355
0.0045                    0.0015                   0.01325136807857758
0.0045                    0.0025                   0.01808528833015449
0.0045                    0.0035                   0.020143318764894155
0.0045                    0.0045                   0.020272546082970737
0.0045                    0.0055                   0.019481818664901136
0.0045                    0.0065                   0.01846885081745936
0.0045                    0.0075                   0.01787760684263882
0.0045                    0.0085                   0.018181976488016154
0.0045                    0.0095                   0.019554089584023285
0.0045                    0.0105                   0.02182706562505144
0.0045                    0.0115                   0.024434431689283605
0.0045                    0.0125                   0.02652695075197281
0.0045                    0.0135                   0.02717774342315823
0.0045                    0.0145                   0.025721000135515714
0.0045                    0.0155                   0.02229450579194539
0.0045                    0.0165                   0.018078809493346976
0.0045                    0.0175                   0.015148412727517487
0.0045                    0.0185                   0.01600377105815073
0.0045                    0.0195                   0.022013489054810164
0.0045                    0.0205                   0.030917778896938992
0.0045                    0.0215                   0.03747567120150194
0.0045                    0.0225                   0.03679329011165648
0.0045                    0.0235                   0.025637688747700667
0.0045                    0.0245                   0.009532045099768334
0.0045                    0.0255                   7.605129732356008E-4
0.0045                    0.0265                   3.796084216652103E-4
0.0045                    0.0275                   2.220667507624325E-4
0.0045                    0.0285                   1.1638558163676798E-4
0.0045                    0.0295                   6.126964919768544E-5
0.0045                    0.0305                   2.5333354813026866E-5
0.0045                    0.0315                   7.835761558711245E-6
0.0055                    -0.0315                  2.6889639005088368E-6
0.0055                    -0.0305                  4.646950320615596E-6
0.0055                    -0.0295                  4.332204705198698E-6
0.0055                    -0.0285                  4.724489000488297E-6
0.0055                    -0.0275                  4.913227511562149E-6
0.0055                    -0.0265                  5.0047037241438136E-6
0.0055                    -0.0255                  4.978140758404393E-6
0.0055                    -0.0245                  4.889587821322325E-6
0.0055                    -0.0235                  4.779598033074589E-6
0.0055                    -0.0225                  4.6831137042612705E-6
0.0055                    -0.0215                  4.6262555715835675E-6
0.0055                    -0.0205                  4.628832872206207E-6
0.0055                    -0.0195                  4.703621294724684E-6
0.0055                    -0.0185                  4.855126796000785E-6
0.0055                    -0.0175                  5.078346528175596E-6
0.0055                    -0.0165                  5.358340939031561E-6
0.0055                    -0.0155                  5.6714980665390435E-6
0.0055                    -0.0145                  5.993492787508916E-6
0.0055                    -0.0135                  6.3203880107728735E-6
0.0055                    -0.0125                  6.707082732033234E-6
0.0055                    -0.0115                  7.323260840946444E-6
0.0055                    -0.0105                  8.489357452025583E-6
0.0055                    -0.0095                  1.0615351734846324E-5
0.0055                    -0.0085                  1.4266659328497154E-5
0.0055                    -0.0075                  2.109192862643937E-5
0.0055                    -0.0065                  3.443985714800511E-5
0.0055                    -0.0055                  6.203004194544183E-5
0.0055                    -0.0045                  1.368566115806054E-4
0.0055                    -0.0035                  3.509368057093827E-4
0.0055                    -0.0025                  8.350935641644473E-4
0.0055                    -0.0015                  0.0020427289110175324
0.0055                    -5.0E-4                  0.005479002384862427
0.0055                    5.0E-4                   0.011849178963918981
0.0055                    0.0015                   0.018196873880277926
0.0055                    0.0025                   0.02109613560857227
0.0055                    0.0035                   0.020573805687265873
0.0055                    0.0045                   0.018135453692679226
0.0055                    0.0055                   0.01498869588289117
0.0055                    0.0065                   0.01221445657069648
0.0055                    0.0075                   0.010558769044407541
0.0055                    0.0085                   0.010308660401581947
0.0055                    0.0095                   0.01151090605487704
0.0055                    0.0105                   0.014151295648251542
0.0055                    0.0115                   0.017990675294444352
0.0055                    0.0125                   0.02235963562451576
0.0055                    0.0135                   0.026170223765179274
0.0055                    0.0145                   0.028303042855168735
0.0055                    0.0155                   0.028229922778552546
0.0055                    0.0165                   0.02655929728590216
0.0055                    0.0175                   0.025094920752047743
0.0055                    0.0185                   0.026010092682476373
0.0055                    0.0195                   0.029831835177607544
0.0055                    0.0205                   0.03410928748983479
0.0055                    0.0215                   0.035105635576742546
0.0055                    0.0225                   0.029167221350039723
0.0055                    0.0235                   0.0157741985713903
0.0055                    0.0245                   0.003742559064310895
0.0055                    0.0255                   2.516602564619086E-4
0.0055                    0.0265                   2.741614066424454E-4
0.0055                    0.0275                   1.5398626649838645E-4
0.0055                    0.0285                   9.892030035861901E-5
0.0055                    0.0295                   4.925075786293597E-5
0.0055                    0.0305                   2.2150580378972268E-5
0.0055                    0.0315                   7.35510790271629E-6
0.0065                    -0.0315                  2.7879881545987446E-6
0.0065                    -0.0305                  4.722119643789425E-6
0.0065                    -0.0295                  4.261050912425441E-6
0.0065                    -0.0285                  4.641029065927057E-6
0.0065                    -0.0275                  4.868386674687232E-6
0.0065                    -0.0265                  5.028927480537645E-6
0.0065                    -0.0255                  5.065980427633038E-6
0.0065                    -0.0245                  5.015780092351816E-6
0.0065                    -0.0235                  4.914577951362605E-6
0.0065                    -0.0225                  4.803204961606975E-6
0.0065                    -0.0215                  4.717987568342735E-6
0.0065                    -0.0205                  4.691211429600813E-6
0.0065                    -0.0195                  4.749994442049836E-6
0.0065                    -0.0185                  4.915121831908394E-6
0.0065                    -0.0175                  5.199851960709263E-6
0.0065                    -0.0165                  5.610593427364715E-6
0.0065                    -0.0155                  6.150386578260156E-6
0.0065                    -0.0145                  6.826822463723926E-6
0.0065                    -0.0135                  7.683104274529994E-6
0.0065                    -0.0125                  8.880795160955824E-6
0.0065                    -0.0115                  1.0837653646502782E-5
0.0065                    -0.0105                  1.440046097595717E-5
0.0065                    -0.0095                  2.0883439360265576E-5
0.0065                    -0.0085                  3.1483032768210844E-5
0.0065                    -0.0075                  4.8441518603983805E-5
0.0065                    -0.0065                  8.754342289326191E-5
0.0065                    -0.0055                  1.6353218444399294E-4