% Model:              Benchmark260518.mph
% Version:            COMSOL 6.2.0.339
% Date:               May 19 2026, 11:30
% Dimension:          2
% Nodes:              4096
% Expressions:        1
% Description:        速度大小
% Length unit:        m
% x                       y                        spf.U (m/s)
5.0E-4                    -0.0315                  9.547470194449008E-7
5.0E-4                    -0.0305                  1.921487059483464E-6
5.0E-4                    -0.0295                  2.1536134823869475E-6
5.0E-4                    -0.0285                  2.3771010423414655E-6
5.0E-4                    -0.0275                  2.4881086176721954E-6
5.0E-4                    -0.0265                  2.615478578264764E-6
5.0E-4                    -0.0255                  2.7270877725001397E-6
5.0E-4                    -0.0245                  2.8149277484380505E-6
5.0E-4                    -0.0235                  2.8742606310447434E-6
5.0E-4                    -0.0225                  2.908483636702337E-6
5.0E-4                    -0.0215                  2.9312040153238286E-6
5.0E-4                    -0.0205                  2.9766692885691924E-6
5.0E-4                    -0.0195                  3.044777887679479E-6
5.0E-4                    -0.0185                  3.102083952126597E-6
5.0E-4                    -0.0175                  3.1460796039771762E-6
5.0E-4                    -0.0165                  3.179337769085385E-6
5.0E-4                    -0.0155                  3.214931057369588E-6
5.0E-4                    -0.0145                  3.2572892537077003E-6
5.0E-4                    -0.0135                  3.2953577837924147E-6
5.0E-4                    -0.0125                  3.3258134647017305E-6
5.0E-4                    -0.0115                  3.358080936675507E-6
5.0E-4                    -0.0105                  3.398741729856049E-6
5.0E-4                    -0.0095                  3.4401940137463553E-6
5.0E-4                    -0.0085                  3.4818980897005088E-6
5.0E-4                    -0.0075                  3.5140894628634955E-6
5.0E-4                    -0.0065                  3.541350558196248E-6
5.0E-4                    -0.0055                  3.5695969371336134E-6
5.0E-4                    -0.0045                  3.606397871024911E-6
5.0E-4                    -0.0035                  3.656605031471762E-6
5.0E-4                    -0.0025                  3.7260770916900254E-6
5.0E-4                    -0.0015                  3.832522923041492E-6
5.0E-4                    -5.0E-4                  3.996977084476384E-6
5.0E-4                    5.0E-4                   4.257510250423521E-6
5.0E-4                    0.0015                   4.668662046329481E-6
5.0E-4                    0.0025                   5.348565979727635E-6
5.0E-4                    0.0035                   6.541443253375369E-6
5.0E-4                    0.0045                   8.979039697380062E-6
5.0E-4                    0.0055                   1.637998388976333E-5
5.0E-4                    0.0065                   4.0903497323034647E-5
5.0E-4                    0.0075                   1.2062383487634028E-4
5.0E-4                    0.0085                   2.404611379142273E-4
5.0E-4                    0.0095                   3.0211887869888707E-4
5.0E-4                    0.0105                   2.6417447052325935E-4
5.0E-4                    0.0115                   4.2086691165786237E-4
5.0E-4                    0.0125                   7.61605320762604E-4
5.0E-4                    0.0135                   0.00102430574384932
5.0E-4                    0.0145                   0.0011277768392646454
5.0E-4                    0.0155                   0.0011090211248016926
5.0E-4                    0.0165                   9.987261427775466E-4
5.0E-4                    0.0175                   6.554398818185182E-4
5.0E-4                    0.0185                   0.0013603100129835756
5.0E-4                    0.0195                   0.006317147255043472
5.0E-4                    0.0205                   0.01857949107359989
5.0E-4                    0.0215                   0.02578145782470187
5.0E-4                    0.0225                   0.021642649761626546
5.0E-4                    0.0235                   0.01600990368499514
5.0E-4                    0.0245                   0.010058706524954235
5.0E-4                    0.0255                   0.005204511300255675
5.0E-4                    0.0265                   0.001959110888691926
5.0E-4                    0.0275                   5.036232321508486E-4
5.0E-4                    0.0285                   1.3553796562200046E-4
5.0E-4                    0.0295                   6.547298060183859E-5
5.0E-4                    0.0305                   2.2139207490761846E-5
5.0E-4                    0.0315                   6.65845757230105E-6
0.0015                    -0.0315                  1.878613742351756E-6
0.0015                    -0.0305                  3.721323736539585E-6
0.0015                    -0.0295                  3.990901742843823E-6
0.0015                    -0.0285                  4.236966219642793E-6
0.0015                    -0.0275                  4.308779966474832E-6
0.0015                    -0.0265                  4.407119231542613E-6
0.0015                    -0.0255                  4.4981939049051075E-6
0.0015                    -0.0245                  4.571722156787098E-6
0.0015                    -0.0235                  4.620236248676375E-6
0.0015                    -0.0225                  4.6470301197372645E-6
0.0015                    -0.0215                  4.667819266480201E-6
0.0015                    -0.0205                  4.7166087176804606E-6
0.0015                    -0.0195                  4.7917463500392795E-6
0.0015                    -0.0185                  4.858614544489092E-6
0.0015                    -0.0175                  4.912110021077522E-6
0.0015                    -0.0165                  4.955965892868483E-6
0.0015                    -0.0155                  5.00421125777411E-6
0.0015                    -0.0145                  5.061948140013348E-6
0.0015                    -0.0135                  5.1188296631620464E-6
0.0015                    -0.0125                  5.171733542826317E-6
0.0015                    -0.0115                  5.229753615391026E-6
0.0015                    -0.0105                  5.297920215301835E-6
0.0015                    -0.0095                  5.366822248572141E-6
0.0015                    -0.0085                  5.432343413954252E-6
0.0015                    -0.0075                  5.483738669544237E-6
0.0015                    -0.0065                  5.525279945041706E-6
0.0015                    -0.0055                  5.565309069420672E-6
0.0015                    -0.0045                  5.615203569867615E-6
0.0015                    -0.0035                  5.6856536116824875E-6
0.0015                    -0.0025                  5.791838310186579E-6
0.0015                    -0.0015                  5.965768187255314E-6
0.0015                    -5.0E-4                  6.2539492207034335E-6
0.0015                    5.0E-4                   6.737729918003185E-6
0.0015                    0.0015                   7.5473968536402555E-6
0.0015                    0.0025                   8.938148375129825E-6
0.0015                    0.0035                   1.1489869639796301E-5
0.0015                    0.0045                   1.696526400415004E-5
0.0015                    0.0055                   3.212739135261532E-5
0.0015                    0.0065                   7.936396567549457E-5
0.0015                    0.0075                   2.2451451389306627E-4
0.0015                    0.0085                   4.3689685304078123E-4
0.0015                    0.0095                   5.764276595875482E-4
0.0015                    0.0105                   7.286844531209337E-4
0.0015                    0.0115                   9.905864918082188E-4
0.0015                    0.0125                   9.180385498587521E-4
0.0015                    0.0135                   7.007563974201125E-4
0.0015                    0.0145                   4.661629859501501E-4
0.0015                    0.0155                   3.245475825338755E-4
0.0015                    0.0165                   0.0013273196815042567
0.0015                    0.0175                   0.003681821623849828
0.0015                    0.0185                   0.008682813450664687
0.0015                    0.0195                   0.017280407761278704
0.0015                    0.0205                   0.02482623897258933
0.0015                    0.0215                   0.024950346088892437
0.0015                    0.0225                   0.019699468488846943
0.0015                    0.0235                   0.013585893077785561
0.0015                    0.0245                   0.007906392379181176
0.0015                    0.0255                   0.0036579113848211314
0.0015                    0.0265                   0.001233631717222732
0.0015                    0.0275                   4.0568262014082615E-4
0.0015                    0.0285                   2.465989271302275E-4
0.0015                    0.0295                   1.3158933116602997E-4
0.0015                    0.0305                   4.8515081752716995E-5
0.0015                    0.0315                   1.465840980207786E-5
0.0025                    -0.0315                  2.007040798212456E-6
0.0025                    -0.0305                  3.82906113804178E-6
0.0025                    -0.0295                  3.902208526925471E-6
0.0025                    -0.0285                  4.050075672784793E-6
0.0025                    -0.0275                  4.001554333717197E-6
0.0025                    -0.0265                  3.9422998753306715E-6
0.0025                    -0.0255                  3.882881101363415E-6
0.0025                    -0.0245                  3.833237077072204E-6
0.0025                    -0.0235                  3.79150620453142E-6
0.0025                    -0.0225                  3.7590540955243796E-6
0.0025                    -0.0215                  3.7386360394032237E-6
0.0025                    -0.0205                  3.7307650449211307E-6
0.0025                    -0.0195                  3.7329775509364802E-6
0.0025                    -0.0185                  3.7414128072148455E-6
0.0025                    -0.0175                  3.7521774804012157E-6
0.0025                    -0.0165                  3.766453251803795E-6
0.0025                    -0.0155                  3.7864846938271687E-6
0.0025                    -0.0145                  3.8143748871214585E-6
0.0025                    -0.0135                  3.85173736732303E-6
0.0025                    -0.0125                  3.899308996485897E-6
0.0025                    -0.0115                  3.956556742798179E-6
0.0025                    -0.0105                  4.020128353214873E-6
0.0025                    -0.0095                  4.084207569067595E-6
0.0025                    -0.0085                  4.140938446309305E-6
0.0025                    -0.0075                  4.185737903557523E-6
0.0025                    -0.0065                  4.217565742381802E-6
0.0025                    -0.0055                  4.241290117859597E-6
0.0025                    -0.0045                  4.266696919618505E-6
0.0025                    -0.0035                  4.3095094657139665E-6
0.0025                    -0.0025                  4.394379514742474E-6
0.0025                    -0.0015                  4.5606324894404415E-6
0.0025                    -5.0E-4                  4.875763651561114E-6
0.0025                    5.0E-4                   5.459385889052797E-6
0.0025                    0.0015                   6.535841325981974E-6
0.0025                    0.0025                   8.532723684193792E-6
0.0025                    0.0035                   1.239294938070608E-5
0.0025                    0.0045                   2.0726442211989084E-5
0.0025                    0.0055                   4.053046752020817E-5
0.0025                    0.0065                   9.223458826459003E-5
0.0025                    0.0075                   2.278075191603495E-4
0.0025                    0.0085                   4.8659675835892985E-4
0.0025                    0.0095                   7.525738718993176E-4
0.0025                    0.0105                   0.0012760857039042961
0.0025                    0.0115                   0.0021042183825919288
0.0025                    0.0125                   0.003157154938177051
0.0025                    0.0135                   0.004548720987558678
0.0025                    0.0145                   0.0061063747645266975
0.0025                    0.0155                   0.007964423658989264
0.0025                    0.0165                   0.010529858553279004
0.0025                    0.0175                   0.014323619246110184
0.0025                    0.0185                   0.01931397261894547
0.0025                    0.0195                   0.023836443048477186
0.0025                    0.0205                   0.02531365764686687
0.0025                    0.0215                   0.02223379938451939
0.0025                    0.0225                   0.016366619448984952
0.0025                    0.0235                   0.01042355907287917
0.0025                    0.0245                   0.0054932293706324575
0.0025                    0.0255                   0.0022637120604183806
0.0025                    0.0265                   7.433482241016541E-4
0.0025                    0.0275                   3.227407771163814E-4
0.0025                    0.0285                   2.401031203314618E-4
0.0025                    0.0295                   1.4704875931489294E-4
0.0025                    0.0305                   5.8580668276769403E-5
0.0025                    0.0315                   1.7970014876032754E-5
0.0035                    -0.0315                  2.181873525590989E-6
0.0035                    -0.0305                  3.997094769451066E-6
0.0035                    -0.0295                  3.9836800002278315E-6
0.0035                    -0.0285                  4.2594605644464915E-6
0.0035                    -0.0275                  4.286440268316238E-6
0.0035                    -0.0265                  4.253886430381575E-6
0.0035                    -0.0255                  4.185947980134239E-6
0.0035                    -0.0245                  4.116520710429149E-6
0.0035                    -0.0235                  4.052968940228225E-6
0.0035                    -0.0225                  3.9998441619740225E-6
0.0035                    -0.0215                  3.958715413228169E-6
0.0035                    -0.0205                  3.929931129858296E-6
0.0035                    -0.0195                  3.911951399331802E-6
0.0035                    -0.0185                  3.901824293174721E-6
0.0035                    -0.0175                  3.897283479157988E-6
0.0035                    -0.0165                  3.897697574830998E-6
0.0035                    -0.0155                  3.90449730660278E-6
0.0035                    -0.0145                  3.920397076309846E-6
0.0035                    -0.0135                  3.9487075824027554E-6
0.0035                    -0.0125                  3.992427390180778E-6
0.0035                    -0.0115                  4.0525335308791465E-6
0.0035                    -0.0105                  4.126067578869981E-6
0.0035                    -0.0095                  4.2053131646904285E-6
0.0035                    -0.0085                  4.279787233945186E-6
0.0035                    -0.0075                  4.339423278047476E-6
0.0035                    -0.0065                  4.378680877980674E-6
0.0035                    -0.0055                  4.3990554097310685E-6
0.0035                    -0.0045                  4.4108798115711926E-6
0.0035                    -0.0035                  4.435029536373876E-6
0.0035                    -0.0025                  4.507164345647552E-6
0.0035                    -0.0015                  4.688225067084202E-6
0.0035                    -5.0E-4                  5.087917263616E-6
0.0035                    5.0E-4                   5.919576294301122E-6
0.0035                    0.0015                   7.623912550687448E-6
0.0035                    0.0025                   1.1155290741908878E-5
0.0035                    0.0035                   1.842891316899054E-5
0.0035                    0.0045                   3.3411612490002444E-5
0.0035                    0.0055                   6.740370071040183E-5
0.0035                    0.0065                   1.4446867471637424E-4
0.0035                    0.0075                   3.11071824897314E-4
0.0035                    0.0085                   7.888398328460128E-4
0.0035                    0.0095                   0.0017640209244820728
0.0035                    0.0105                   0.003707247171825902
0.0035                    0.0115                   0.006893101167649946
0.0035                    0.0125                   0.010460504475288216
0.0035                    0.0135                   0.013580149290096875
0.0035                    0.0145                   0.01616152163728695
0.0035                    0.0155                   0.01848577385523866
0.0035                    0.0165                   0.020778649642575916
0.0035                    0.0175                   0.023011245406430313
0.0035                    0.0185                   0.024696907337969608
0.0035                    0.0195                   0.024889135119592353
0.0035                    0.0205                   0.02263326756206768
0.0035                    0.0215                   0.01778602264237304
0.0035                    0.0225                   0.011993883811332403
0.0035                    0.0235                   0.006943621132697823
0.0035                    0.0245                   0.003258763801449638
0.0035                    0.0255                   0.0012294823756072513
0.0035                    0.0265                   4.571688172341627E-4
0.0035                    0.0275                   2.921075546347312E-4
0.0035                    0.0285                   2.3881199052181695E-4
0.0035                    0.0295                   1.4153661924905288E-4
0.0035                    0.0305                   6.265281497367461E-5
0.0035                    0.0315                   2.135066434467327E-5
0.0045                    -0.0315                  2.2936553688512834E-6
0.0045                    -0.0305                  4.055810829136508E-6
0.0045                    -0.0295                  3.898514443742426E-6
0.0045                    -0.0285                  4.2444271996518465E-6
0.0045                    -0.0275                  4.37567584601915E-6
0.0045                    -0.0265                  4.423530309026663E-6
0.0045                    -0.0255                  4.39713907760721E-6
0.0045                    -0.0245                  4.343207798281429E-6
0.0045                    -0.0235                  4.280892028321065E-6
0.0045                    -0.0225                  4.22137210748809E-6
0.0045                    -0.0215                  4.1695209314178975E-6
0.0045                    -0.0205                  4.127377250491246E-6
0.0045                    -0.0195                  4.0950606556110505E-6
0.0045                    -0.0185                  4.071472350893189E-6
0.0045                    -0.0175                  4.054779998413187E-6
0.0045                    -0.0165                  4.043525572551182E-6
0.0045                    -0.0155                  4.037718064357736E-6
0.0045                    -0.0145                  4.039654270337444E-6
0.0045                    -0.0135                  4.054022993561783E-6
0.0045                    -0.0125                  4.086771456139106E-6
0.0045                    -0.0115                  4.142589269753855E-6
0.0045                    -0.0105                  4.221700555557277E-6
0.0045                    -0.0095                  4.317528859931805E-6
0.0045                    -0.0085                  4.416874036280643E-6
0.0045                    -0.0075                  4.503560228358475E-6
0.0045                    -0.0065                  4.564238235689997E-6
0.0045                    -0.0055                  4.594565190019329E-6
0.0045                    -0.0045                  4.604251656817906E-6
0.0045                    -0.0035                  4.621919742428116E-6
0.0045                    -0.0025                  4.703154980414601E-6
0.0045                    -0.0015                  4.9492252761121054E-6
0.0045                    -5.0E-4                  5.552816934147479E-6
0.0045                    5.0E-4                   6.907706772994906E-6
0.0045                    0.0015                   9.882910782557887E-6
0.0045                    0.0025                   1.651847870838457E-5
0.0045                    0.0035                   3.183324416727151E-5
0.0045                    0.0045                   6.631176298581942E-5
0.0045                    0.0055                   1.3734031440660514E-4
0.0045                    0.0065                   3.390017183518172E-4
0.0045                    0.0075                   7.693670718800318E-4
0.0045                    0.0085                   0.001982328214573512
0.0045                    0.0095                   0.004948905797482749
0.0045                    0.0105                   0.009609790247736961
0.0045                    0.0115                   0.014734682221600282
0.0045                    0.0125                   0.01900020028132271
0.0045                    0.0135                   0.02196835675321609
0.0045                    0.0145                   0.023879203296680227
0.0045                    0.0155                   0.024990824943660676
0.0045                    0.0165                   0.025408676504806178
0.0045                    0.0175                   0.025100289318680795
0.0045                    0.0185                   0.023857097924727035
0.0045                    0.0195                   0.02129507350275878
0.0045                    0.0205                   0.017179348648227517
0.0045                    0.0215                   0.012105765819189034
0.0045                    0.0225                   0.007381731629031967
0.0045                    0.0235                   0.0038225122922297757
0.0045                    0.0245                   0.0016174924191207892
0.0045                    0.0255                   6.190645066502701E-4
0.0045                    0.0265                   3.204986959303941E-4
0.0045                    0.0275                   2.7774560457454134E-4
0.0045                    0.0285                   2.1030917941696013E-4
0.0045                    0.0295                   1.1040647478960413E-4
0.0045                    0.0305                   5.7253613170607254E-5
0.0045                    0.0315                   2.326895301478719E-5
0.0055                    -0.0315                  2.393265995498516E-6
0.0055                    -0.0305                  4.11822659530875E-6
0.0055                    -0.0295                  3.8132774289927042E-6
0.0055                    -0.0285                  4.1787712919489605E-6
0.0055                    -0.0275                  4.386455470478388E-6
0.0055                    -0.0265                  4.527944149448917E-6
0.0055                    -0.0255                  4.5755494510386946E-6
0.0055                    -0.0245                  4.569638960513591E-6
0.0055                    -0.0235                  4.534433129710735E-6
0.0055                    -0.0225                  4.487776635048755E-6
0.0055                    -0.0215                  4.439368678201836E-6
0.0055                    -0.0205                  4.394825903649841E-6
0.0055                    -0.0195                  4.356995251084556E-6
0.0055                    -0.0185                  4.326721964423043E-6
0.0055                    -0.0175                  4.303255533191918E-6
0.0055                    -0.0165                  4.2848625367368135E-6
0.0055                    -0.0155                  4.270103508166E-6
0.0055                    -0.0145                  4.259606238686218E-6
0.0055                    -0.0135                  4.257633815925279E-6
0.0055                    -0.0125                  4.272356750022243E-6
0.0055                    -0.0115                  4.313751642407228E-6
0.0055                    -0.0105                  4.389094601803195E-6
0.0055                    -0.0095                  4.497682399791755E-6
0.0055                    -0.0085                  4.627696184588158E-6
0.0055                    -0.0075                  4.757913432070462E-6
0.0055                    -0.0065                  4.865091833533467E-6
0.0055                    -0.0055                  4.9351994999814916E-6
0.0055                    -0.0045                  4.975632533557512E-6
0.0055                    -0.0035                  5.027449352367067E-6
0.0055                    -0.0025                  5.182066077822818E-6
0.0055                    -0.0015                  5.616336965303695E-6
0.0055                    -5.0E-4                  6.6730780982495745E-6
0.0055                    5.0E-4                   9.084597270736209E-6
0.0055                    0.0015                   1.4495409646834433E-5
0.0055                    0.0025                   2.7386460246034208E-5
0.0055                    0.0035                   6.023610317442829E-5
0.0055                    0.0045                   1.5595772435752405E-4
0.0055                    0.0055                   3.646143830185163E-4
0.0055                    0.0065                   8.653345919716216E-4
0.0055                    0.0075                   0.002090033451816503
0.0055                    0.0085                   0.005364542070850632
0.0055                    0.0095                   0.011241988378848301
0.0055                    0.0105                   0.017389892026163166
0.0055                    0.0115                   0.021665085541947866
0.0055                    0.0125                   0.024002651732342666
0.0055                    0.0135                   0.024938949001901252
0.0055                    0.0145                   0.02486493923894877
0.0055                    0.0155                   0.024044623456869706
0.0055                    0.0165                   0.022632427770264762
0.0055                    0.0175                   0.0206279657902413
0.0055                    0.0185                   0.017880027259385988
0.0055                    0.0195                   0.014338817950868823
0.0055                    0.0205                   0.010336010344501772
0.0055                    0.0215                   0.006551579786002152
0.0055                    0.0225                   0.0036094322901232385
0.0055                    0.0235                   0.0017079586594047455
0.0055                    0.0245                   7.139528269275083E-4
0.0055                    0.0255                   3.363623787843189E-4
0.0055                    0.0265                   2.6358703530917515E-4
0.0055                    0.0275                   2.3906971027501582E-4
0.0055                    0.0285                   1.6089970005272723E-4
0.0055                    0.0295                   8.19988445551563E-5
0.0055                    0.0305                   4.9163693522399336E-5
0.0055                    0.0315                   2.3189702062742537E-5
0.0065                    -0.0315                  2.484950658818273E-6
0.0065                    -0.0305                  4.1795141174737386E-6
0.0065                    -0.0295                  3.726211397439182E-6
0.0065                    -0.0285                  4.077432315093653E-6
0.0065                    -0.0275                  4.320725968323033E-6
0.0065                    -0.0265                  4.533298146624394E-6
0.0065                    -0.0255                  4.6565198329281975E-6
0.0065                    -0.0245                  4.713524557418679E-6
0.0065                    -0.0235                  4.7232671486951955E-6
0.0065                    -0.0225                  4.705479483562603E-6
0.0065                    -0.0215                  4.673371047864705E-6
0.0065                    -0.0205                  4.63592601564833E-6
0.0065                    -0.0195                  4.59910304927589E-6
0.0065                    -0.0185                  4.566614527125709E-6
0.0065                    -0.0175                  4.5398965429284005E-6
0.0065                    -0.0165                  4.518071483066921E-6
0.0065                    -0.0155                  4.498646458578927E-6
0.0065                    -0.0145                  4.4795348580278946E-6
0.0065                    -0.0135                  4.4621397031191425E-6
0.0065                    -0.0125                  4.454139720454803E-6
0.0065                    -0.0115                  4.469842144661203E-6
0.0065                    -0.0105                  4.526307942694982E-6
0.0065                    -0.0095                  4.635564152525005E-6
0.0065                    -0.0085                  4.796106824449186E-6
0.0065                    -0.0075                  4.988894247940251E-6
0.0065                    -0.0065                  5.182858815052352E-6
0.0065                    -0.0055                  5.351656729350484E-6