% Model:              Benchmark260518.mph
% Version:            COMSOL 6.2.0.339
% Date:               May 20 2026, 12:31
% Dimension:          2
% Nodes:              4096
% Expressions:        1
% Description:        速度大小
% Length unit:        m
% x                       y                        spf.U (m/s)
5.0E-4                    -0.0315                  2.819094821433678E-6
5.0E-4                    -0.0305                  5.644128321709552E-6
5.0E-4                    -0.0295                  6.346534413467443E-6
5.0E-4                    -0.0285                  7.142985721889552E-6
5.0E-4                    -0.0275                  7.636265019996697E-6
5.0E-4                    -0.0265                  8.15614545073799E-6
5.0E-4                    -0.0255                  8.686602285575508E-6
5.0E-4                    -0.0245                  9.270110475155893E-6
5.0E-4                    -0.0235                  9.910267828485718E-6
5.0E-4                    -0.0225                  1.0596815916785412E-5
5.0E-4                    -0.0215                  1.1310880634591726E-5
5.0E-4                    -0.0205                  1.2081136465773528E-5
5.0E-4                    -0.0195                  1.2945496006799241E-5
5.0E-4                    -0.0185                  1.4061023987645449E-5
5.0E-4                    -0.0175                  1.5533046854940902E-5
5.0E-4                    -0.0165                  1.758863098394231E-5
5.0E-4                    -0.0155                  2.0793149186763023E-5
5.0E-4                    -0.0145                  2.590653410208848E-5
5.0E-4                    -0.0135                  3.891973693687011E-5
5.0E-4                    -0.0125                  7.799779486391017E-5
5.0E-4                    -0.0115                  1.9854006261442315E-4
5.0E-4                    -0.0105                  3.6313583256764286E-4
5.0E-4                    -0.0095                  4.3902103518409375E-4
5.0E-4                    -0.0085                  4.7198953435708123E-4
5.0E-4                    -0.0075                  8.07004359291629E-4
5.0E-4                    -0.0065                  0.0016785879350334767
5.0E-4                    -0.0055                  0.002976134856946918
5.0E-4                    -0.0045                  0.004428431177098336
5.0E-4                    -0.0035                  0.005675120432027486
5.0E-4                    -0.0025                  0.006383951082884815
5.0E-4                    -0.0015                  0.0063549523100887365
5.0E-4                    -5.0E-4                  0.005577613226158983
5.0E-4                    5.0E-4                   0.0042206085500859376
5.0E-4                    0.0015                   0.0025251140314490965
5.0E-4                    0.0025                   0.0012665643027588076
5.0E-4                    0.0035                   0.002235784075729555
5.0E-4                    0.0045                   0.0029513123011690504
5.0E-4                    0.0055                   0.002517486312321733
5.0E-4                    0.0065                   0.0015130025806695917
5.0E-4                    0.0075                   7.196412435711586E-4
5.0E-4                    0.0085                   4.4114140583087415E-4
5.0E-4                    0.0095                   5.956565642019805E-4
5.0E-4                    0.0105                   8.337200763097218E-4
5.0E-4                    0.0115                   9.887808685145089E-4
5.0E-4                    0.0125                   0.0022464657868809016
5.0E-4                    0.0135                   0.004658881743947248
5.0E-4                    0.0145                   0.04925476571164192
5.0E-4                    0.0155                   0.08698837731418613
5.0E-4                    0.0165                   0.07064676216208417
5.0E-4                    0.0175                   0.027546907631135126
5.0E-4                    0.0185                   8.084335014125147E-4
5.0E-4                    0.0195                   7.125465542700385E-4
5.0E-4                    0.0205                   1.6709940243042574E-4
5.0E-4                    0.0215                   5.769413693388638E-5
5.0E-4                    0.0225                   2.844328197138991E-5
5.0E-4                    0.0235                   1.0174755992549496E-5
5.0E-4                    0.0245                   3.956217913837487E-6
5.0E-4                    0.0255                   1.8955414357462936E-6
5.0E-4                    0.0265                   1.1898141239335562E-6
5.0E-4                    0.0275                   9.406976332479413E-7
5.0E-4                    0.0285                   8.477348913075099E-7
5.0E-4                    0.0295                   8.025832318419799E-7
5.0E-4                    0.0305                   7.777255939368541E-7
5.0E-4                    0.0315                   3.991370204541182E-7
0.0015                    -0.0315                  5.465811879666134E-6
0.0015                    -0.0305                  1.076911544706972E-5
0.0015                    -0.0295                  1.1537998126588664E-5
0.0015                    -0.0285                  1.239200037681158E-5
0.0015                    -0.0275                  1.2794462454263138E-5
0.0015                    -0.0265                  1.3289132563427955E-5
0.0015                    -0.0255                  1.3878987298304634E-5
0.0015                    -0.0245                  1.4630775967979671E-5
0.0015                    -0.0235                  1.555864896536184E-5
0.0015                    -0.0225                  1.6650205005805685E-5
0.0015                    -0.0215                  1.7870144696621326E-5
0.0015                    -0.0205                  1.924100228009217E-5
0.0015                    -0.0195                  2.08933137788984E-5
0.0015                    -0.0185                  2.318427555821282E-5
0.0015                    -0.0175                  2.655008936508542E-5
0.0015                    -0.0165                  3.1729469295264996E-5
0.0015                    -0.0155                  4.003436702998276E-5
0.0015                    -0.0145                  5.394271004155698E-5
0.0015                    -0.0135                  8.380827352629143E-5
0.0015                    -0.0125                  1.5749560990751637E-4
0.0015                    -0.0115                  3.6678468498830847E-4
0.0015                    -0.0105                  6.922294386694553E-4
0.0015                    -0.0095                  0.001096549809355061
0.0015                    -0.0085                  0.002070172196879265
0.0015                    -0.0075                  0.004254337502491004
0.0015                    -0.0065                  0.007472878447602304
0.0015                    -0.0055                  0.01115256185823746
0.0015                    -0.0045                  0.014621908746834002
0.0015                    -0.0035                  0.017304037060372198
0.0015                    -0.0025                  0.018830100838818326
0.0015                    -0.0015                  0.019041734082256474
0.0015                    -5.0E-4                  0.0179660666049745
0.0015                    5.0E-4                   0.01574370984610846
0.0015                    0.0015                   0.012458886765555423
0.0015                    0.0025                   0.008158637457289581
0.0015                    0.0035                   0.003598723970979338
0.0015                    0.0045                   0.0029790370107518707
0.0015                    0.0055                   0.004518127440392325
0.0015                    0.0065                   0.0037709578476836205
0.0015                    0.0075                   0.002271537960413414
0.0015                    0.0085                   0.001439716537177021
0.0015                    0.0095                   0.001495180909054401
0.0015                    0.0105                   0.0018110139064065538
0.0015                    0.0115                   0.002375727632236742
0.0015                    0.0125                   0.00448761811707278
0.0015                    0.0135                   0.013650518489933414
0.0015                    0.0145                   0.0597383063779389
0.0015                    0.0155                   0.08585355403447635
0.0015                    0.0165                   0.06579225255664999
0.0015                    0.0175                   0.02470620672835946
0.0015                    0.0185                   0.001293524254532746
0.0015                    0.0195                   0.0016398342692764004
0.0015                    0.0205                   4.604709778609118E-4
0.0015                    0.0215                   1.3951125644915319E-4
0.0015                    0.0225                   5.460020939559919E-5
0.0015                    0.0235                   1.908105275824909E-5
0.0015                    0.0245                   7.543259932048164E-6
0.0015                    0.0255                   3.6534322285329866E-6
0.0015                    0.0265                   2.3078837127037016E-6
0.0015                    0.0275                   1.8348851373578278E-6
0.0015                    0.0285                   1.6781932779159191E-6
0.0015                    0.0295                   1.6156590718773774E-6
0.0015                    0.0305                   1.5558890178234033E-6
0.0015                    0.0315                   7.945714600086038E-7
0.0025                    -0.0315                  5.775448507811947E-6
0.0025                    -0.0305                  1.0911054993763818E-5
0.0025                    -0.0295                  1.096803666621071E-5
0.0025                    -0.0285                  1.1337748979334785E-5
0.0025                    -0.0275                  1.1220525196304775E-5
0.0025                    -0.0265                  1.1170298877602204E-5
0.0025                    -0.0255                  1.128057075942423E-5
0.0025                    -0.0245                  1.1666763080061717E-5
0.0025                    -0.0235                  1.2401906140831225E-5
0.0025                    -0.0225                  1.353943128362121E-5
0.0025                    -0.0215                  1.5105240242425568E-5
0.0025                    -0.0205                  1.7171032076205548E-5
0.0025                    -0.0195                  2.0071551023950628E-5
0.0025                    -0.0185                  2.468000027933149E-5
0.0025                    -0.0175                  3.221649492910547E-5
0.0025                    -0.0165                  4.431529851519798E-5
0.0025                    -0.0155                  6.457377279182828E-5
0.0025                    -0.0145                  9.621830461289884E-5
0.0025                    -0.0135                  1.447355507640256E-4
0.0025                    -0.0125                  2.638252975754091E-4
0.0025                    -0.0115                  5.531147331562397E-4
0.0025                    -0.0105                  0.0011567327980802834
0.0025                    -0.0095                  0.002730502719540861
0.0025                    -0.0085                  0.006126325717433064
0.0025                    -0.0075                  0.01101728178574339
0.0025                    -0.0065                  0.01621829507419329
0.0025                    -0.0055                  0.020771497311799666
0.0025                    -0.0045                  0.02422515227144561
0.0025                    -0.0035                  0.02657281788674699
0.0025                    -0.0025                  0.027978994980499897
0.0025                    -0.0015                  0.028627122566241715
0.0025                    -5.0E-4                  0.02861445552196497
0.0025                    5.0E-4                   0.02784658789250496
0.0025                    0.0015                   0.025968965209526806
0.0025                    0.0025                   0.022408891046991494
0.0025                    0.0035                   0.016609941041027365
0.0025                    0.0045                   0.008818472159400705
0.0025                    0.0055                   0.0018985812358483453
0.0025                    0.0065                   0.004303113892907464
0.0025                    0.0075                   0.0053728603791589145
0.0025                    0.0085                   0.004698807235411324
0.0025                    0.0095                   0.0038787749718878334
0.0025                    0.0105                   0.0033182476462884983
0.0025                    0.0115                   0.0036691690381795614
0.0025                    0.0125                   0.002599456991099363
0.0025                    0.0135                   0.0249994975996893
0.0025                    0.0145                   0.06778990382478761
0.0025                    0.0155                   0.08341160142236699
0.0025                    0.0165                   0.059241627926196534
0.0025                    0.0175                   0.020236639854923563
0.0025                    0.0185                   8.679044631777145E-4
0.0025                    0.0195                   0.002109227517882404
0.0025                    0.0205                   6.451562884251492E-4
0.0025                    0.0215                   1.7599642625542382E-4
0.0025                    0.0225                   5.613159163934121E-5
0.0025                    0.0235                   1.8638209081482257E-5
0.0025                    0.0245                   7.778075694611553E-6
0.0025                    0.0255                   4.003006745599696E-6
0.0025                    0.0265                   2.6333760602027124E-6
0.0025                    0.0275                   2.1289829647546855E-6
0.0025                    0.0285                   1.9537036864396504E-6
0.0025                    0.0295                   1.8453766003440379E-6
0.0025                    0.0305                   1.6894152780422939E-6
0.0025                    0.0315                   8.489048324629827E-7
0.0035                    -0.0315                  6.323207695728814E-6
0.0035                    -0.0305                  1.142911445140394E-5
0.0035                    -0.0295                  1.1154811189635358E-5
0.0035                    -0.0285                  1.1830579932367565E-5
0.0035                    -0.0275                  1.188914049016132E-5
0.0035                    -0.0265                  1.1926641564272906E-5
0.0035                    -0.0255                  1.21280487086948E-5
0.0035                    -0.0245                  1.2763245800612541E-5
0.0035                    -0.0235                  1.4090340812228047E-5
0.0035                    -0.0225                  1.6423673569086783E-5
0.0035                    -0.0215                  2.008852934791795E-5
0.0035                    -0.0205                  2.5445733169059285E-5
0.0035                    -0.0195                  3.3420529076879254E-5
0.0035                    -0.0185                  4.6645217102297685E-5
0.0035                    -0.0175                  7.106335918653179E-5
0.0035                    -0.0165                  1.1057605010486232E-4
0.0035                    -0.0155                  1.6682588108084164E-4
0.0035                    -0.0145                  2.75780767154697E-4
0.0035                    -0.0135                  4.3690185493806203E-4
0.0035                    -0.0125                  7.270195137361579E-4
0.0035                    -0.0115                  0.0013817376182110673
0.0035                    -0.0105                  0.003074859358459416
0.0035                    -0.0095                  0.006849636911855684
0.0035                    -0.0085                  0.012545495085206243
0.0035                    -0.0075                  0.01855329920399292
0.0035                    -0.0065                  0.02343481642326719
0.0035                    -0.0055                  0.026755325536406062
0.0035                    -0.0045                  0.02880023201331321
0.0035                    -0.0035                  0.030030853843426606
0.0035                    -0.0025                  0.030851800254096933
0.0035                    -0.0015                  0.031590990248337975
0.0035                    -5.0E-4                  0.032441322706965196
0.0035                    5.0E-4                   0.03332998926079428
0.0035                    0.0015                   0.03381270719120569
0.0035                    0.0025                   0.033084822929035064
0.0035                    0.0035                   0.030080387160179096
0.0035                    0.0045                   0.02389473577501483
0.0035                    0.0055                   0.01460115356878791
0.0035                    0.0065                   0.005232592653372037
0.0035                    0.0075                   0.004699965353147905
0.0035                    0.0085                   0.007830818341370949
0.0035                    0.0095                   0.008142651473903242
0.0035                    0.0105                   0.006951891682344319
0.0035                    0.0115                   0.005550692030896021
0.0035                    0.0125                   0.006302056613043642
0.0035                    0.0135                   0.03935704779121784
0.0035                    0.0145                   0.07392859851641274
0.0035                    0.0155                   0.07928350105968279
0.0035                    0.0165                   0.050839168257166625
0.0035                    0.0175                   0.014694549335057464
0.0035                    0.0185                   0.0011559801440636677
0.0035                    0.0195                   0.0022552946405051265
0.0035                    0.0205                   6.650342345557763E-4
0.0035                    0.0215                   1.700599487754483E-4
0.0035                    0.0225                   5.1309595200646236E-5
0.0035                    0.0235                   1.8365834660969115E-5
0.0035                    0.0245                   8.361665718152094E-6
0.0035                    0.0255                   4.7556699349634335E-6
0.0035                    0.0265                   3.3678711524995935E-6
0.0035                    0.0275                   2.8103110742612967E-6
0.0035                    0.0285                   2.5367187444459315E-6
0.0035                    0.0295                   2.2682597203328784E-6
0.0035                    0.0305                   1.9322121417753115E-6
0.0035                    0.0315                   9.47392625560764E-7
0.0045                    -0.0315                  6.682961393433618E-6
0.0045                    -0.0305                  1.1687564131612902E-5
0.0045                    -0.0295                  1.1042027590589832E-5
0.0045                    -0.0285                  1.1971260504967517E-5
0.0045                    -0.0275                  1.2425035563253496E-5
0.0045                    -0.0265                  1.2899460780640473E-5
0.0045                    -0.0255                  1.3671645230082488E-5
0.0045                    -0.0245                  1.5266117424888077E-5
0.0045                    -0.0235                  1.831153706348804E-5
0.0045                    -0.0225                  2.3848481018974204E-5
0.0045                    -0.0215                  3.333315537338705E-5
0.0045                    -0.0205                  4.829711242829154E-5
0.0045                    -0.0195                  7.116606015399332E-5
0.0045                    -0.0185                  1.1046939445605606E-4
0.0045                    -0.0175                  1.89554995877883E-4
0.0045                    -0.0165                  3.629852908894659E-4
0.0045                    -0.0155                  6.049591598890933E-4
0.0045                    -0.0145                  9.565770426135325E-4
0.0045                    -0.0135                  0.0014502857491384166
0.0045                    -0.0125                  0.0021574013391778292
0.0045                    -0.0115                  0.003659229979069505
0.0045                    -0.0105                  0.007040908694118121
0.0045                    -0.0095                  0.01254943269326045
0.0045                    -0.0085                  0.018667784195605778
0.0045                    -0.0075                  0.023567240279421146
0.0045                    -0.0065                  0.0265654413678156
0.0045                    -0.0055                  0.027973070801757576
0.0045                    -0.0045                  0.028255504763041395
0.0045                    -0.0035                  0.027836787667349084
0.0045                    -0.0025                  0.027316375645010146
0.0045                    -0.0015                  0.02741155325711235
0.0045                    -5.0E-4                  0.02860305297498815
0.0045                    5.0E-4                   0.03089163098745958
0.0045                    0.0015                   0.033776365861267296
0.0045                    0.0025                   0.03634777879531571
0.0045                    0.0035                   0.03744212504576179
0.0045                    0.0045                   0.035818804077019616
0.0045                    0.0055                   0.03051892270756572
0.0045                    0.0065                   0.021578882229742812
0.0045                    0.0075                   0.010819954881963863
0.0045                    0.0085                   0.0031616531525117206
0.0045                    0.0095                   0.005630070761449042
0.0045                    0.0105                   0.00672186349883887
0.0045                    0.0115                   0.004181816089826433
0.0045                    0.0125                   0.01932434308763989
0.0045                    0.0135                   0.053409952373957584
0.0045                    0.0145                   0.07676665481875417
0.0045                    0.0155                   0.0728979463282154
0.0045                    0.0165                   0.040774594010711956
0.0045                    0.0175                   0.008693528403442929
0.0045                    0.0185                   0.0016766568451934357
0.0045                    0.0195                   0.0019979385877590163
0.0045                    0.0205                   5.850717225987577E-4
0.0045                    0.0215                   1.500750694452737E-4
0.0045                    0.0225                   4.44628435313549E-5
0.0045                    0.0235                   1.8117851408338257E-5
0.0045                    0.0245                   8.982028435505598E-6
0.0045                    0.0255                   5.569627715598043E-6
0.0045                    0.0265                   4.207014795021044E-6
0.0045                    0.0275                   3.6083571632889324E-6
0.0045                    0.0285                   3.220273467363028E-6
0.0045                    0.0295                   2.7813842157507865E-6
0.0045                    0.0305                   2.2486981316520297E-6
0.0045                    0.0315                   1.0725926719065183E-6
0.0055                    -0.0315                  7.051994271331604E-6
0.0055                    -0.0305                  1.2058531852804225E-5
0.0055                    -0.0295                  1.1131766406456916E-5
0.0055                    -0.0285                  1.2374389822948653E-5
0.0055                    -0.0275                  1.345842601826234E-5
0.0055                    -0.0265                  1.4912727493914867E-5
0.0055                    -0.0255                  1.7207843188091075E-5
0.0055                    -0.0245                  2.1488517904134524E-5
0.0055                    -0.0235                  2.9286199086774153E-5
0.0055                    -0.0225                  4.302495625157639E-5
0.0055                    -0.0215                  6.954792084055023E-5
0.0055                    -0.0205                  1.1805701701548493E-4
0.0055                    -0.0195                  1.896400182264616E-4
0.0055                    -0.0185                  3.054749762967756E-4
0.0055                    -0.0175                  6.016241281072482E-4
0.0055                    -0.0165                  0.0012374681038633927
0.0055                    -0.0155                  0.0021780944020140464
0.0055                    -0.0145                  0.0033161601333364077
0.0055                    -0.0135                  0.004537246899242107
0.0055                    -0.0125                  0.0058964358109814515
0.0055                    -0.0115                  0.00808718015064311
0.0055                    -0.0105                  0.012027087465223036
0.0055                    -0.0095                  0.017270986236787123
0.0055                    -0.0085                  0.02208127454460957
0.0055                    -0.0075                  0.025138529626935788
0.0055                    -0.0065                  0.026297702376885407
0.0055                    -0.0055                  0.025766801572477387
0.0055                    -0.0045                  0.023692945604157977
0.0055                    -0.0035                  0.02079677059296318
0.0055                    -0.0025                  0.018287198300183556
0.0055                    -0.0015                  0.017174784737746286
0.0055                    -5.0E-4                  0.017960407445899836
0.0055                    5.0E-4                   0.0207615551127921
0.0055                    0.0015                   0.025336392508318522
0.0055                    0.0025                   0.030946755086039165
0.0055                    0.0035                   0.03629270562023287
0.0055                    0.0045                   0.03986283655204163
0.0055                    0.0055                   0.04032492730312794
0.0055                    0.0065                   0.036786170109713565
0.0055                    0.0075                   0.029170920951664542
0.0055                    0.0085                   0.018971438509836267
0.0055                    0.0095                   0.00966206795618118
0.0055                    0.0105                   0.006314305338081959
0.0055                    0.0115                   0.014480006698489797
0.0055                    0.0125                   0.03685867448476445
0.0055                    0.0135                   0.06331282127861491
0.0055                    0.0145                   0.0754495764615433
0.0055                    0.0155                   0.0639377695545995
0.0055                    0.0165                   0.029999866489514377
0.0055                    0.0175                   0.0034868669801138754
0.0055                    0.0185                   0.0018930615706739178
0.0055                    0.0195                   0.0015160068233442234
0.0055                    0.0205                   5.094153010393212E-4
0.0055                    0.0215                   1.5379609168214865E-4
0.0055                    0.0225                   4.7826265708513615E-5
0.0055                    0.0235                   1.9999349173829698E-5
0.0055                    0.0245                   1.0418045997617454E-5
0.0055                    0.0255                   6.81895252112787E-6
0.0055                    0.0265                   5.345706202160819E-6
0.0055                    0.0275                   4.645511434601971E-6
0.0055                    0.0285                   4.118195701185553E-6
0.0055                    0.0295                   3.493765408935403E-6
0.0055                    0.0305                   2.7190479103843942E-6
0.0055                    0.0315                   1.2542906803244834E-6
0.0065                    -0.0315                  7.445221984741759E-6
0.0065                    -0.0305                  1.2591882183817716E-5
0.0065                    -0.0295                  1.1588350752716736E-5
0.0065                    -0.0285                  1.3413057281171516E-5
0.0065                    -0.0275                  1.5665925346211233E-5
0.0065                    -0.0265                  1.9185484032115997E-5
0.0065                    -0.0255                  2.510489467720859E-5
0.0065                    -0.0245                  3.5999203259608606E-5
0.0065                    -0.0235                  5.7580213731406516E-5
0.0065                    -0.0225                  9.771200567590724E-5
0.0065                    -0.0215                  1.692943370124191E-4
0.0065                    -0.0205                  3.49921415134287E-4
0.0065                    -0.0195                  6.595899000076058E-4
0.0065                    -0.0185                  0.0010928002548295501
0.0065                    -0.0175                  0.002107932903533248
0.0065                    -0.0165                  0.004119723906340088
0.0065                    -0.0155                  0.006676064532522864
0.0065                    -0.0145                  0.00895711371362443
0.0065                    -0.0135                  0.01053368419120923
0.0065                    -0.0125                  0.0115463912744993
0.0065                    -0.0115                  0.01271310159109262
0.0065                    -0.0105                  0.01514668265823229
0.0065                    -0.0095                  0.01884129632366455
0.0065                    -0.0085                  0.022249924241659707
0.0065                    -0.0075                  0.024075900256691398
0.0065                    -0.0065                  0.023821944266081082
0.0065                    -0.0055                  0.021198764167303808