% Model:              Benchmark260518.mph
% Version:            COMSOL 6.2.0.339
% Date:               May 19 2026, 00:01
% Dimension:          2
% Nodes:              4096
% Expressions:        1
% Description:        速度大小
% Length unit:        m
% x                       y                        spf.U (m/s)
% mirrored_by_python_y_to_minus_y, coord_match_decimals=12
0.0005 -0.0315 5.81408289787e-06
0.0005 -0.0305 1.94237620529e-05
0.0005 -0.0295 5.80221862484e-05
0.0005 -0.0285 0.000126432108544
0.0005 -0.0275 0.000581427606078
0.0005 -0.0265 0.00240903331775
0.0005 -0.0255 0.00646399858298
0.0005 -0.0245 0.012515544693
0.0005 -0.0235 0.0199258645398
0.0005 -0.0225 0.0267226058081
0.0005 -0.0215 0.0311255450296
0.0005 -0.0205 0.0215501256527
0.0005 -0.0195 0.00616939785495
0.0005 -0.0185 0.00095695233179
0.0005 -0.0175 0.00140940020254
0.0005 -0.0165 0.00171698768671
0.0005 -0.0155 0.00181291189996
0.0005 -0.0145 0.00173485152931
0.0005 -0.0135 0.00148208802812
0.0005 -0.0125 0.00106634550428
0.0005 -0.0115 0.000570995109889
0.0005 -0.0105 0.000534994043386
0.0005 -0.0095 0.00115199510872
0.0005 -0.0085 0.00185635759448
0.0005 -0.0075 0.00252702298657
0.0005 -0.0065 0.00312121184779
0.0005 -0.0055 0.00361785000472
0.0005 -0.0045 0.00401125570027
0.0005 -0.0035 0.00431246483937
0.0005 -0.0025 0.00454579175462
0.0005 -0.0015 0.00473763383419
0.0005 -0.0005 0.00490772591805
0.0005 0.0005 0.00506264218883
0.0005 0.0015 0.00519037551555
0.0005 0.0025 0.00525921329507
0.0005 0.0035 0.00522229378321
0.0005 0.0045 0.00502859787757
0.0005 0.0055 0.00463840422777
0.0005 0.0065 0.00403921234867
0.0005 0.0075 0.00326379714441
0.0005 0.0085 0.00239621816374
0.0005 0.0095 0.00156136671268
0.0005 0.0105 0.000894770557386
0.0005 0.0115 0.000485731180736
0.0005 0.0125 0.000330280477136
0.0005 0.0135 0.000290035665971
0.0005 0.0145 0.000227242797802
0.0005 0.0155 0.000122142881797
0.0005 0.0165 4.65484098887e-05
0.0005 0.0175 2.15465148047e-05
0.0005 0.0185 1.31320620067e-05
0.0005 0.0195 1.00241108923e-05
0.0005 0.0205 8.45889341484e-06
0.0005 0.0215 7.72915315259e-06
0.0005 0.0225 7.25207490523e-06
0.0005 0.0235 6.84782396795e-06
0.0005 0.0245 6.46106679923e-06
0.0005 0.0255 6.0458481003e-06
0.0005 0.0265 5.64122675286e-06
0.0005 0.0275 5.23855503572e-06
0.0005 0.0285 4.85684066039e-06
0.0005 0.0295 4.29512050127e-06
0.0005 0.0305 3.84515419243e-06
0.0005 0.0315 1.93459035832e-06
0.0015 -0.0315 1.26295573105e-05
0.0015 -0.0305 4.21322418e-05
0.0015 -0.0295 0.000115646398172
0.0015 -0.0285 0.000227375357458
0.0015 -0.0275 0.000456635336394
0.0015 -0.0265 0.00159274991673
0.0015 -0.0255 0.00478207138566
0.0015 -0.0245 0.0102329215141
0.0015 -0.0235 0.0173655607035
0.0015 -0.0225 0.0247243438191
0.0015 -0.0215 0.0302919047709
0.0015 -0.0205 0.0284687590551
0.0015 -0.0195 0.0176352001733
0.0015 -0.0185 0.00702157754405
0.0015 -0.0175 0.001995540198
0.0015 -0.0165 0.000446575493789
0.0015 -0.0155 0.000414548625333
0.0015 -0.0145 0.000489756793582
0.0015 -0.0135 0.00126455019391
0.0015 -0.0125 0.00247766868427
0.0015 -0.0115 0.00392025164459
0.0015 -0.0105 0.00544832503396
0.0015 -0.0095 0.00693586580524
0.0015 -0.0085 0.00830210746952
0.0015 -0.0075 0.0095039855315
0.0015 -0.0065 0.0105154946404
0.0015 -0.0055 0.011328190065
0.0015 -0.0045 0.0119514118896
0.0015 -0.0035 0.0124133504862
0.0015 -0.0025 0.0127596283609
0.0015 -0.0015 0.0130418148374
0.0015 -0.0005 0.0133035774286
0.0015 0.0005 0.0135635870756
0.0015 0.0015 0.013801370829
0.0015 0.0025 0.0139558919364
0.0015 0.0035 0.0139357100223
0.0015 0.0045 0.0136323434371
0.0015 0.0055 0.0129388666885
0.0015 0.0065 0.0117830182477
0.0015 0.0075 0.0101589546235
0.0015 0.0085 0.00815721938825
0.0015 0.0095 0.00597923251094
0.0015 0.0105 0.00390006280497
0.0015 0.0115 0.00220944176918
0.0015 0.0125 0.00114212009963
0.0015 0.0135 0.000649073708509
0.0015 0.0145 0.000406010334203
0.0015 0.0155 0.000214820189749
0.0015 0.0165 8.98099240576e-05
0.0015 0.0175 4.2494372677e-05
0.0015 0.0185 2.38346368705e-05
0.0015 0.0195 1.66829007736e-05
0.0015 0.0205 1.3624799739e-05
0.0015 0.0215 1.22711471333e-05
0.0015 0.0225 1.14808691025e-05
0.0015 0.0235 1.08496392982e-05
0.0015 0.0245 1.02612463032e-05
0.0015 0.0255 9.67891680841e-06
0.0015 0.0265 9.16237555904e-06
0.0015 0.0275 8.71584307962e-06
0.0015 0.0285 8.3620488464e-06
0.0015 0.0295 7.76260502309e-06
0.0015 0.0305 7.31992759575e-06
0.0015 0.0315 3.74928545322e-06
0.0025 -0.0315 1.47162206821e-05
0.0025 -0.0305 4.92243862199e-05
0.0025 -0.0295 0.000125928062646
0.0025 -0.0285 0.000213378845642
0.0025 -0.0275 0.000344864457795
0.0025 -0.0265 0.00100174571599
0.0025 -0.0255 0.0031962267143
0.0025 -0.0245 0.00761631123979
0.0025 -0.0235 0.0140111865534
0.0025 -0.0225 0.0212888688304
0.0025 -0.0215 0.0276107362828
0.0025 -0.0205 0.0295779732083
0.0025 -0.0195 0.0256440905696
0.0025 -0.0185 0.018699253518
0.0025 -0.0175 0.0128141513775
0.0025 -0.0165 0.00984273085317
0.0025 -0.0155 0.00913066531062
0.0025 -0.0145 0.00971691646992
0.0025 -0.0135 0.010985742054
0.0025 -0.0125 0.012513004527
0.0025 -0.0115 0.0140217833293
0.0025 -0.0105 0.0153577923481
0.0025 -0.0095 0.0164511670018
0.0025 -0.0085 0.0173012390593
0.0025 -0.0075 0.0179330557922
0.0025 -0.0065 0.0183684637071
0.0025 -0.0055 0.0186263540655
0.0025 -0.0045 0.0187360975173
0.0025 -0.0035 0.0187421765427
0.0025 -0.0025 0.0186982435639
0.0025 -0.0015 0.0186593831489
0.0025 -0.0005 0.0186701717082
0.0025 0.0005 0.018749031154
0.0025 0.0015 0.0188765307535
0.0025 0.0025 0.0189936836414
0.0025 0.0035 0.019010596597
0.0025 0.0045 0.0188285082313
0.0025 0.0055 0.0183634841589
0.0025 0.0065 0.0175277083287
0.0025 0.0075 0.0162121515849
0.0025 0.0085 0.0143024325519
0.0025 0.0095 0.0117589739498
0.0025 0.0105 0.00872379645092
0.0025 0.0115 0.00557265210241
0.0025 0.0125 0.00290998253456
0.0025 0.0135 0.00126593877328
0.0025 0.0145 0.000544525097737
0.0025 0.0155 0.000259712172859
0.0025 0.0165 0.000122593763176
0.0025 0.0175 5.37827460434e-05
0.0025 0.0185 2.63687864358e-05
0.0025 0.0195 1.60317454697e-05
0.0025 0.0205 1.20399775567e-05
0.0025 0.0215 1.03712596643e-05
0.0025 0.0225 9.50483468103e-06
0.0025 0.0235 8.87122145052e-06
0.0025 0.0245 8.32721707333e-06
0.0025 0.0255 7.89656313046e-06
0.0025 0.0265 7.62813903827e-06
0.0025 0.0275 7.51517294265e-06
0.0025 0.0285 7.52850492976e-06
0.0025 0.0295 7.30053740848e-06
0.0025 0.0305 7.42940579731e-06
0.0025 0.0315 3.99721758172e-06
0.0035 -0.0315 1.58553154912e-05
0.0035 -0.0305 4.97089684023e-05
0.0035 -0.0295 0.000115732496412
0.0035 -0.0285 0.000203078745377
0.0035 -0.0275 0.00029024827174
0.0035 -0.0265 0.000627295385316
0.0035 -0.0255 0.00192914249512
0.0035 -0.0245 0.00506702710596
0.0035 -0.0235 0.0102275041914
0.0035 -0.0225 0.0166684275946
0.0035 -0.0215 0.0231803654158
0.0035 -0.0205 0.0273875535692
0.0035 -0.0195 0.0279118731204
0.0035 -0.0185 0.0259327186427
0.0035 -0.0175 0.0232755853728
0.0035 -0.0165 0.0214255467615
0.0035 -0.0155 0.0208300916907
0.0035 -0.0145 0.0211417566246
0.0035 -0.0135 0.0218420715378
0.0035 -0.0125 0.022534346419
0.0035 -0.0115 0.0230178002178
0.0035 -0.0105 0.0232467823786
0.0035 -0.0095 0.0232514984864
0.0035 -0.0085 0.0230852131848
0.0035 -0.0075 0.022799461014
0.0035 -0.0065 0.0224371846963
0.0035 -0.0055 0.0220318063323
0.0035 -0.0045 0.021603254629
0.0035 -0.0035 0.0211646088557
0.0035 -0.0025 0.0207341656278
0.0035 -0.0015 0.0203413310021
0.0035 -0.0005 0.0200274262627
0.0035 0.0005 0.0198251516926
0.0035 0.0015 0.0197348801232
0.0035 0.0025 0.0197261606582
0.0035 0.0035 0.0197550869089
0.0035 0.0045 0.0197779000193
0.0035 0.0055 0.019737940153
0.0035 0.0065 0.0195354713261
0.0035 0.0075 0.0190252643856
0.0035 0.0085 0.0180242339699
0.0035 0.0095 0.0162990025575
0.0035 0.0105 0.0136190833517
0.0035 0.0115 0.0100175295529
0.0035 0.0125 0.00608092533616
0.0035 0.0135 0.00288244568814
0.0035 0.0145 0.00112593642567
0.0035 0.0155 0.000457496657949
0.0035 0.0165 0.000199522740868
0.0035 0.0175 8.0325218641e-05
0.0035 0.0185 3.91192686302e-05
0.0035 0.0195 2.33107637025e-05
0.0035 0.0205 1.66725575553e-05
0.0035 0.0215 1.36394308503e-05
0.0035 0.0225 1.18257303808e-05
0.0035 0.0235 1.04222443474e-05
0.0035 0.0245 9.29774705677e-06
0.0035 0.0255 8.49984494719e-06
0.0035 0.0265 8.0488083462e-06
0.0035 0.0275 7.84009572381e-06
0.0035 0.0285 7.75867152636e-06
0.0035 0.0295 7.37856743634e-06
0.0035 0.0305 7.80393037289e-06
0.0035 0.0315 4.40110419995e-06
0.0045 -0.0315 1.59170400814e-05
0.0045 -0.0305 4.33701286936e-05
0.0045 -0.0295 8.93329090883e-05
0.0045 -0.0285 0.000179653844987
0.0045 -0.0275 0.000275207169748
0.0045 -0.0265 0.000463639554814
0.0045 -0.0255 0.00114690287263
0.0045 -0.0245 0.00303162013393
0.0045 -0.0235 0.00660479888138
0.0045 -0.0225 0.0115005742947
0.0045 -0.0215 0.0171468690494
0.0045 -0.0205 0.0222010138101
0.0045 -0.0195 0.0252464036649
0.0045 -0.0185 0.0264733517423
0.0045 -0.0175 0.0267956379771
0.0045 -0.0165 0.0268872229135
0.0045 -0.0155 0.0270121228313
0.0045 -0.0145 0.0270994392247
0.0045 -0.0135 0.0269719355698
0.0045 -0.0125 0.0265290315216
0.0045 -0.0115 0.0257829753156
0.0045 -0.0105 0.0248123950021
0.0045 -0.0095 0.0237188662239
0.0045 -0.0085 0.0226046835762
0.0045 -0.0075 0.0215494782496
0.0045 -0.0065 0.0206031891135
0.0045 -0.0055 0.0197828528444
0.0045 -0.0045 0.0190637819133
0.0045 -0.0035 0.0183961566975
0.0045 -0.0025 0.0177414643373
0.0045 -0.0015 0.0171001134409
0.0045 -0.0005 0.0165165351597
0.0045 0.0005 0.0160462467217
0.0045 0.0015 0.0157175650413
0.0045 0.0025 0.0155416007808
0.0045 0.0035 0.0155500514838
0.0045 0.0045 0.0158017047358
0.0045 0.0055 0.0163286801594
0.0045 0.0065 0.0170750517872
0.0045 0.0075 0.0178469113711
0.0045 0.0085 0.0183077697818
0.0045 0.0095 0.0180871196516
0.0045 0.0105 0.0168250205291
0.0045 0.0115 0.0141340547731
0.0045 0.0125 0.0100217524518
0.0045 0.0135 0.00550959996973
0.0045 0.0145 0.00225531393811
0.0045 0.0155 0.000798195441107
0.0045 0.0165 0.000306633491122
0.0045 0.0175 0.000124702671926
0.0045 0.0185 6.44505117466e-05
0.0045 0.0195 3.88277762984e-05
0.0045 0.0205 2.77932456854e-05
0.0045 0.0215 2.20689863262e-05
0.0045 0.0225 1.79142627311e-05
0.0045 0.0235 1.44121583655e-05
0.0045 0.0245 1.16473122903e-05
0.0045 0.0255 9.77136505436e-06
0.0045 0.0265 8.69644487038e-06
0.0045 0.0275 8.11920741103e-06
0.0045 0.0285 7.78803142134e-06
0.0045 0.0295 7.28000535567e-06
0.0045 0.0305 8.02275665521e-06
0.0045 0.0315 4.69038731239e-06
0.0055 -0.0315 1.5425155894e-05
0.0055 -0.0305 3.73749201819e-05
0.0055 -0.0295 7.19408481341e-05
0.0055 -0.0285 0.000149815025174
0.0055 -0.0275 0.000262847627449
0.0055 -0.0265 0.000461118227078
0.0055 -0.0255 0.000944465531168
0.0055 -0.0245 0.00203199497024
0.0055 -0.0235 0.00400299530691
0.0055 -0.0225 0.00678721604121
0.0055 -0.0215 0.0104455989859
0.0055 -0.0205 0.0146918984874
0.0055 -0.0195 0.0185670776678
0.0055 -0.0185 0.0214693946274
0.0055 -0.0175 0.0233880945627
0.0055 -0.0165 0.0244861290255
0.0055 -0.0155 0.0248611159001
0.0055 -0.0145 0.024561637642
0.0055 -0.0135 0.0236613501677
0.0055 -0.0125 0.0223000764751
0.0055 -0.0115 0.0206653537854
0.0055 -0.0105 0.0189461010769
0.0055 -0.0095 0.0173012500597
0.0055 -0.0085 0.0158465630054
0.0055 -0.0075 0.0146437606262
0.0055 -0.0065 0.0137019475491
0.0055 -0.0055 0.0129760274438
0.0055 -0.0045 0.012371583094
0.0055 -0.0035 0.0117747435593
0.0055 -0.0025 0.0111116031213
0.0055 -0.0015 0.0103939156312
0.0055 -0.0005 0.00970674103374
0.0055 0.0005 0.00914958153083
0.0055 0.0015 0.00876388070642
0.0055 0.0025 0.00854125896759
0.0055 0.0035 0.00852001136035
0.0055 0.0045 0.00882654419478
0.0055 0.0055 0.00963675143471
0.0055 0.0065 0.0110927048107
0.0055 0.0075 0.0131521254613
0.0055 0.0085 0.0154177618405
0.0055 0.0095 0.0171930866262
0.0055 0.0105 0.017836737602
0.0055 0.0115 0.0168568483808
0.0055 0.0125 0.0137345708731
0.0055 0.0135 0.00880317673147
0.0055 0.0145 0.00408393771845
0.0055 0.0155 0.00145003192221
0.0055 0.0165 0.000557457729172
0.0055 0.0175 0.000250880787087
0.0055 0.0185 0.000124823541153
0.0055 0.0195 7.86096859178e-05
0.0055 0.0205 5.96731737776e-05
0.0055 0.0215 4.71669912259e-05
0.0055 0.0225 3.57584473459e-05
0.0055 0.0235 2.56017435335e-05
0.0055 0.0245 1.79073907555e-05
0.0055 0.0255 1.2965756529e-05
0.0055 0.0265 1.02435926698e-05
0.0055 0.0275 8.80155038156e-06
0.0055 0.0285 8.01515147493e-06
0.0055 0.0295 7.32187545426e-06
0.0055 0.0305 8.30121295232e-06
0.0055 0.0315 4.97064789426e-06
0.0065 -0.0315 1.48386057272e-05
0.0065 -0.0305 3.27393040464e-05
0.0065 -0.0295 5.61865999737e-05
0.0065 -0.0285 0.000114190655177
0.0065 -0.0275 0.000246608714042
0.0065 -0.0265 0.00052156178243
0.0065 -0.0255 0.00116040366202
0.0065 -0.0245 0.00232598875731
0.0065 -0.0235 0.00357474075669
0.0065 -0.0225 0.00429457623066
0.0065 -0.0215 0.00506363956262
0.0065 -0.0205 0.00697866547718
0.0065 -0.0195 0.0097747213195
0.0065 -0.0185 0.0125475043487
0.0065 -0.0175 0.0146283478129
0.0065 -0.0165 0.0157500024587
0.0065 -0.0155 0.0159245288098
0.0065 -0.0145 0.0153068082424
0.0065 -0.0135 0.0141140094775
0.0065 -0.0125 0.0125887084847
0.0065 -0.0115 0.0109543576467
0.0065 -0.0105 0.00939056649417
0.0065 -0.0095 0.00803453411323
0.0065 -0.0085 0.00696863843989
0.0065 -0.0075 0.00620775085876
0.0065 -0.0065 0.00571124802384
0.0065 -0.0055 0.00540259597452
0.0065 -0.0045 0.00517207520272
0.0065 -0.0035 0.00489611680332
0.0065 -0.0025 0.00449412775511
0.0065 -0.0015 0.00399287736476
0.0065 -0.0005 0.00354208576342
0.0065 0.0005 0.00326759127152
0.0065 0.0015 0.00313358702899
0.0065 0.0025 0.00306253251396
0.0065 0.0035 0.00308050694891
0.0065 0.0045 0.00329955672841
0.0065 0.0055 0.00388528003145
0.0065 0.0065 0.0050964837116
0.0065 0.0075 0.00727092301532
0.0065 0.0085 0.0105049506143
0.0065 0.0095 0.0141498894012
0.0065 0.0105 0.0169626737336
0.0065 0.0115 0.0179634485982
0.0065 0.0125 0.0164646996712
0.0065 0.0135 0.012131932038
0.0065 0.0145 0.00653429106859
0.0065 0.0155 0.00260153490824
0.0065 0.0165 0.00106488760136
0.0065 0.0175 0.000523117759367
0.0065 0.0185 0.000273658518901
0.0065 0.0195 0.000200044799917
0.0065 0.0205 0.000162159781063
0.0065 0.0215 0.000128089995383
0.0065 0.0225 9.2916777267e-05
0.0065 0.0235 5.91669898836e-05
0.0065 0.0245 3.40505194137e-05
0.0065 0.0255 2.03133338988e-05
0.0065 0.0265 1.36077091822e-05
0.0065 0.0275 1.02342192688e-05
0.0065 0.0285 8.57381069109e-06
0.0065 0.0295 7.52706785211e-06
0.0065 0.0305 8.59373863106e-06
0.0065 0.0315 5.20629146966e-06
0.0075 -0.0315 1.46517806321e-05
0.0075 -0.0305 2.94945940113e-05
0.0075 -0.0295 4.47177022416e-05
0.0075 -0.0285 9.19245068383e-05
0.0075 -0.0275 0.000211963916771
0.0075 -0.0265 0.000536830549509
0.0075 -0.0255 0.00151035057363
0.0075 -0.0245 0.00320940272674
0.0075 -0.0235 0.00439251565814
0.0075 -0.0225 0.00415125009094
0.0075 -0.0215 0.00311445431351
0.0075 -0.0205 0.00254160943505
0.0075 -0.0195 0.0033136836455
0.0075 -0.0185 0.00467116695034
0.0075 -0.0175 0.00577834216851
0.0075 -0.0165 0.00632069694405
0.0075 -0.0155 0.00629600651888
0.0075 -0.0145 0.00585198035517
0.0075 -0.0135 0.00517155901599
0.0075 -0.0125 0.00437956846589
0.0075 -0.0115 0.00353453413158
0.0075 -0.0105 0.00270882626956
0.0075 -0.0095 0.00202424286674
0.0075 -0.0085 0.00156324714026
0.0075 -0.0075 0.00130293125783
0.0075 -0.0065 0.00118102772324
0.0075 -0.0055 0.00118221556791
0.0075 -0.0045 0.00140664775636
0.0075 -0.0035 0.00182547112919
0.0075 -0.0025 0.00197563850769
0.0075 -0.0015 0.00159687879172
0.0075 -0.0005 0.00104715127643
0.0075 0.0005 0.000802788862703
0.0075 0.0015 0.000791048834485
0.0075 0.0025 0.000799246516633
0.0075 0.0035 0.000827699122845
0.0075 0.0045 0.000924097702722
0.0075 0.0055 0.00118626609578
0.0075 0.0065 0.00178595229666
0.0075 0.0075 0.00312449230878
0.0075 0.0085 0.0058589806572
0.0075 0.0095 0.0101104912751
0.0075 0.0105 0.014658621456
0.0075 0.0115 0.017647712184
0.0075 0.0125 0.0179142002133
0.0075 0.0135 0.0148079527192
0.0075 0.0145 0.00921463010533
0.0075 0.0155 0.00432840065708
0.0075 0.0165 0.00210161776652
0.0075 0.0175 0.00132553325319
0.0075 0.0185 0.000921118040346
0.0075 0.0195 0.000741807902597
0.0075 0.0205 0.000608409859488
0.0075 0.0215 0.000467299208327
0.0075 0.0225 0.000316465020106
0.0075 0.0235 0.000170412377489
0.0075 0.0245 7.5846370616e-05
0.0075 0.0255 3.74484238233e-05
0.0075 0.0265 2.04785029468e-05
0.0075 0.0275 1.30643338356e-05
0.0075 0.0285 9.73143574874e-06
0.0075 0.0295 7.98500826379e-06
0.0075 0.0305 8.97810810564e-06
0.0075 0.0315 5.46033661893e-06
0.0085 -0.0315 1.48322091296e-05
0.0085 -0.0305 2.77913711951e-05
0.0085 -0.0295 3.77132561275e-05
0.0085 -0.0285 7.53290253866e-05
0.0085 -0.0275 0.000172309238192
0.0085 -0.0265 0.000536853384964
0.0085 -0.0255 0.00187758924578
0.0085 -0.0245 0.00408921744794
0.0085 -0.0235 0.00481470255187
0.0085 -0.0225 0.00348523675612
0.0085 -0.0215 0.00205058065846
0.0085 -0.0205 0.00126688718179
0.0085 -0.0195 0.00105385493978
0.0085 -0.0185 0.00130318482965
0.0085 -0.0175 0.00161668871986
0.0085 -0.0165 0.00175753978021
0.0085 -0.0155 0.00173830243766
0.0085 -0.0145 0.00163650135646
0.0085 -0.0135 0.00153116813201
0.0085 -0.0125 0.00150583508913
0.0085 -0.0115 0.00151361322352
0.0085 -0.0105 0.00133542083905
0.0085 -0.0095 0.000966429049674
0.0085 -0.0085 0.00063908673599
0.0085 -0.0075 0.000455680136057
0.0085 -0.0065 0.000444022950766
0.0085 -0.0055 0.000726787082416
0.0085 -0.0045 0.00144153672321
0.0085 -0.0035 0.00218538910757
0.0085 -0.0025 0.00215886503367
0.0085 -0.0015 0.00139521138135
0.0085 -0.0005 0.000666924473151
0.0085 0.0005 0.000347762402838
0.0085 0.0015 0.000254448159042
0.0085 0.0025 0.000219875668311
0.0085 0.0035 0.000225371955507
0.0085 0.0045 0.000259840485014
0.0085 0.0055 0.000378110458341
0.0085 0.0065 0.00064602588185
0.0085 0.0075 0.00125561350525
0.0085 0.0085 0.00291402694564
0.0085 0.0095 0.00653301703434
0.0085 0.0105 0.0117007345833
0.0085 0.0115 0.016255179291
0.0085 0.0125 0.0181202069118
0.0085 0.0135 0.0163295664836
0.0085 0.0145 0.0114235815697
0.0085 0.0155 0.00635950018022
0.0085 0.0165 0.00410831652593
0.0085 0.0175 0.00368510775104
0.0085 0.0185 0.0033802796194
0.0085 0.0195 0.00287400385182
0.0085 0.0205 0.0022197199155
0.0085 0.0215 0.00155431925558
0.0085 0.0225 0.000964778988403
0.0085 0.0235 0.000492440600264
0.0085 0.0245 0.000197830566944
0.0085 0.0255 7.41143179473e-05
0.0085 0.0265 3.36827350551e-05
0.0085 0.0275 1.84856263894e-05
0.0085 0.0285 1.19459683752e-05
0.0085 0.0295 8.87346235253e-06
0.0085 0.0305 9.53199808867e-06
0.0085 0.0315 5.76270149485e-06
0.0095 -0.0315 1.54021252561e-05
0.0095 -0.0305 2.74163485631e-05
0.0095 -0.0295 3.39619724655e-05
0.0095 -0.0285 6.77293174079e-05
0.0095 -0.0275 0.000168194335713
0.0095 -0.0265 0.000589696290248
0.0095 -0.0255 0.00221191871568
0.0095 -0.0245 0.0047136961756
0.0095 -0.0235 0.00477241573299
0.0095 -0.0225 0.00252092155931
0.0095 -0.0215 0.00110362441443
0.0095 -0.0205 0.000655853331148
0.0095 -0.0195 0.000500117081445
0.0095 -0.0185 0.000540104566053
0.0095 -0.0175 0.000633900440717
0.0095 -0.0165 0.000647295553244
0.0095 -0.0155 0.000638525410985
0.0095 -0.0145 0.00068006656971
0.0095 -0.0135 0.0008156830188
0.0095 -0.0125 0.00128025938436
0.0095 -0.0115 0.00178645400287
0.0095 -0.0105 0.00160436052709
0.0095 -0.0095 0.00103432434123
0.0095 -0.0085 0.000649941693039
0.0095 -0.0075 0.000457648233169
0.0095 -0.0065 0.000430254777238
0.0095 -0.0055 0.00072190957033
0.0095 -0.0045 0.00157088374408
0.0095 -0.0035 0.00236428020985
0.0095 -0.0025 0.00203399586507
0.0095 -0.0015 0.00104587721723
0.0095 -0.0005 0.000426679975381
0.0095 0.0005 0.000208194800659
0.0095 0.0015 0.00012380580973
0.0095 0.0025 8.13025577744e-05
0.0095 0.0035 7.27530114043e-05
0.0095 0.0045 8.28971106393e-05
0.0095 0.0055 0.000132819536471
0.0095 0.0065 0.000272053474098
0.0095 0.0075 0.000592281979397
0.0095 0.0085 0.00150045309451
0.0095 0.0095 0.00410422186092
0.0095 0.0105 0.00895256335992
0.0095 0.0115 0.0143322711112
0.0095 0.0125 0.0173706742368
0.0095 0.0135 0.016602222834
0.0095 0.0145 0.0124273311448
0.0095 0.0155 0.00768387106908
0.0095 0.0165 0.00618692241817
0.0095 0.0175 0.00672862876592
0.0095 0.0185 0.00707868185181
0.0095 0.0195 0.00675113355941
0.0095 0.0205 0.00572489748133
0.0095 0.0215 0.0042065881156
0.0095 0.0225 0.00257075838164
0.0095 0.0235 0.00123791946689
0.0095 0.0245 0.000455071321561
0.0095 0.0255 0.000147453632919
0.0095 0.0265 6.1063629552e-05
0.0095 0.0275 2.9112674277e-05
0.0095 0.0285 1.62866320145e-05
0.0095 0.0295 1.06152994627e-05
0.0095 0.0305 1.04497484644e-05
0.0095 0.0315 6.18583767061e-06
0.0105 -0.0315 1.63619096647e-05
0.0105 -0.0305 2.81051684616e-05
0.0105 -0.0295 3.29237035705e-05
0.0105 -0.0285 6.7867456775e-05
0.0105 -0.0275 0.000180193293802
0.0105 -0.0265 0.000661723087244
0.0105 -0.0255 0.00245964598435
0.0105 -0.0245 0.00504623566111
0.0105 -0.0235 0.0047311572121
0.0105 -0.0225 0.00215256638038
0.0105 -0.0215 0.00075018102418
0.0105 -0.0205 0.000337755722205
0.0105 -0.0195 0.000231557080477
0.0105 -0.0185 0.00025331671237
0.0105 -0.0175 0.000305324373423
0.0105 -0.0165 0.000309494989955
0.0105 -0.0155 0.000311905781002
0.0105 -0.0145 0.000384423761623
0.0105 -0.0135 0.000596479297285
0.0105 -0.0125 0.00132132141383
0.0105 -0.0115 0.0018761218448
0.0105 -0.0105 0.00138706912153
0.0105 -0.0095 0.000731237052348
0.0105 -0.0085 0.000452436091183
0.0105 -0.0075 0.000324230302989
0.0105 -0.0065 0.000306969979193
0.0105 -0.0055 0.000575394822127
0.0105 -0.0045 0.00153174095667
0.0105 -0.0035 0.00250748885396
0.0105 -0.0025 0.00205233409801
0.0105 -0.0015 0.000879535591874
0.0105 -0.0005 0.000298884568944
0.0105 0.0005 0.000126225533777
0.0105 0.0015 6.95228017271e-05
0.0105 0.0025 4.52773028911e-05
0.0105 0.0035 3.72654260353e-05
0.0105 0.0045 4.15390056989e-05
0.0105 0.0055 6.26112228054e-05
0.0105 0.0065 0.000137018127362
0.0105 0.0075 0.000336385020992
0.0105 0.0085 0.000893165031908
0.0105 0.0095 0.00272900409433
0.0105 0.0105 0.00692902515729
0.0105 0.0115 0.0124837231735
0.0105 0.0125 0.0161554770515
0.0105 0.0135 0.0159590163993
0.0105 0.0145 0.0120700282571
0.0105 0.0155 0.00730917490192
0.0105 0.0165 0.00605351011453
0.0105 0.0175 0.00645881432078
0.0105 0.0185 0.00697690696825
0.0105 0.0195 0.0077025602096
0.0105 0.0205 0.00796470205287
0.0105 0.0215 0.00721185715325
0.0105 0.0225 0.00529857268555
0.0105 0.0235 0.00284942045881
0.0105 0.0245 0.00107756381643
0.0105 0.0255 0.000348377879998
0.0105 0.0265 0.000123393450534
0.0105 0.0275 5.18924960385e-05
0.0105 0.0285 2.50395223892e-05
0.0105 0.0295 1.41558270006e-05
0.0105 0.0305 1.21753741214e-05
0.0105 0.0315 6.91214476252e-06
0.0115 -0.0315 1.7572622717e-05
0.0115 -0.0305 2.96264110437e-05
0.0115 -0.0295 3.40325302918e-05
0.0115 -0.0285 7.2501220689e-05
0.0115 -0.0275 0.000198487438245
0.0115 -0.0265 0.00073894745246
0.0115 -0.0255 0.0026429582453
0.0115 -0.0245 0.00519863248537
0.0115 -0.0235 0.00479312689599
0.0115 -0.0225 0.0022010656425
0.0115 -0.0215 0.000719440101875
0.0115 -0.0205 0.000240502437538
0.0115 -0.0195 0.000135752265079
0.0115 -0.0185 0.000126146223975
0.0115 -0.0175 0.000144038120904
0.0115 -0.0165 0.000162771706288
0.0115 -0.0155 0.000200810796716
0.0115 -0.0145 0.000325535485038
0.0115 -0.0135 0.000738558989429
0.0115 -0.0125 0.00172016363448
0.0115 -0.0115 0.00203777750588
0.0115 -0.0105 0.00112689488157
0.0115 -0.0095 0.000431484076659
0.0115 -0.0085 0.000246492214455
0.0115 -0.0075 0.000182138121147
0.0115 -0.0065 0.000193647810863
0.0115 -0.0055 0.000430946253807
0.0115 -0.0045 0.00136917633729
0.0115 -0.0035 0.00253476491674
0.0115 -0.0025 0.00221852078703
0.0115 -0.0015 0.000954596544061
0.0115 -0.0005 0.000300211087495
0.0115 0.0005 0.000108452871179
0.0115 0.0015 5.12674435961e-05
0.0115 0.0025 3.16959106431e-05
0.0115 0.0035 2.56839962824e-05
0.0115 0.0045 2.85200689119e-05
0.0115 0.0055 4.32891113394e-05
0.0115 0.0065 8.81902076247e-05
0.0115 0.0075 0.000221611291723
0.0115 0.0085 0.000636500440794
0.0115 0.0095 0.00208112904766
0.0115 0.0105 0.00578745668319
0.0115 0.0115 0.0112196974727
0.0115 0.0125 0.0150515594175
0.0115 0.0135 0.0149902114247
0.0115 0.0145 0.0109620095386
0.0115 0.0155 0.00569504223557
0.0115 0.0165 0.00390091234031
0.0115 0.0175 0.00340196438607
0.0115 0.0185 0.0034280487694
0.0115 0.0195 0.00458038159484
0.0115 0.0205 0.00626767775587
0.0115 0.0215 0.00776682960522
0.0115 0.0225 0.00770250631833
0.0115 0.0235 0.00539850398347
0.0115 0.0245 0.00252921858741
0.0115 0.0255 0.000888381406233
0.0115 0.0265 0.000296530332256
0.0115 0.0275 0.000103552148623
0.0115 0.0285 4.39661677697e-05
0.0115 0.0295 2.14376130102e-05
0.0115 0.0305 1.56207816425e-05
0.0115 0.0315 8.28959501969e-06
0.0125 -0.0315 1.89980224661e-05
0.0125 -0.0305 3.20820546462e-05
0.0125 -0.0295 3.77272266033e-05
0.0125 -0.0285 8.27507336175e-05
0.0125 -0.0275 0.000226396387042
0.0125 -0.0265 0.000838247996014
0.0125 -0.0255 0.00287789729242
0.0125 -0.0245 0.00532795459933
0.0125 -0.0235 0.0047112295869
0.0125 -0.0225 0.00209135608527
0.0125 -0.0215 0.000637953204287
0.0125 -0.0205 0.000198320803421
0.0125 -0.0195 9.76540275262e-05
0.0125 -0.0185 7.55905482566e-05
0.0125 -0.0175 8.16272185692e-05
0.0125 -0.0165 0.000107910856825
0.0125 -0.0155 0.000179460281734
0.0125 -0.0145 0.000372296669775
0.0125 -0.0135 0.00104795686588
0.0125 -0.0125 0.00227951122244
0.0125 -0.0115 0.0023291870288
0.0125 -0.0105 0.00107954120467
0.0125 -0.0095 0.000336955807327
0.0125 -0.0085 0.000165800710229
0.0125 -0.0075 0.000127343683767
0.0125 -0.0065 0.00016420413619
0.0125 -0.0055 0.000381793560682
0.0125 -0.0045 0.00117976734215
0.0125 -0.0035 0.0024148499815
0.0125 -0.0025 0.00242652986346
0.0125 -0.0015 0.00120705281584
0.0125 -0.0005 0.000379729765403
0.0125 0.0005 0.000117519557331
0.0125 0.0015 5.01238924862e-05
0.0125 0.0025 2.89243521296e-05
0.0125 0.0035 2.35223707933e-05
0.0125 0.0045 2.67584291064e-05
0.0125 0.0055 4.04335118819e-05
0.0125 0.0065 7.41546043581e-05
0.0125 0.0075 0.000190522915963
0.0125 0.0085 0.000583018590112
0.0125 0.0095 0.00195199963384
0.0125 0.0105 0.00551527005297
0.0125 0.0115 0.0108018355882
0.0125 0.0125 0.0144539467863
0.0125 0.0135 0.014160865802
0.0125 0.0145 0.00979490847539
0.0125 0.0155 0.00423638770531
0.0125 0.0165 0.00215954239546
0.0125 0.0175 0.00156268297833
0.0125 0.0185 0.00131902297101
0.0125 0.0195 0.00191988710878
0.0125 0.0205 0.00335853711653
0.0125 0.0215 0.00580928623569
0.0125 0.0225 0.00805828481557
0.0125 0.0235 0.00774429354708
0.0125 0.0245 0.00486517351176
0.0125 0.0255 0.00208323387593
0.0125 0.0265 0.000729935764832
0.0125 0.0275 0.000244694720622
0.0125 0.0285 8.64169408716e-05
0.0125 0.0295 3.71374978288e-05
0.0125 0.0305 2.23113903091e-05
0.0125 0.0315 1.07737314133e-05
0.0135 -0.0315 2.10075340033e-05
0.0135 -0.0305 3.62884782199e-05
0.0135 -0.0295 4.60491778044e-05
0.0135 -0.0285 0.000106683599543
0.0135 -0.0275 0.000288939612751
0.0135 -0.0265 0.00104363810349
0.0135 -0.0255 0.00333180877889
0.0135 -0.0245 0.00549565911738
0.0135 -0.0235 0.00436271806747
0.0135 -0.0225 0.00178231274551
0.0135 -0.0215 0.000531463106103
0.0135 -0.0205 0.000169080826627
0.0135 -0.0195 8.04449802898e-05
0.0135 -0.0185 5.73829658668e-05
0.0135 -0.0175 6.18749166433e-05
0.0135 -0.0165 9.55856911957e-05
0.0135 -0.0155 0.000201674565723
0.0135 -0.0145 0.000503514468438
0.0135 -0.0135 0.00141424030147
0.0135 -0.0125 0.0027089496438
0.0135 -0.0115 0.00244140483962
0.0135 -0.0105 0.00100890511686
0.0135 -0.0095 0.000302188169634
0.0135 -0.0085 0.000137352684038
0.0135 -0.0075 0.00010720675102
0.0135 -0.0065 0.000156123724821
0.0135 -0.0055 0.00034433599585
0.0135 -0.0045 0.0009391863192
0.0135 -0.0035 0.00214824425451
0.0135 -0.0025 0.00255596540708
0.0135 -0.0015 0.00147780469893
0.0135 -0.0005 0.000467536985213
0.0135 0.0005 0.00013814605396
0.0135 0.0015 5.89480332873e-05
0.0135 0.0025 3.45101868036e-05
0.0135 0.0035 2.90970659504e-05
0.0135 0.0045 3.41397335293e-05
0.0135 0.0055 5.41459963317e-05
0.0135 0.0065 0.000111694280231
0.0135 0.0075 0.000270966614902
0.0135 0.0085 0.000734168830397
0.0135 0.0095 0.00228973973864
0.0135 0.0105 0.00604382303663
0.0135 0.0115 0.0111691972117
0.0135 0.0125 0.0143269644584
0.0135 0.0135 0.0134337197168
0.0135 0.0145 0.00864882120241
0.0135 0.0155 0.00331824136032
0.0135 0.0165 0.00145399084252
0.0135 0.0175 0.00105044587167
0.0135 0.0185 0.000718431365428
0.0135 0.0195 0.000879265164484
0.0135 0.0205 0.00163636113472
0.0135 0.0215 0.00344742151035
0.0135 0.0225 0.00644305334582
0.0135 0.0235 0.00847585292196
0.0135 0.0245 0.00725722643547
0.0135 0.0255 0.00408146351592
0.0135 0.0265 0.00165076235937
0.0135 0.0275 0.000582772656142
0.0135 0.0285 0.000195320245354
0.0135 0.0295 6.88046589877e-05
0.0135 0.0305 3.6715256168e-05
0.0135 0.0315 1.66928640133e-05
0.0145 -0.0315 2.3540461191e-05
0.0145 -0.0305 4.25972667641e-05
0.0145 -0.0295 6.3021375436e-05
0.0145 -0.0285 0.000160208314651
0.0145 -0.0275 0.000475670659481
0.0145 -0.0265 0.00159463340601
0.0145 -0.0255 0.00411221071554
0.0145 -0.0245 0.00554790790671
0.0145 -0.0235 0.00368384975909
0.0145 -0.0225 0.00131158106081
0.0145 -0.0215 0.000399501056255
0.0145 -0.0205 0.000143089021516
0.0145 -0.0195 6.99568991283e-05
0.0145 -0.0185 5.02741364387e-05
0.0145 -0.0175 5.61895734498e-05
0.0145 -0.0165 9.54645374702e-05
0.0145 -0.0155 0.00022290953642
0.0145 -0.0145 0.000648047069298
0.0145 -0.0135 0.00181167736253
0.0145 -0.0125 0.00302936296446
0.0145 -0.0115 0.00241531301013
0.0145 -0.0105 0.000917886769296
0.0145 -0.0095 0.000277806622525
0.0145 -0.0085 0.000123968680316
0.0145 -0.0075 9.46265519817e-05
0.0145 -0.0065 0.000136637850916
0.0145 -0.0055 0.000267226720363
0.0145 -0.0045 0.000657348850956
0.0145 -0.0035 0.00175199423408
0.0145 -0.0025 0.00256975421291
0.0145 -0.0015 0.00178614349571
0.0145 -0.0005 0.000611979134685
0.0145 0.0005 0.000180523825328
0.0145 0.0015 8.2270940245e-05
0.0145 0.0025 5.19391346815e-05
0.0145 0.0035 4.75724645379e-05
0.0145 0.0045 5.93535982048e-05
0.0145 0.0055 9.6733451786e-05
0.0145 0.0065 0.00021777175793