% Model:              Benchmark260518.mph
% Version:            COMSOL 6.2.0.339
% Date:               May 21 2026, 04:04
% Dimension:          2
% Nodes:              4096
% Expressions:        1
% Description:        速度大小
% Length unit:        m
% x                       y                        spf.U (m/s)
5.0E-4                    -0.0315                  3.627252799544758E-6
5.0E-4                    -0.0305                  7.126747535826165E-6
5.0E-4                    -0.0295                  7.844462587868501E-6
5.0E-4                    -0.0285                  8.694063749165243E-6
5.0E-4                    -0.0275                  9.098722873964777E-6
5.0E-4                    -0.0265                  9.487478518838392E-6
5.0E-4                    -0.0255                  9.860604951489624E-6
5.0E-4                    -0.0245                  1.0360517976773522E-5
5.0E-4                    -0.0235                  1.1216383131335232E-5
5.0E-4                    -0.0225                  1.289543567680687E-5
5.0E-4                    -0.0215                  1.623514407532244E-5
5.0E-4                    -0.0205                  2.6633571705786862E-5
5.0E-4                    -0.0195                  6.0007208225496236E-5
5.0E-4                    -0.0185                  1.608427121577777E-4
5.0E-4                    -0.0175                  3.0257249857876505E-4
5.0E-4                    -0.0165                  3.7501019771540406E-4
5.0E-4                    -0.0155                  3.7284040379325723E-4
5.0E-4                    -0.0145                  4.950952708751691E-4
5.0E-4                    -0.0135                  0.0010300186169471934
5.0E-4                    -0.0125                  0.001960869331895602
5.0E-4                    -0.0115                  0.003090277725656665
5.0E-4                    -0.0105                  0.004154402697840134
5.0E-4                    -0.0095                  0.004895691468493134
5.0E-4                    -0.0085                  0.0051455330860787594
5.0E-4                    -0.0075                  0.004873434877424472
5.0E-4                    -0.0065                  0.004162491139400135
5.0E-4                    -0.0055                  0.003197796385075534
5.0E-4                    -0.0045                  0.002205965613987325
5.0E-4                    -0.0035                  0.0014072160958338606
5.0E-4                    -0.0025                  0.0011892895139078
5.0E-4                    -0.0015                  0.0027247855862071943
5.0E-4                    -5.0E-4                  0.008237955773440388
5.0E-4                    5.0E-4                   0.023052320137113985
5.0E-4                    0.0015                   0.03269520123995713
5.0E-4                    0.0025                   0.02915811324810045
5.0E-4                    0.0035                   0.023470136290752758
5.0E-4                    0.0045                   0.016934699872122903
5.0E-4                    0.0055                   0.011852205524206304
5.0E-4                    0.0065                   0.00831847540576115
5.0E-4                    0.0075                   0.0067237285671328945
5.0E-4                    0.0085                   0.0066409873947369585
5.0E-4                    0.0095                   0.007181970266542372
5.0E-4                    0.0105                   0.007829141885112932
5.0E-4                    0.0115                   0.008484678508370255
5.0E-4                    0.0125                   0.00926753850218874
5.0E-4                    0.0135                   0.010360259898886372
5.0E-4                    0.0145                   0.012088384907491187
5.0E-4                    0.0155                   0.009655753772486687
5.0E-4                    0.0165                   0.004489691514681073
5.0E-4                    0.0175                   0.0018023596178046856
5.0E-4                    0.0185                   5.665363894228098E-4
5.0E-4                    0.0195                   3.2557645383285964E-4
5.0E-4                    0.0205                   2.2210243075550034E-4
5.0E-4                    0.0215                   1.0389468900076563E-4
5.0E-4                    0.0225                   3.565428810393006E-5
5.0E-4                    0.0235                   1.536328980443525E-5
5.0E-4                    0.0245                   8.206424198200184E-6
5.0E-4                    0.0255                   5.605093714930448E-6
5.0E-4                    0.0265                   4.554805251567258E-6
5.0E-4                    0.0275                   3.86865346987732E-6
5.0E-4                    0.0285                   3.4397535428159035E-6
5.0E-4                    0.0295                   2.9846651364774015E-6
5.0E-4                    0.0305                   2.597360072491878E-6
5.0E-4                    0.0315                   1.2778058055669254E-6
0.0015                    -0.0315                  6.983778033468448E-6
0.0015                    -0.0305                  1.3506335637939837E-5
0.0015                    -0.0295                  1.4119352764532029E-5
0.0015                    -0.0285                  1.4895569060926343E-5
0.0015                    -0.0275                  1.5066955528517443E-5
0.0015                    -0.0265                  1.5287869129203057E-5
0.0015                    -0.0255                  1.5604659697556604E-5
0.0015                    -0.0245                  1.6258025690704944E-5
0.0015                    -0.0235                  1.7701652375658643E-5
0.0015                    -0.0225                  2.0952828314214113E-5
0.0015                    -0.0215                  2.8446981296914005E-5
0.0015                    -0.0205                  4.886161706072126E-5
0.0015                    -0.0195                  1.0692277750631073E-4
0.0015                    -0.0185                  2.739081490699217E-4
0.0015                    -0.0175                  5.202721309768455E-4
0.0015                    -0.0165                  7.672914586461078E-4
0.0015                    -0.0155                  0.0012536190338196173
0.0015                    -0.0145                  0.0026439802735961013
0.0015                    -0.0135                  0.00511019476948853
0.0015                    -0.0125                  0.008195719176060753
0.0015                    -0.0115                  0.011330231846377175
0.0015                    -0.0105                  0.0139698188325315
0.0015                    -0.0095                  0.01576668533817078
0.0015                    -0.0085                  0.016573353849789845
0.0015                    -0.0075                  0.016402829695855534
0.0015                    -0.0065                  0.015379883846077861
0.0015                    -0.0055                  0.013746402091551188
0.0015                    -0.0045                  0.011899735818011103
0.0015                    -0.0035                  0.010455721126872326
0.0015                    -0.0025                  0.010499932988586164
0.0015                    -0.0015                  0.013770099192737749
0.0015                    -5.0E-4                  0.02186915834137109
0.0015                    5.0E-4                   0.03010283765732084
0.0015                    0.0015                   0.03099998341609535
0.0015                    0.0025                   0.026220448801785704
0.0015                    0.0035                   0.019824455990664434
0.0015                    0.0045                   0.013582755899022081
0.0015                    0.0055                   0.00926763046764223
0.0015                    0.0065                   0.007113385023669768
0.0015                    0.0075                   0.007230237796914787
0.0015                    0.0085                   0.008289314945672187
0.0015                    0.0095                   0.009359830200408752
0.0015                    0.0105                   0.010218911488250715
0.0015                    0.0115                   0.010930294202540923
0.0015                    0.0125                   0.011644626001459763
0.0015                    0.0135                   0.012557479668778324
0.0015                    0.0145                   0.014091928005483895
0.0015                    0.0155                   0.014607492283832416
0.0015                    0.0165                   0.011547946285639595
0.0015                    0.0175                   0.006592025239806116
0.0015                    0.0185                   0.0028692082872569693
0.0015                    0.0195                   0.0011452578104231854
0.0015                    0.0205                   5.246964211908211E-4
0.0015                    0.0215                   2.1915080466992966E-4
0.0015                    0.0225                   7.523690912994382E-5
0.0015                    0.0235                   3.289039359091626E-5
0.0015                    0.0245                   1.6850317286888918E-5
0.0015                    0.0255                   1.0644674711899588E-5
0.0015                    0.0265                   8.101829252485482E-6
0.0015                    0.0275                   6.843636789193189E-6
0.0015                    0.0285                   6.199351007683277E-6
0.0015                    0.0295                   5.589082458299566E-6
0.0015                    0.0305                   5.059417260666556E-6
0.0015                    0.0315                   2.521719923260761E-6
0.0025                    -0.0315                  7.436144944415128E-6
0.0025                    -0.0305                  1.371097505437044E-5
0.0025                    -0.0295                  1.3302564121991517E-5
0.0025                    -0.0285                  1.3451720977075846E-5
0.0025                    -0.0275                  1.3038403360599024E-5
0.0025                    -0.0265                  1.2664385333063491E-5
0.0025                    -0.0255                  1.2496913459461204E-5
0.0025                    -0.0245                  1.2852236587161913E-5
0.0025                    -0.0235                  1.4348988056001725E-5
0.0025                    -0.0225                  1.8421985690745766E-5
0.0025                    -0.0215                  2.8703471815016282E-5
0.0025                    -0.0205                  5.2874374446041863E-5
0.0025                    -0.0195                  1.079043523581777E-4
0.0025                    -0.0185                  2.5980413565780675E-4
0.0025                    -0.0175                  5.861826688474825E-4
0.0025                    -0.0165                  0.001390118016370487
0.0025                    -0.0155                  0.003591794557231806
0.0025                    -0.0145                  0.007593746172132529
0.0025                    -0.0135                  0.012441218999183379
0.0025                    -0.0125                  0.01700892936335865
0.0025                    -0.0115                  0.020677722359404353
0.0025                    -0.0105                  0.023322782035135676
0.0025                    -0.0095                  0.025097562974476306
0.0025                    -0.0085                  0.02618833944348141
0.0025                    -0.0075                  0.0267092608279923
0.0025                    -0.0065                  0.026678981654752413
0.0025                    -0.0055                  0.026086390692532865
0.0025                    -0.0045                  0.025063387465128796
0.0025                    -0.0035                  0.02409721190766036
0.0025                    -0.0025                  0.024105633112276183
0.0025                    -0.0015                  0.025911060997262654
0.0025                    -5.0E-4                  0.0286777815557198
0.0025                    5.0E-4                   0.02989187181786796
0.0025                    0.0015                   0.02729518265762852
0.0025                    0.0025                   0.021672567063122553
0.0025                    0.0035                   0.015148626478083741
0.0025                    0.0045                   0.009573385604403373
0.0025                    0.0055                   0.0066113061870506935
0.0025                    0.0065                   0.006601623781512746
0.0025                    0.0075                   0.008013399659227174
0.0025                    0.0085                   0.009333004364315342
0.0025                    0.0095                   0.010327940812969137
0.0025                    0.0105                   0.01116524648418039
0.0025                    0.0115                   0.012034910768997547
0.0025                    0.0125                   0.013031296065868118
0.0025                    0.0135                   0.014152397507184595
0.0025                    0.0145                   0.01547783340228605
0.0025                    0.0155                   0.016455927349254062
0.0025                    0.0165                   0.015494252532878214
0.0025                    0.0175                   0.01190435244621809
0.0025                    0.0185                   0.0070434021441130356
0.0025                    0.0195                   0.0031400358833938474
0.0025                    0.0205                   0.001166620630650363
0.0025                    0.0215                   4.2454989792437627E-4
0.0025                    0.0225                   1.448789255667552E-4
0.0025                    0.0235                   5.5090847060474466E-5
0.0025                    0.0245                   2.533418297054239E-5
0.0025                    0.0255                   1.3568345302050355E-5
0.0025                    0.0265                   8.915391066226455E-6
0.0025                    0.0275                   7.052409132478014E-6
0.0025                    0.0285                   6.264290043785409E-6
0.0025                    0.0295                   5.667630766439935E-6
0.0025                    0.0305                   5.279790231164211E-6
0.0025                    0.0315                   2.7008414371288506E-6
0.0035                    -0.0315                  8.209271343065769E-6
0.0035                    -0.0305                  1.454311673191515E-5
0.0035                    -0.0295                  1.3804023552562685E-5
0.0035                    -0.0285                  1.444803676333807E-5
0.0035                    -0.0275                  1.4392920438855167E-5
0.0035                    -0.0265                  1.4264998024424684E-5
0.0035                    -0.0255                  1.4328842266237052E-5
0.0035                    -0.0245                  1.5117267089551889E-5
0.0035                    -0.0235                  1.7627994043692722E-5
0.0035                    -0.0225                  2.4054588565376083E-5
0.0035                    -0.0215                  3.891223138294866E-5
0.0035                    -0.0205                  7.420797810920172E-5
0.0035                    -0.0195                  1.682611891696062E-4
0.0035                    -0.0185                  4.3575243707387473E-4
0.0035                    -0.0175                  0.0011983061288067766
0.0035                    -0.0165                  0.003481150308192628
0.0035                    -0.0155                  0.008206622366981492
0.0035                    -0.0145                  0.014296390838998339
0.0035                    -0.0135                  0.019707012641459208
0.0035                    -0.0125                  0.023480020608936128
0.0035                    -0.0115                  0.025759030375669897
0.0035                    -0.0105                  0.02703719370785869
0.0035                    -0.0095                  0.027764993188634714
0.0035                    -0.0085                  0.028332026370546493
0.0035                    -0.0075                  0.029015628651249292
0.0035                    -0.0065                  0.029808232812274498
0.0035                    -0.0055                  0.030446492405995562
0.0035                    -0.0045                  0.03063287569001719
0.0035                    -0.0035                  0.03029153137126703
0.0035                    -0.0025                  0.029677930188260312
0.0035                    -0.0015                  0.029085744480242207
0.0035                    -5.0E-4                  0.02822008487736702
0.0035                    5.0E-4                   0.026050761500980603
0.0035                    0.0015                   0.021678589001789896
0.0035                    0.0025                   0.015826527119592936
0.0035                    0.0035                   0.009928728227176454
0.0035                    0.0045                   0.005598273320536283
0.0035                    0.0055                   0.004638826012299111
0.0035                    0.0065                   0.005755379861554786
0.0035                    0.0075                   0.006766071044619001
0.0035                    0.0085                   0.007339484139297239
0.0035                    0.0095                   0.007784146562593899
0.0035                    0.0105                   0.008434986146355437
0.0035                    0.0115                   0.009521467950024932
0.0035                    0.0125                   0.01110947504418214
0.0035                    0.0135                   0.013068052486312398
0.0035                    0.0145                   0.015119000719472546
0.0035                    0.0155                   0.016818097310723864
0.0035                    0.0165                   0.017340086138388496
0.0035                    0.0175                   0.015715006521697515
0.0035                    0.0185                   0.01173698464554862
0.0035                    0.0195                   0.00672577631518565
0.0035                    0.0205                   0.002868083025111231
0.0035                    0.0215                   0.0010270113638503069
0.0035                    0.0225                   3.7128194978858453E-4
0.0035                    0.0235                   1.2906930422302892E-4
0.0035                    0.0245                   4.773624689370901E-5
0.0035                    0.0255                   2.2482668590780256E-5
0.0035                    0.0265                   1.3298377202535742E-5
0.0035                    0.0275                   9.347125948361606E-6
0.0035                    0.0285                   7.506323476211744E-6
0.0035                    0.0295                   6.269797521952697E-6
0.0035                    0.0305                   5.740755455731841E-6
0.0035                    0.0315                   3.0136847181678356E-6
0.0045                    -0.0315                  8.669872734110753E-6
0.0045                    -0.0305                  1.5010433506190736E-5
0.0045                    -0.0295                  1.4062112000134356E-5
0.0045                    -0.0285                  1.5254988543214261E-5
0.0045                    -0.0275                  1.59234183140375E-5
0.0045                    -0.0265                  1.6535168644906488E-5
0.0045                    -0.0255                  1.7418652123532578E-5
0.0045                    -0.0245                  1.9382960274191058E-5
0.0045                    -0.0235                  2.397769393976341E-5
0.0045                    -0.0225                  3.4649076642344746E-5
0.0045                    -0.0215                  5.843629275872632E-5
0.0045                    -0.0205                  1.1269956666654049E-4
0.0045                    -0.0195                  2.8994436230442294E-4
0.0045                    -0.0185                  8.327235778774826E-4
0.0045                    -0.0175                  0.002592673108355947
0.0045                    -0.0165                  0.007101881990433162
0.0045                    -0.0155                  0.013876747766423296
0.0045                    -0.0145                  0.020016261975239764
0.0045                    -0.0135                  0.02369527325517555
0.0045                    -0.0125                  0.02504533391844489
0.0045                    -0.0115                  0.024719861050375786
0.0045                    -0.0105                  0.02333177897069814
0.0045                    -0.0095                  0.021748434857318998
0.0045                    -0.0085                  0.020785518173292022
0.0045                    -0.0075                  0.020837816623135212
0.0045                    -0.0065                  0.021865111350977604
0.0045                    -0.0055                  0.023457186893870993
0.0045                    -0.0045                  0.02496398959299439
0.0045                    -0.0035                  0.025749579790089246
0.0045                    -0.0025                  0.02552544440435992
0.0045                    -0.0015                  0.024351339227443224
0.0045                    -5.0E-4                  0.02221791381778243
0.0045                    5.0E-4                   0.018912951616552556
0.0045                    0.0015                   0.014456440254912047
0.0045                    0.0025                   0.009589919755531034
0.0045                    0.0035                   0.005293540509982608
0.0045                    0.0045                   0.0028558594474267915
0.0045                    0.0055                   0.0028728933607836023
0.0045                    0.0065                   0.0033230335311955532
0.0045                    0.0075                   0.00345692198559888
0.0045                    0.0085                   0.00344391537522186
0.0045                    0.0095                   0.003532789383380612
0.0045                    0.0105                   0.003934259487474212
0.0045                    0.0115                   0.004850034525011467
0.0045                    0.0125                   0.006465526608493084
0.0045                    0.0135                   0.00885890368190032
0.0045                    0.0145                   0.011845296253442644
0.0045                    0.0155                   0.014879032564176303
0.0045                    0.0165                   0.017138455656267697
0.0045                    0.0175                   0.01768615976180267
0.0045                    0.0185                   0.015674193486301308
0.0045                    0.0195                   0.011117162676870072
0.0045                    0.0205                   0.005843653459475729
0.0045                    0.0215                   0.002297966674993078
0.0045                    0.0225                   8.148895944855121E-4
0.0045                    0.0235                   2.761942473706599E-4
0.0045                    0.0245                   9.019000125870455E-5
0.0045                    0.0255                   4.051256556312756E-5
0.0045                    0.0265                   2.15667294672302E-5
0.0045                    0.0275                   1.3404165446193962E-5
0.0045                    0.0285                   9.42089973028106E-6
0.0045                    0.0295                   7.119156431478644E-6
0.0045                    0.0305                   6.320949436783592E-6
0.0045                    0.0315                   3.3625367088104887E-6
0.0055                    -0.0315                  9.182911050974028E-6
0.0055                    -0.0305                  1.56834886969472E-5
0.0055                    -0.0295                  1.4679400457714787E-5
0.0055                    -0.0285                  1.6660031746950656E-5
0.0055                    -0.0275                  1.852733384835432E-5
0.0055                    -0.0265                  2.0735201608440368E-5
0.0055                    -0.0255                  2.3730018755995226E-5
0.0055                    -0.0245                  2.8689192208910473E-5
0.0055                    -0.0235                  3.790138921697163E-5
0.0055                    -0.0225                  5.632319397266402E-5
0.0055                    -0.0215                  9.911201417158239E-5
0.0055                    -0.0205                  2.120268750866348E-4
0.0055                    -0.0195                  5.364838578809626E-4
0.0055                    -0.0185                  0.0015621613838958
0.0055                    -0.0175                  0.004920806335370205
0.0055                    -0.0165                  0.011601906407637605
0.0055                    -0.0155                  0.01888617391396573
0.0055                    -0.0145                  0.023279839841183706
0.0055                    -0.0135                  0.024232696232579207
0.0055                    -0.0125                  0.022495190411503434
0.0055                    -0.0115                  0.018827717309125618
0.0055                    -0.0105                  0.014626310766502367
0.0055                    -0.0095                  0.011344548615680978
0.0055                    -0.0085                  0.00957125330409119
0.0055                    -0.0075                  0.009147916033741096
0.0055                    -0.0065                  0.009769899262952492
0.0055                    -0.0055                  0.011155766510711887
0.0055                    -0.0045                  0.012870530060034097
0.0055                    -0.0035                  0.014285242768582198
0.0055                    -0.0025                  0.014847934786914787
0.0055                    -0.0015                  0.014284047459179414
0.0055                    -5.0E-4                  0.012608376044727193
0.0055                    5.0E-4                   0.010154014825473495
0.0055                    0.0015                   0.007407529213532808
0.0055                    0.0025                   0.004784995450885645
0.0055                    0.0035                   0.002715960484724651
0.0055                    0.0045                   0.0016160299979513933
0.0055                    0.0055                   0.0012640206310994434
0.0055                    0.0065                   0.0011382593553926825
0.0055                    0.0075                   0.0010730710493754342
0.0055                    0.0085                   0.0010431815176279438
0.0055                    0.0095                   0.0010760151995346328
0.0055                    0.0105                   0.0012405068180799863
0.0055                    0.0115                   0.001678664006282554
0.0055                    0.0125                   0.002581661781923893
0.0055                    0.0135                   0.004222322871313301
0.0055                    0.0145                   0.00691931047608835
0.0055                    0.0155                   0.010614843010902939
0.0055                    0.0165                   0.014551762495295174
0.0055                    0.0175                   0.01745138938035139
0.0055                    0.0185                   0.01795867413835875
0.0055                    0.0195                   0.015171560654828487
0.0055                    0.0205                   0.009801823867934703
0.0055                    0.0215                   0.0046119595689380136
0.0055                    0.0225                   0.001703047461540789
0.0055                    0.0235                   6.004176819553806E-4
0.0055                    0.0245                   2.0714640115673615E-4
0.0055                    0.0255                   8.196340184824533E-5
0.0055                    0.0265                   3.9846889789487775E-5
0.0055                    0.0275                   2.182384967161407E-5
0.0055                    0.0285                   1.3411428454927672E-5
0.0055                    0.0295                   8.962567889476551E-6
0.0055                    0.0305                   7.403809028066601E-6
0.0055                    0.0315                   3.890014964567136E-6
0.0065                    -0.0315                  9.811406805862577E-6
0.0065                    -0.0305                  1.671278410501894E-5
0.0065                    -0.0295                  1.599281385019643E-5
0.0065                    -0.0285                  1.9404290597895488E-5
0.0065                    -0.0275                  2.358928240631114E-5
0.0065                    -0.0265                  2.9316284489707513E-5
0.0065                    -0.0255                  3.7778323657526E-5
0.0065                    -0.0245                  5.0981680412231886E-5
0.0065                    -0.0235                  7.167620400672806E-5
0.0065                    -0.0225                  1.0846685636574953E-4
0.0065                    -0.0215                  1.843453987141554E-4
0.0065                    -0.0205                  4.040708147142749E-4
0.0065                    -0.0195                  9.711741399870666E-4
0.0065                    -0.0185                  0.002804424148187974
0.0065                    -0.0175                  0.007968828007272234
0.0065                    -0.0165                  0.01594565897910833
0.0065                    -0.0155                  0.022252372326532453
0.0065                    -0.0145                  0.024227168528691646
0.0065                    -0.0135                  0.022272208467701136
0.0065                    -0.0125                  0.0172994576995696
0.0065                    -0.0115                  0.01124626085520455
0.0065                    -0.0105                  0.0065632580155093306
0.0065                    -0.0095                  0.00408836981107399
0.0065                    -0.0085                  0.003102548877124926
0.0065                    -0.0075                  0.0028086166805679725
0.0065                    -0.0065                  0.002881679196046893
0.0065                    -0.0055                  0.003271673459246282