% Model:              Benchmark260518.mph
% Version:            COMSOL 6.2.0.339
% Date:               May 21 2026, 04:05
% Dimension:          2
% Nodes:              4096
% Expressions:        1
% Description:        速度大小
% Length unit:        m
% x                       y                        spf.U (m/s)
% mirrored_by_python_y_to_minus_y, coord_match_decimals=12
0.0005 -0.0315 1.30612645186e-06
0.0005 -0.0305 2.63148834115e-06
0.0005 -0.0295 2.97568297688e-06
0.0005 -0.0285 3.34206640379e-06
0.0005 -0.0275 3.56534495513e-06
0.0005 -0.0265 3.80011519216e-06
0.0005 -0.0255 4.0411452698e-06
0.0005 -0.0245 4.3404741149e-06
0.0005 -0.0235 4.7530347575e-06
0.0005 -0.0225 5.41076847722e-06
0.0005 -0.0215 6.55975763257e-06
0.0005 -0.0205 8.89729655338e-06
0.0005 -0.0195 1.60281317921e-05
0.0005 -0.0185 3.94561281153e-05
0.0005 -0.0175 0.000120523145692
0.0005 -0.0165 0.000272305723408
0.0005 -0.0155 0.000444503190027
0.0005 -0.0145 0.000617432611836
0.0005 -0.0135 0.000930376068835
0.0005 -0.0125 0.00179201315029
0.0005 -0.0115 0.00489677306429
0.0005 -0.0105 0.00910944436335
0.0005 -0.0095 0.0124048574006
0.0005 -0.0085 0.0158332817476
0.0005 -0.0075 0.0188713923725
0.0005 -0.0065 0.0207032201371
0.0005 -0.0055 0.0210698912662
0.0005 -0.0045 0.0138167240951
0.0005 -0.0035 0.00457550991899
0.0005 -0.0025 0.00148622049727
0.0005 -0.0015 0.000875197358936
0.0005 -0.0005 0.00120560357293
0.0005 0.0005 0.00187129304594
0.0005 0.0015 0.0026586582891
0.0005 0.0025 0.00341937591045
0.0005 0.0035 0.00400012036687
0.0005 0.0045 0.00426745205499
0.0005 0.0055 0.00415049012864
0.0005 0.0065 0.00365473599191
0.0005 0.0075 0.00287670190058
0.0005 0.0085 0.00198431596105
0.0005 0.0095 0.00118455428691
0.0005 0.0105 0.000642929995816
0.0005 0.0115 0.000385738621474
0.0005 0.0125 0.000282456062503
0.0005 0.0135 0.000195598032545
0.0005 0.0145 9.72499281954e-05
0.0005 0.0155 3.44563795033e-05
0.0005 0.0165 1.49975365241e-05
0.0005 0.0175 9.0680007239e-06
0.0005 0.0185 7.20660186493e-06
0.0005 0.0195 6.26897847398e-06
0.0005 0.0205 5.78851110788e-06
0.0005 0.0215 5.55096444032e-06
0.0005 0.0225 5.3793752388e-06
0.0005 0.0235 5.20872117798e-06
0.0005 0.0245 5.02283020835e-06
0.0005 0.0255 4.81657052628e-06
0.0005 0.0265 4.59550155622e-06
0.0005 0.0275 4.34057362162e-06
0.0005 0.0285 4.0839472455e-06
0.0005 0.0295 3.63801275206e-06
0.0005 0.0305 3.25111184825e-06
0.0005 0.0315 1.63452943341e-06
0.0015 -0.0315 2.55398021009e-06
0.0015 -0.0305 5.06615772036e-06
0.0015 -0.0295 5.46686668939e-06
0.0015 -0.0285 5.86102969673e-06
0.0015 -0.0275 6.0302835977e-06
0.0015 -0.0265 6.23599666615e-06
0.0015 -0.0255 6.48904940193e-06
0.0015 -0.0245 6.87327826682e-06
0.0015 -0.0235 7.51507117818e-06
0.0015 -0.0225 8.70846200989e-06
0.0015 -0.0215 1.10858927972e-05
0.0015 -0.0205 1.64294185349e-05
0.0015 -0.0195 3.15219252569e-05
0.0015 -0.0185 7.86481524616e-05
0.0015 -0.0175 0.000242871269908
0.0015 -0.0165 0.000590785004743
0.0015 -0.0155 0.00117293550131
0.0015 -0.0145 0.00212527819306
0.0015 -0.0135 0.00356704568094
0.0015 -0.0125 0.00550180577116
0.0015 -0.0115 0.00744486708029
0.0015 -0.0105 0.00898659717164
0.0015 -0.0095 0.0107088540509
0.0015 -0.0085 0.0132444270494
0.0015 -0.0075 0.0161622158476
0.0015 -0.0065 0.0186205218717
0.0015 -0.0055 0.0200691067026
0.0015 -0.0045 0.0182198565861
0.0015 -0.0035 0.0127074390777
0.0015 -0.0025 0.00802884716578
0.0015 -0.0015 0.00649269632056
0.0015 -0.0005 0.00684846256652
0.0015 0.0005 0.0080298432011
0.0015 0.0015 0.00943436305498
0.0015 0.0025 0.0107198770587
0.0015 0.0035 0.0116359911538
0.0015 0.0045 0.0119984755394
0.0015 0.0055 0.0116910323867
0.0015 0.0065 0.0106672792407
0.0015 0.0075 0.00898583971059
0.0015 0.0085 0.00684328004654
0.0015 0.0095 0.0045805665495
0.0015 0.0105 0.00261345485801
0.0015 0.0115 0.00129588327335
0.0015 0.0125 0.000647302100397
0.0015 0.0135 0.000350521973159
0.0015 0.0145 0.000164863778481
0.0015 0.0155 6.05460775398e-05
0.0015 0.0165 2.70085431356e-05
0.0015 0.0175 1.55679793925e-05
0.0015 0.0185 1.1477560873e-05
0.0015 0.0195 9.7122586351e-06
0.0015 0.0205 8.90809824973e-06
0.0015 0.0215 8.54115879582e-06
0.0015 0.0225 8.31447071151e-06
0.0015 0.0235 8.11092983078e-06
0.0015 0.0245 7.90024306189e-06
0.0015 0.0255 7.68131953199e-06
0.0015 0.0265 7.46914892674e-06
0.0015 0.0275 7.2508720956e-06
0.0015 0.0285 7.06001770242e-06
0.0015 0.0295 6.5978168112e-06
0.0015 0.0305 6.19760241448e-06
0.0015 0.0315 3.16431800124e-06
0.0025 -0.0315 2.7042873153e-06
0.0025 -0.0305 5.16914616609e-06
0.0025 -0.0295 5.27421188844e-06
0.0025 -0.0285 5.44619033971e-06
0.0025 -0.0275 5.35752587927e-06
0.0025 -0.0265 5.28603801086e-06
0.0025 -0.0255 5.29906683874e-06
0.0025 -0.0245 5.51027990722e-06
0.0025 -0.0235 6.13441375034e-06
0.0025 -0.0225 7.65654860574e-06
0.0025 -0.0215 1.12655215664e-05
0.0025 -0.0205 1.99151181743e-05
0.0025 -0.0195 4.18890064459e-05
0.0025 -0.0185 0.000105685846917
0.0025 -0.0175 0.000346344173639
0.0025 -0.0165 0.00100403590113
0.0025 -0.0155 0.00243230497084
0.0025 -0.0145 0.00466557480823
0.0025 -0.0135 0.00714415828825
0.0025 -0.0125 0.00897171996811
0.0025 -0.0115 0.00954696437667
0.0025 -0.0105 0.00911274014816
0.0025 -0.0095 0.00878876130891
0.0025 -0.0085 0.00990535268796
0.0025 -0.0075 0.0125100343194
0.0025 -0.0065 0.015529385582
0.0025 -0.0055 0.0179772599583
0.0025 -0.0045 0.0187190091505
0.0025 -0.0035 0.0175347573913
0.0025 -0.0025 0.0157387616911
0.0025 -0.0015 0.0147353293949
0.0025 -0.0005 0.0148627190625
0.0025 0.0005 0.0155725229213
0.0025 0.0015 0.0163474385987
0.0025 0.0025 0.0168906873456
0.0025 0.0035 0.0170930002569
0.0025 0.0045 0.0169487746477
0.0025 0.0055 0.0164517857893
0.0025 0.0065 0.0155462087281
0.0025 0.0075 0.0141062259997
0.0025 0.0085 0.0119785672592
0.0025 0.0095 0.00913330095041
0.0025 0.0105 0.00590152059644
0.0025 0.0115 0.00303746961309
0.0025 0.0125 0.00124491513237
0.0025 0.0135 0.000462602548688
0.0025 0.0145 0.000168623426107
0.0025 0.0155 6.20514311946e-05
0.0025 0.0165 2.87931194196e-05
0.0025 0.0175 1.50817478394e-05
0.0025 0.0185 9.5473479221e-06
0.0025 0.0195 7.44648378759e-06
0.0025 0.0205 6.65157724456e-06
0.0025 0.0215 6.35374626797e-06
0.0025 0.0225 6.2363295597e-06
0.0025 0.0235 6.17489370421e-06
0.0025 0.0245 6.13897577592e-06
0.0025 0.0255 6.13809487781e-06
0.0025 0.0265 6.19034921569e-06
0.0025 0.0275 6.28457607005e-06
0.0025 0.0285 6.39898624265e-06
0.0025 0.0295 6.23772234141e-06
0.0025 0.0305 6.27313562735e-06
0.0025 0.0315 3.34418568522e-06
0.0035 -0.0315 2.95016428206e-06
0.0035 -0.0305 5.41135802394e-06
0.0035 -0.0295 5.38645899329e-06
0.0035 -0.0285 5.69269072769e-06
0.0035 -0.0275 5.66192710148e-06
0.0035 -0.0265 5.59515672114e-06
0.0035 -0.0255 5.61586998451e-06
0.0035 -0.0245 5.9418943764e-06
0.0035 -0.0235 6.97462214989e-06
0.0035 -0.0225 9.67456927986e-06
0.0035 -0.0215 1.63845790327e-05
0.0035 -0.0205 3.31885561575e-05
0.0035 -0.0195 7.57983913305e-05
0.0035 -0.0185 0.00018659727367
0.0035 -0.0175 0.000599784735987
0.0035 -0.0165 0.00198976017167
0.0035 -0.0155 0.00481107145705
0.0035 -0.0145 0.00793136660052
0.0035 -0.0135 0.0100062634843
0.0035 -0.0125 0.0107360115344
0.0035 -0.0115 0.0102214147864
0.0035 -0.0105 0.0087598527567
0.0035 -0.0095 0.00695544845686
0.0035 -0.0085 0.00628865970534
0.0035 -0.0075 0.00822930418242
0.0035 -0.0065 0.011615909545
0.0035 -0.0055 0.0149111918197
0.0035 -0.0045 0.0171486229102
0.0035 -0.0035 0.018101182832
0.0035 -0.0025 0.0183402547894
0.0035 -0.0015 0.0184612594988
0.0035 -0.0005 0.0186506180605
0.0035 0.0005 0.0187456962089
0.0035 0.0015 0.0185563651636
0.0035 0.0025 0.0180789847677
0.0035 0.0035 0.0175013622134
0.0035 0.0045 0.0170372985705
0.0035 0.0055 0.0167627957692
0.0035 0.0065 0.0165336796463
0.0035 0.0075 0.0160548237547
0.0035 0.0085 0.0149860963164
0.0035 0.0095 0.0129471298377
0.0035 0.0105 0.00972584538019
0.0035 0.0115 0.00584094783161
0.0035 0.0125 0.00260902767261
0.0035 0.0135 0.00089877713962
0.0035 0.0145 0.000296514562129
0.0035 0.0155 0.00010363676481
0.0035 0.0165 4.10422411801e-05
0.0035 0.0175 1.97477298412e-05
0.0035 0.0185 1.17641639958e-05
0.0035 0.0195 8.61912803609e-06
0.0035 0.0205 7.38918606573e-06
0.0035 0.0215 6.88699239569e-06
0.0035 0.0225 6.64129201195e-06
0.0035 0.0235 6.49102341631e-06
0.0035 0.0245 6.40702982019e-06
0.0035 0.0255 6.40048393214e-06
0.0035 0.0265 6.47525888362e-06
0.0035 0.0275 6.57167032832e-06
0.0035 0.0285 6.62886659163e-06
0.0035 0.0295 6.32695767085e-06
0.0035 0.0305 6.55669875498e-06
0.0035 0.0315 3.64919203595e-06
0.0045 -0.0315 3.12743219905e-06
0.0045 -0.0305 5.5356976669e-06
0.0045 -0.0295 5.31325361255e-06
0.0045 -0.0285 5.6902914741e-06
0.0045 -0.0275 5.76940501318e-06
0.0045 -0.0265 5.80027574476e-06
0.0045 -0.0255 5.95193685075e-06
0.0045 -0.0245 6.59316135935e-06
0.0045 -0.0235 8.44457131446e-06
0.0045 -0.0225 1.33688355755e-05
0.0045 -0.0215 2.68134920696e-05
0.0045 -0.0205 6.32866973395e-05
0.0045 -0.0195 0.000170459761333
0.0045 -0.0185 0.000442592206676
0.0045 -0.0175 0.00127430601045
0.0045 -0.0165 0.00384252522208
0.0045 -0.0155 0.00784389726662
0.0045 -0.0145 0.010467512818
0.0045 -0.0135 0.0105444259307
0.0045 -0.0125 0.00924695763327
0.0045 -0.0115 0.00763155161027
0.0045 -0.0105 0.00604365845268
0.0045 -0.0095 0.00446144608273
0.0045 -0.0085 0.00324337109245
0.0045 -0.0075 0.0042103776122
0.0045 -0.0065 0.00725480295893
0.0045 -0.0055 0.0106342308112
0.0045 -0.0045 0.0133864271903
0.0045 -0.0035 0.0151338276158
0.0045 -0.0025 0.0160467277996
0.0045 -0.0015 0.0163933835224
0.0045 -0.0005 0.0162192138554
0.0045 0.0005 0.0154919162083
0.0045 0.0015 0.0143392700408
0.0045 0.0025 0.0130972467106
0.0045 0.0035 0.0121733928355
0.0045 0.0045 0.0118788997227
0.0045 0.0055 0.0123262667845
0.0045 0.0065 0.0133592043446
0.0045 0.0075 0.0145396716892
0.0045 0.0085 0.0152469706029
0.0045 0.0095 0.0148996680315
0.0045 0.0105 0.0129156635326
0.0045 0.0115 0.00908832131595
0.0045 0.0125 0.00465514598298
0.0045 0.0135 0.00168527720247
0.0045 0.0145 0.000534043951993
0.0045 0.0155 0.000175913177043
0.0045 0.0165 5.97184264582e-05
0.0045 0.0175 2.74513961359e-05
0.0045 0.0185 1.565155177e-05
0.0045 0.0195 1.08247918566e-05
0.0045 0.0205 8.80777695244e-06
0.0045 0.0215 7.86231058605e-06
0.0045 0.0225 7.29882389734e-06
0.0045 0.0235 6.91240249223e-06
0.0045 0.0245 6.67733503373e-06
0.0045 0.0255 6.59581576266e-06
0.0045 0.0265 6.62954235932e-06
0.0045 0.0275 6.65954736309e-06
0.0045 0.0285 6.60915420105e-06
0.0045 0.0295 6.23131153583e-06
0.0045 0.0305 6.68580209588e-06
0.0045 0.0315 3.84327038405e-06
0.0055 -0.0315 3.27882517677e-06
0.0055 -0.0305 5.66777837365e-06
0.0055 -0.0295 5.27857842937e-06
0.0055 -0.0285 5.68077520998e-06
0.0055 -0.0275 5.86215235236e-06
0.0055 -0.0265 6.05844739335e-06
0.0055 -0.0255 6.49330091879e-06
0.0055 -0.0245 7.75118388237e-06
0.0055 -0.0235 1.1076470309e-05
0.0055 -0.0225 1.97550844632e-05
0.0055 -0.0215 4.56140911726e-05
0.0055 -0.0205 0.000134805363289
0.0055 -0.0195 0.000394153827241
0.0055 -0.0185 0.0010221332057
0.0055 -0.0175 0.00277466734768
0.0055 -0.0165 0.006590001041
0.0055 -0.0155 0.0105192550665
0.0055 -0.0145 0.0111265248747
0.0055 -0.0135 0.00861716887573
0.0055 -0.0125 0.00560628926048
0.0055 -0.0115 0.00354668919223
0.0055 -0.0105 0.00241981946962
0.0055 -0.0095 0.00176827904846
0.0055 -0.0085 0.00130862946702
0.0055 -0.0075 0.00168396378553
0.0055 -0.0065 0.00347278991004
0.0055 -0.0055 0.00582241271579
0.0055 -0.0045 0.00795283070316
0.0055 -0.0035 0.00937798696337
0.0055 -0.0025 0.0100561732474
0.0055 -0.0015 0.0100991468649
0.0055 -0.0005 0.00951377150426
0.0055 0.0005 0.00841122677818
0.0055 0.0015 0.00712822947879
0.0055 0.0025 0.00603682465239
0.0055 0.0035 0.00539794515189
0.0055 0.0045 0.00537987907494
0.0055 0.0055 0.00615554994411
0.0055 0.0065 0.00792018284838
0.0055 0.0075 0.0105666543799
0.0055 0.0085 0.0133237650843
0.0055 0.0095 0.0150742443815
0.0055 0.0105 0.0149052223174
0.0055 0.0115 0.0120549053011
0.0055 0.0125 0.00711729417633
0.0055 0.0135 0.00285709876372
0.0055 0.0145 0.000878691610703
0.0055 0.0155 0.000272704115878
0.0055 0.0165 9.19789984207e-05
0.0055 0.0175 4.2707825176e-05
0.0055 0.0185 2.34005457233e-05
0.0055 0.0195 1.54744673479e-05
0.0055 0.0205 1.19315893491e-05
0.0055 0.0215 1.00011516425e-05
0.0055 0.0225 8.68613166133e-06
0.0055 0.0235 7.74915656562e-06
0.0055 0.0245 7.17352662932e-06
0.0055 0.0255 6.91512372039e-06
0.0055 0.0265 6.84574959524e-06
0.0055 0.0275 6.77283433636e-06
0.0055 0.0285 6.62387262207e-06
0.0055 0.0295 6.20202333865e-06
0.0055 0.0305 6.85008884005e-06
0.0055 0.0315 4.02789414224e-06
0.0065 -0.0315 3.41064404727e-06
0.0065 -0.0305 5.80069189061e-06
0.0065 -0.0295 5.27626083449e-06
0.0065 -0.0285 5.68143539411e-06
0.0065 -0.0275 5.95028062544e-06
0.0065 -0.0265 6.36273226902e-06
0.0065 -0.0255 7.27158397132e-06
0.0065 -0.0245 9.63943561368e-06
0.0065 -0.0235 1.55482775277e-05
0.0065 -0.0225 3.12587607843e-05
0.0065 -0.0215 7.63670249615e-05
0.0065 -0.0205 0.000255961776328
0.0065 -0.0195 0.000783660874073
0.0065 -0.0185 0.00211106192151
0.0065 -0.0175 0.00517351319704
0.0065 -0.0165 0.00947361742552
0.0065 -0.0155 0.0117042489837
0.0065 -0.0145 0.00970493083124
0.0065 -0.0135 0.00567354922015
0.0065 -0.0125 0.00267717781259
0.0065 -0.0115 0.00124204756526
0.0065 -0.0105 0.00068755381631
0.0065 -0.0095 0.000520529154333
0.0065 -0.0085 0.000518839917603
0.0065 -0.0075 0.000764623468842
0.0065 -0.0065 0.00145967549632
0.0065 -0.0055 0.00253938833805
0.0065 -0.0045 0.00356403916688
0.0065 -0.0035 0.0040401557401
0.0065 -0.0025 0.00403153080497
0.0065 -0.0015 0.00384195290038
0.0065 -0.0005 0.00344589028543
0.0065 0.0005 0.00284881814521
0.0065 0.0015 0.00223171521637
0.0065 0.0025 0.00179729102135
0.0065 0.0035 0.00163888978027
0.0065 0.0045 0.00174729923681
0.0065 0.0055 0.00224476962558
0.0065 0.0065 0.00356013067137
0.0065 0.0075 0.00625109728774
0.0065 0.0085 0.0101699034379
0.0065 0.0095 0.0139029057571
0.0065 0.0105 0.015715843173
0.0065 0.0115 0.0143079722353
0.0065 0.0125 0.00963823349956
0.0065 0.0135 0.00439505578954
0.0065 0.0145 0.00142840126947
0.0065 0.0155 0.000463869287554
0.0065 0.0165 0.000171591593381
0.0065 0.0175 7.31642413783e-05
0.0065 0.0185 3.91109212253e-05
0.0065 0.0195 2.5714312449e-05
0.0065 0.0205 1.91088930931e-05
0.0065 0.0215 1.48950926065e-05
0.0065 0.0225 1.17211292111e-05
0.0065 0.0235 9.45716479903e-06
0.0065 0.0245 8.09844311216e-06
0.0065 0.0255 7.43925529035e-06
0.0065 0.0265 7.1573060206e-06
0.0065 0.0275 6.93640175246e-06
0.0065 0.0285 6.68117916844e-06
0.0065 0.0295 6.21125759815e-06
0.0065 0.0305 6.99013298785e-06
0.0065 0.0315 4.16758751989e-06
0.0075 -0.0315 3.52608164899e-06
0.0075 -0.0305 5.94086070786e-06
0.0075 -0.0295 5.3307253911e-06
0.0075 -0.0285 5.74792610077e-06
0.0075 -0.0275 6.11538676766e-06
0.0075 -0.0265 6.81282754827e-06
0.0075 -0.0255 8.43859796731e-06
0.0075 -0.0245 1.26611094341e-05
0.0075 -0.0235 2.37421435754e-05
0.0075 -0.0225 5.40708128136e-05
0.0075 -0.0215 0.000153021494897
0.0075 -0.0205 0.000495134103809
0.0075 -0.0195 0.00149363875856
0.0075 -0.0185 0.00395896055385
0.0075 -0.0175 0.00802485584668
0.0075 -0.0165 0.0113405547609
0.0075 -0.0155 0.0108816180949
0.0075 -0.0145 0.00701359793523
0.0075 -0.0135 0.00318645930933
0.0075 -0.0125 0.00125491582873
0.0075 -0.0115 0.000509893806315
0.0075 -0.0105 0.000245307334209
0.0075 -0.0095 0.000202452358919
0.0075 -0.0085 0.000275520961959
0.0075 -0.0075 0.00049516422256
0.0075 -0.0065 0.000883362317347
0.0075 -0.0055 0.00150080162114
0.0075 -0.0045 0.00213832744205
0.0075 -0.0035 0.00213419236451
0.0075 -0.0025 0.00154447569954
0.0075 -0.0015 0.00112707383066
0.0075 -0.0005 0.000952064971426
0.0075 0.0005 0.00078961982938
0.0075 0.0015 0.000596716584151
0.0075 0.0025 0.000468970830085
0.0075 0.0035 0.000481082930773
0.0075 0.0045 0.000573827142284
0.0075 0.0055 0.000790780813723
0.0075 0.0065 0.00144517523602
0.0075 0.0075 0.00329002347462
0.0075 0.0085 0.00703778760059
0.0075 0.0095 0.0118714872074
0.0075 0.0105 0.0154799114514
0.0075 0.0115 0.0157277776417
0.0075 0.0125 0.0119073018525
0.0075 0.0135 0.0062225424361
0.0075 0.0145 0.0022917261264
0.0075 0.0155 0.000807591885086
0.0075 0.0165 0.000325436005326
0.0075 0.0175 0.00013841755045
0.0075 0.0185 7.83196557767e-05
0.0075 0.0195 5.26992094754e-05
0.0075 0.0205 3.88231161414e-05
0.0075 0.0215 2.81284151736e-05
0.0075 0.0225 1.95855917545e-05
0.0075 0.0235 1.36786416253e-05
0.0075 0.0245 1.02260373088e-05
0.0075 0.0255 8.52524663163e-06
0.0075 0.0265 7.7411225512e-06
0.0075 0.0275 7.2374864475e-06
0.0075 0.0285 6.80944861093e-06
0.0075 0.0295 6.24878365919e-06
0.0075 0.0305 7.08369151137e-06
0.0075 0.0315 4.25221826173e-06
0.0085 -0.0315 3.59793972811e-06
0.0085 -0.0305 6.06132756042e-06
0.0085 -0.0295 5.45043340227e-06
0.0085 -0.0285 5.91232565746e-06
0.0085 -0.0275 6.41827226085e-06
0.0085 -0.0265 7.50351044572e-06
0.0085 -0.0255 1.01207931871e-05
0.0085 -0.0245 1.69983949187e-05
0.0085 -0.0235 3.73263805037e-05
0.0085 -0.0225 0.000105906617624
0.0085 -0.0215 0.000326013636567
0.0085 -0.0205 0.000967579567339
0.0085 -0.0195 0.00278741799621
0.0085 -0.0185 0.00644314799153
0.0085 -0.0175 0.0103835509016
0.0085 -0.0165 0.0114232349596
0.0085 -0.0155 0.00849787012807
0.0085 -0.0145 0.00426825298052
0.0085 -0.0135 0.00162827313858
0.0085 -0.0125 0.000608698883017
0.0085 -0.0115 0.000241361501847
0.0085 -0.0105 0.000124389395314
0.0085 -0.0095 0.000107632890718
0.0085 -0.0085 0.000156808239943
0.0085 -0.0075 0.000311476956682
0.0085 -0.0065 0.000591433531468
0.0085 -0.0055 0.00117442796535
0.0085 -0.0045 0.00197149477714
0.0085 -0.0035 0.00196573822259
0.0085 -0.0025 0.00115172507945
0.0085 -0.0015 0.000598280062489
0.0085 -0.0005 0.000407274660246
0.0085 0.0005 0.000296781915013
0.0085 0.0015 0.000201047158399
0.0085 0.0025 0.000142912474154
0.0085 0.0035 0.000151928021637
0.0085 0.0045 0.000196505557645
0.0085 0.0055 0.000321802474783
0.0085 0.0065 0.000678183480351
0.0085 0.0075 0.00176263779757
0.0085 0.0085 0.00467547920015
0.0085 0.0095 0.00958906729506
0.0085 0.0105 0.0144098916283
0.0085 0.0115 0.0162477864037
0.0085 0.0125 0.0136513115137
0.0085 0.0135 0.00818571850547
0.0085 0.0145 0.00355548787471
0.0085 0.0155 0.00145556025352
0.0085 0.0165 0.000706244323218
0.0085 0.0175 0.000344202745158
0.0085 0.0185 0.000192300467199
0.0085 0.0195 0.000135836122596
0.0085 0.0205 0.000100031961143
0.0085 0.0215 6.88702624235e-05
0.0085 0.0225 4.24211733218e-05
0.0085 0.0235 2.42219540994e-05
0.0085 0.0245 1.47289143e-05
0.0085 0.0255 1.05543760975e-05
0.0085 0.0265 8.71154984107e-06
0.0085 0.0275 7.68521486288e-06
0.0085 0.0285 6.97772861062e-06
0.0085 0.0295 6.27640734981e-06
0.0085 0.0305 7.12057772622e-06
0.0085 0.0315 4.29015282149e-06
0.0095 -0.0315 3.62151439911e-06
0.0095 -0.0305 6.15684491075e-06
0.0095 -0.0295 5.6454264779e-06
0.0095 -0.0285 6.21653693543e-06
0.0095 -0.0275 6.94514711744e-06
0.0095 -0.0265 8.59077321309e-06
0.0095 -0.0255 1.25919902001e-05
0.0095 -0.0245 2.29978025988e-05
0.0095 -0.0235 5.44564911626e-05
0.0095 -0.0225 0.000181058362385
0.0095 -0.0215 0.000584386487935
0.0095 -0.0205 0.00174910748308
0.0095 -0.0195 0.00466264457085
0.0095 -0.0185 0.00890199512113
0.0095 -0.0175 0.0114060240642
0.0095 -0.0165 0.00983306692699
0.0095 -0.0155 0.00567124045105
0.0095 -0.0145 0.00228969097292
0.0095 -0.0135 0.000793838171756
0.0095 -0.0125 0.000281770170756
0.0095 -0.0115 0.000121118196674
0.0095 -0.0105 7.30226561489e-05
0.0095 -0.0095 6.73249048567e-05
0.0095 -0.0085 9.65430912423e-05
0.0095 -0.0075 0.000178053831312
0.0095 -0.0065 0.000352955372051
0.0095 -0.0055 0.000846160637151
0.0095 -0.0045 0.0017080293728
0.0095 -0.0035 0.00171615383446
0.0095 -0.0025 0.000852659106453
0.0095 -0.0015 0.000360927218469
0.0095 -0.0005 0.000208476432703
0.0095 0.0005 0.000135185538464
0.0095 0.0015 8.93566605837e-05
0.0095 0.0025 6.42404413754e-05
0.0095 0.0035 6.00486828678e-05
0.0095 0.0045 7.52619200608e-05
0.0095 0.0055 0.000151155739217
0.0095 0.0065 0.00037700373753
0.0095 0.0075 0.00104140545889
0.0095 0.0085 0.00312634689036
0.0095 0.0095 0.00751890715281
0.0095 0.0105 0.0128577161324
0.0095 0.0115 0.0158790509992
0.0095 0.0125 0.0145787668644
0.0095 0.0135 0.00994704383694
0.0095 0.0145 0.00529346736532
0.0095 0.0155 0.00289659490455
0.0095 0.0165 0.00186661170507
0.0095 0.0175 0.00114181265675
0.0095 0.0185 0.000691338104132
0.0095 0.0195 0.000482997711404
0.0095 0.0205 0.000336207008625
0.0095 0.0215 0.000213676827137
0.0095 0.0225 0.00011121069321
0.0095 0.0235 4.68093353983e-05
0.0095 0.0245 2.27187858937e-05
0.0095 0.0255 1.38410011565e-05
0.0095 0.0265 1.01379888716e-05
0.0095 0.0275 8.26857395795e-06
0.0095 0.0285 7.15711825762e-06
0.0095 0.0295 6.27229193809e-06
0.0095 0.0305 7.08513102149e-06
0.0095 0.0315 4.27423844583e-06
0.0105 -0.0315 3.58671388331e-06
0.0105 -0.0305 6.21505178538e-06
0.0105 -0.0295 5.92420711533e-06
0.0105 -0.0285 6.71125516409e-06
0.0105 -0.0275 7.8320927489e-06
0.0105 -0.0265 1.03573847463e-05
0.0105 -0.0255 1.64580271767e-05
0.0105 -0.0245 3.25874505418e-05
0.0105 -0.0235 7.85780899515e-05
0.0105 -0.0225 0.000271261882119
0.0105 -0.0215 0.000934154851393
0.0105 -0.0205 0.00289680024428
0.0105 -0.0195 0.00679117569871
0.0105 -0.0185 0.0106138973464
0.0105 -0.0175 0.0109214453015
0.0105 -0.0165 0.00740513225882
0.0105 -0.0155 0.00337233277847
0.0105 -0.0145 0.00119767898908
0.0105 -0.0135 0.000406086680289
0.0105 -0.0125 0.000143545958766
0.0105 -0.0115 7.37207933643e-05
0.0105 -0.0105 4.97588743178e-05
0.0105 -0.0095 4.81101252837e-05
0.0105 -0.0085 6.72781254012e-05
0.0105 -0.0075 0.000123952765354
0.0105 -0.0065 0.000280101338375
0.0105 -0.0055 0.000779340992865
0.0105 -0.0045 0.00172067180588
0.0105 -0.0035 0.00175370256577
0.0105 -0.0025 0.00081452065947
0.0105 -0.0015 0.000285752488557
0.0105 -0.0005 0.00013299107019
0.0105 0.0005 7.64758580278e-05
0.0105 0.0015 5.053740302e-05
0.0105 0.0025 3.80199112423e-05
0.0105 0.0035 3.55258773577e-05
0.0105 0.0045 4.59858912532e-05
0.0105 0.0055 8.79311371454e-05
0.0105 0.0065 0.000227756187845
0.0105 0.0075 0.000678524357988
0.0105 0.0085 0.00218194158035
0.0105 0.0095 0.00587721867775
0.0105 0.0105 0.0111644436418
0.0105 0.0115 0.0147987314183
0.0105 0.0125 0.0144501574253
0.0105 0.0135 0.0108530928436
0.0105 0.0145 0.00708603536282
0.0105 0.0155 0.00546627314335
0.0105 0.0165 0.00475213156157
0.0105 0.0175 0.00374527515554
0.0105 0.0185 0.00254781364683
0.0105 0.0195 0.00159321753721
0.0105 0.0205 0.000963274504155
0.0105 0.0215 0.000538456934388
0.0105 0.0225 0.000239084846004
0.0105 0.0235 8.28506128642e-05
0.0105 0.0245 3.50305436203e-05
0.0105 0.0255 1.874435823e-05
0.0105 0.0265 1.21877384306e-05
0.0105 0.0275 9.05017131594e-06
0.0105 0.0285 7.37207538969e-06
0.0105 0.0295 6.25305562075e-06
0.0105 0.0305 6.97524302052e-06
0.0105 0.0315 4.19493681018e-06
0.0115 -0.0315 3.47514046432e-06
0.0115 -0.0305 6.22342056242e-06
0.0115 -0.0295 6.3002840634e-06
0.0115 -0.0285 7.45248477932e-06
0.0115 -0.0275 9.27975292789e-06
0.0115 -0.0265 1.33620266337e-05
0.0115 -0.0255 2.29350193825e-05
0.0115 -0.0245 4.91204741124e-05
0.0115 -0.0235 0.000137494883317
0.0115 -0.0225 0.000449574296515
0.0115 -0.0215 0.00150017131533
0.0115 -0.0205 0.0043803786547
0.0115 -0.0195 0.00874673545775
0.0115 -0.0185 0.0112588629751
0.0115 -0.0175 0.00937341205527
0.0115 -0.0165 0.00506218829476
0.0115 -0.0155 0.0019098089917
0.0115 -0.0145 0.000646764648634
0.0115 -0.0135 0.00022830813499
0.0115 -0.0125 9.66062864125e-05
0.0115 -0.0115 5.36482940834e-05
0.0115 -0.0105 3.93165448343e-05
0.0115 -0.0095 3.9516499276e-05
0.0115 -0.0085 5.60498703664e-05
0.0115 -0.0075 0.000110616076114
0.0115 -0.0065 0.000282571615369
0.0115 -0.0055 0.000940793081357
0.0115 -0.0045 0.00211546168443
0.0115 -0.0035 0.0021509667217
0.0115 -0.0025 0.00097595381647
0.0115 -0.0015 0.000281373842872
0.0115 -0.0005 0.000109885042685
0.0115 0.0005 5.51933785458e-05
0.0115 0.0015 3.56109490606e-05
0.0115 0.0025 2.81166911171e-05
0.0115 0.0035 2.80468619473e-05
0.0115 0.0045 3.6330779202e-05
0.0115 0.0055 6.12141972939e-05
0.0115 0.0065 0.000160570857547
0.0115 0.0075 0.000509114728599
0.0115 0.0085 0.00167404266338
0.0115 0.0095 0.00478120600525
0.0115 0.0105 0.00968431751954
0.0115 0.0115 0.0133385509725
0.0115 0.0125 0.0132849707975
0.0115 0.0135 0.0102759180614
0.0115 0.0145 0.00767014024196
0.0115 0.0155 0.00759646435507
0.0115 0.0165 0.00801670228753
0.0115 0.0175 0.00766874351033
0.0115 0.0185 0.00626964023213
0.0115 0.0195 0.00423648520528
0.0115 0.0205 0.00236623564657
0.0115 0.0215 0.00110690051836
0.0115 0.0225 0.000418970378333
0.0115 0.0235 0.000131968708324
0.0115 0.0245 5.36525573744e-05
0.0115 0.0255 2.65943439567e-05
0.0115 0.0265 1.55451782078e-05
0.0115 0.0275 1.03527550638e-05
0.0115 0.0285 7.76951048009e-06
0.0115 0.0295 6.29736906463e-06
0.0115 0.0305 6.84770002283e-06
0.0115 0.0315 4.08283098919e-06
0.0125 -0.0315 3.40456879647e-06
0.0125 -0.0305 6.30522447923e-06
0.0125 -0.0295 6.79391386501e-06
0.0125 -0.0285 8.50643763538e-06
0.0125 -0.0275 1.15269969687e-05
0.0125 -0.0265 1.84665167042e-05
0.0125 -0.0255 3.52688201093e-05
0.0125 -0.0245 7.8572797046e-05
0.0125 -0.0235 0.000240483409622
0.0125 -0.0225 0.000758638559394
0.0125 -0.0215 0.00236676341113
0.0125 -0.0205 0.00602867975825
0.0125 -0.0195 0.0101614664938
0.0125 -0.0185 0.0109067961095
0.0125 -0.0175 0.0074230649037
0.0125 -0.0165 0.0032774242131
0.0125 -0.0155 0.00112150358572
0.0125 -0.0145 0.00038252225181
0.0125 -0.0135 0.00014309914749
0.0125 -0.0125 7.33883853337e-05
0.0125 -0.0115 4.48447402793e-05
0.0125 -0.0105 3.47999079755e-05
0.0125 -0.0095 3.65186116419e-05
0.0125 -0.0085 5.34329175786e-05
0.0125 -0.0075 0.000110391737014
0.0125 -0.0065 0.000291652727434
0.0125 -0.0055 0.00104053503613
0.0125 -0.0045 0.00238696029357
0.0125 -0.0035 0.00239063922545
0.0125 -0.0025 0.0010393276231
0.0125 -0.0015 0.000282563789957
0.0125 -0.0005 0.000104029984099
0.0125 0.0005 4.83814413475e-05
0.0125 0.0015 3.06980905532e-05
0.0125 0.0025 2.55747327283e-05
0.0125 0.0035 2.74057261285e-05
0.0125 0.0045 3.62735328836e-05
0.0125 0.0055 6.03243288615e-05
0.0125 0.0065 0.000154460215816
0.0125 0.0075 0.000476960481892
0.0125 0.0085 0.00153323260532
0.0125 0.0095 0.00435035036647
0.0125 0.0105 0.00881022123881
0.0125 0.0115 0.0119861060288
0.0125 0.0125 0.0115267860362
0.0125 0.0135 0.00829062019198
0.0125 0.0145 0.00601851806187
0.0125 0.0155 0.00637316120598
0.0125 0.0165 0.00731650441409
0.0125 0.0175 0.00842043922995
0.0125 0.0185 0.00871265111675
0.0125 0.0195 0.00738034539628
0.0125 0.0205 0.00476320040514
0.0125 0.0215 0.00217536944011
0.0125 0.0225 0.000705695323478
0.0125 0.0235 0.000217919807864
0.0125 0.0245 8.90369202015e-05
0.0125 0.0255 4.18738418818e-05
0.0125 0.0265 2.22744349334e-05
0.0125 0.0275 1.29649004438e-05
0.0125 0.0285 8.67398564453e-06
0.0125 0.0295 6.5664537246e-06
0.0125 0.0305 6.77019223126e-06
0.0125 0.0315 3.95413095148e-06
0.0135 -0.0315 3.4879809955e-06
0.0135 -0.0305 6.59274589605e-06
0.0135 -0.0295 7.46837989178e-06
0.0135 -0.0285 1.0011588073e-05
0.0135 -0.0275 1.49042598549e-05
0.0135 -0.0265 2.65718709274e-05
0.0135 -0.0255 5.82669076585e-05
0.0135 -0.0245 0.00015328230065
0.0135 -0.0235 0.000436840502325
0.0135 -0.0225 0.00125322961139
0.0135 -0.0215 0.00352433722602
0.0135 -0.0205 0.00758129121864
0.0135 -0.0195 0.0107958908387
0.0135 -0.0185 0.00981194440681
0.0135 -0.0175 0.00559043283416
0.0135 -0.0165 0.00210712293895
0.0135 -0.0155 0.000711282538973
0.0135 -0.0145 0.000271755374274
0.0135 -0.0135 0.000118054020042
0.0135 -0.0125 6.31764729545e-05
0.0135 -0.0115 4.12024550041e-05
0.0135 -0.0105 3.35943977219e-05
0.0135 -0.0095 3.64183471424e-05
0.0135 -0.0085 5.41086205003e-05
0.0135 -0.0075 0.000112110782379
0.0135 -0.0065 0.000291757749932
0.0135 -0.0055 0.00106100567907
0.0135 -0.0045 0.00248918853672
0.0135 -0.0035 0.00246422510596
0.0135 -0.0025 0.00102548053316
0.0135 -0.0015 0.000274107905161
0.0135 -0.0005 0.000101404715632
0.0135 0.0005 4.70308940753e-05
0.0135 0.0015 3.05333863709e-05
0.0135 0.0025 2.74140202625e-05
0.0135 0.0035 3.24460645536e-05
0.0135 0.0045 4.63217379547e-05
0.0135 0.0055 7.67403382794e-05
0.0135 0.0065 0.000187327420895
0.0135 0.0075 0.000566351947761
0.0135 0.0085 0.00176525694379
0.0135 0.0095 0.00467842136392
0.0135 0.0105 0.00877872556959
0.0135 0.0115 0.0111588996257
0.0135 0.0125 0.00983035898524
0.0135 0.0135 0.00594379251077
0.0135 0.0145 0.00342891198709
0.0135 0.0155 0.00316671360737
0.0135 0.0165 0.00360822869325
0.0135 0.0175 0.00525203558784
0.0135 0.0185 0.00745069589164
0.0135 0.0195 0.00871800471821
0.0135 0.0205 0.00743743581852
0.0135 0.0215 0.00411905527282
0.0135 0.0225 0.00146193420032
0.0135 0.0235 0.000462825063638
0.0135 0.0245 0.000176003272642
0.0135 0.0255 8.00768424123e-05
0.0135 0.0265 3.69912663913e-05
0.0135 0.0275 1.8264983818e-05
0.0135 0.0285 1.06482239155e-05
0.0135 0.0295 7.29470111569e-06
0.0135 0.0305 6.87564401027e-06
0.0135 0.0315 3.86886630097e-06
0.0145 -0.0315 3.70879518726e-06
0.0145 -0.0305 7.12730279961e-06
0.0145 -0.0295 8.512946119e-06
0.0145 -0.0285 1.23683032422e-05
0.0145 -0.0275 2.02665047283e-05
0.0145 -0.0265 3.93232074762e-05
0.0145 -0.0255 9.32763072697e-05
0.0145 -0.0245 0.000285206295464
0.0145 -0.0235 0.000796213984375
0.0145 -0.0225 0.00210345797265
0.0145 -0.0215 0.00497760350087
0.0145 -0.0205 0.00875220940194
0.0145 -0.0195 0.0105168239882
0.0145 -0.0185 0.00826227054041
0.0145 -0.0175 0.00415653533809
0.0145 -0.0165 0.00149719383042
0.0145 -0.0155 0.000534355848329
0.0145 -0.0145 0.000221410762242
0.0145 -0.0135 0.000111590783642
0.0145 -0.0125 6.34180876235e-05
0.0145 -0.0115 4.24875594383e-05
0.0145 -0.0105 3.52207969529e-05
0.0145 -0.0095 3.83588438546e-05
0.0145 -0.0085 5.67007276364e-05
0.0145 -0.0075 0.000115337601882
0.0145 -0.0065 0.000293981804862
0.0145 -0.0055 0.00107939084009
0.0145 -0.0045 0.00254686396145
0.0145 -0.0035 0.00248785002761
0.0145 -0.0025 0.00100070243266
0.0145 -0.0015 0.00026367903728
0.0145 -0.0005 9.93914856202e-05
0.0145 0.0005 4.78470308932e-05