% Model:              Benchmark260518.mph
% Version:            COMSOL 6.2.0.339
% Date:               May 19 2026, 11:55
% Dimension:          2
% Nodes:              4096
% Expressions:        1
% Description:        速度大小
% Length unit:        m
% x                       y                        spf.U (m/s)
% mirrored_by_python_y_to_minus_y, coord_match_decimals=12
0.0005 -0.0315 1.39274968059e-06
0.0005 -0.0305 7.21951668281e-06
0.0005 -0.0295 3.27041418858e-05
0.0005 -0.0285 0.000139687722966
0.0005 -0.0275 0.000561789654599
0.0005 -0.0265 0.000647185063731
0.0005 -0.0255 0.0181162748342
0.0005 -0.0245 0.047858766192
0.0005 -0.0235 0.0610244304827
0.0005 -0.0225 0.0362321508271
0.0005 -0.0215 0.00443914982962
0.0005 -0.0205 0.00189462780235
0.0005 -0.0195 0.000764913911
0.0005 -0.0185 0.000475940000197
0.0005 -0.0175 0.000294088713178
0.0005 -0.0165 0.000196574043544
0.0005 -0.0155 0.000253187214668
0.0005 -0.0145 0.000468235529362
0.0005 -0.0135 0.000881697390438
0.0005 -0.0125 0.00135054709766
0.0005 -0.0115 0.00142409097892
0.0005 -0.0105 0.000855849574333
0.0005 -0.0095 0.00146067338395
0.0005 -0.0085 0.0032077852723
0.0005 -0.0075 0.00501557306433
0.0005 -0.0065 0.0066073969483
0.0005 -0.0055 0.0077823466015
0.0005 -0.0045 0.00839398419807
0.0005 -0.0035 0.00838568740589
0.0005 -0.0025 0.00777684691681
0.0005 -0.0015 0.00665240743163
0.0005 -0.0005 0.00518424981033
0.0005 0.0005 0.00361052993887
0.0005 0.0015 0.00219643221718
0.0005 0.0025 0.00118221090474
0.0005 0.0035 0.000691889815315
0.0005 0.0045 0.000517013779696
0.0005 0.0055 0.000349788977535
0.0005 0.0065 0.000162165836097
0.0005 0.0075 5.43253046197e-05
0.0005 0.0085 2.28177445928e-05
0.0005 0.0095 1.26895243416e-05
0.0005 0.0105 9.18283973365e-06
0.0005 0.0115 7.61249104239e-06
0.0005 0.0125 6.7578541569e-06
0.0005 0.0135 6.32406431533e-06
0.0005 0.0145 6.07550930917e-06
0.0005 0.0155 5.9275948087e-06
0.0005 0.0165 5.82084870067e-06
0.0005 0.0175 5.7377597743e-06
0.0005 0.0185 5.66156361554e-06
0.0005 0.0195 5.58855871487e-06
0.0005 0.0205 5.51424396631e-06
0.0005 0.0215 5.42941855601e-06
0.0005 0.0225 5.32654281048e-06
0.0005 0.0235 5.20390948754e-06
0.0005 0.0245 5.05736239908e-06
0.0005 0.0255 4.88957395296e-06
0.0005 0.0265 4.68789360357e-06
0.0005 0.0275 4.44510138079e-06
0.0005 0.0285 4.16343771578e-06
0.0005 0.0295 3.69499010968e-06
0.0005 0.0305 3.2566137289e-06
0.0005 0.0315 1.60135687085e-06
0.0015 -0.0315 2.64161063458e-06
0.0015 -0.0305 1.50276002842e-05
0.0015 -0.0295 6.96731735665e-05
0.0015 -0.0285 0.000314927930914
0.0015 -0.0275 0.00116093210898
0.0015 -0.0265 0.000881326551216
0.0015 -0.0255 0.0154447530789
0.0015 -0.0245 0.0432003544145
0.0015 -0.0235 0.0595538361727
0.0015 -0.0225 0.0452438955386
0.0015 -0.0215 0.0137090449667
0.0015 -0.0205 0.00276619308151
0.0015 -0.0195 0.0020669562107
0.0015 -0.0185 0.00117944285485
0.0015 -0.0175 0.000787370174239
0.0015 -0.0165 0.000653732819166
0.0015 -0.0155 0.000865023748318
0.0015 -0.0145 0.0014426260646
0.0015 -0.0135 0.00215300542834
0.0015 -0.0125 0.00214611650139
0.0015 -0.0115 0.00126797119504
0.0015 -0.0105 0.00412663735476
0.0015 -0.0095 0.00824213482326
0.0015 -0.0085 0.0121496693421
0.0015 -0.0075 0.0155022668788
0.0015 -0.0065 0.0181776701277
0.0015 -0.0055 0.0200664276345
0.0015 -0.0045 0.0210707633185
0.0015 -0.0035 0.0211467415717
0.0015 -0.0025 0.0202846066605
0.0015 -0.0015 0.0184969208648
0.0015 -0.0005 0.0158677490613
0.0015 0.0005 0.0125918624482
0.0015 0.0015 0.00900542717998
0.0015 0.0025 0.00560570632635
0.0015 0.0035 0.0029756116689
0.0015 0.0045 0.00148458501648
0.0015 0.0055 0.000770150569528
0.0015 0.0065 0.000332511513137
0.0015 0.0075 0.000109793908841
0.0015 0.0085 4.62015888564e-05
0.0015 0.0095 2.45133626059e-05
0.0015 0.0105 1.60135973875e-05
0.0015 0.0115 1.22878177703e-05
0.0015 0.0125 1.04988012877e-05
0.0015 0.0135 9.63551834172e-06
0.0015 0.0145 9.19299734607e-06
0.0015 0.0155 8.95849630425e-06
0.0015 0.0165 8.81883011181e-06
0.0015 0.0175 8.73118872935e-06
0.0015 0.0185 8.66828422951e-06
0.0015 0.0195 8.61898095218e-06
0.0015 0.0205 8.5731988673e-06
0.0015 0.0215 8.51716012134e-06
0.0015 0.0225 8.4402859036e-06
0.0015 0.0235 8.34027349354e-06
0.0015 0.0245 8.21657505006e-06
0.0015 0.0255 8.07574746912e-06
0.0015 0.0265 7.91147930091e-06
0.0015 0.0275 7.71215509021e-06
0.0015 0.0285 7.47578871605e-06
0.0015 0.0295 6.91390870065e-06
0.0015 0.0305 6.29615247922e-06
0.0015 0.0315 3.12407195806e-06
0.0025 -0.0315 2.47683405276e-06
0.0025 -0.0305 1.64462568564e-05
0.0025 -0.0295 7.99140602792e-05
0.0025 -0.0285 0.000377912010574
0.0025 -0.0275 0.00129828758157
0.0025 -0.0265 0.000313085995175
0.0025 -0.0255 0.0114002746506
0.0025 -0.0245 0.0368802851592
0.0025 -0.0235 0.0564784870207
0.0025 -0.0225 0.0510538815424
0.0025 -0.0215 0.0251675174042
0.0025 -0.0205 0.00284495278883
0.0025 -0.0195 0.00332578879641
0.0025 -0.0185 0.00235844723604
0.0025 -0.0175 0.00206547371415
0.0025 -0.0165 0.00226298305393
0.0025 -0.0155 0.0027438457107
0.0025 -0.0145 0.00300818849422
0.0025 -0.0135 0.00191147461198
0.0025 -0.0125 0.00249982971042
0.0025 -0.0115 0.00819617513114
0.0025 -0.0105 0.0142364527381
0.0025 -0.0095 0.0190044854546
0.0025 -0.0085 0.0222275180364
0.0025 -0.0075 0.0241998410463
0.0025 -0.0065 0.0253281874076
0.0025 -0.0055 0.0259334701244
0.0025 -0.0045 0.0261918852954
0.0025 -0.0035 0.0261416934361
0.0025 -0.0025 0.0257345474816
0.0025 -0.0015 0.0248554497069
0.0025 -0.0005 0.0233045128796
0.0025 0.0005 0.020846770762
0.0025 0.0015 0.0172827489469
0.0025 0.0025 0.0126715646941
0.0025 0.0035 0.00769909092876
0.0025 0.0045 0.00369740932397
0.0025 0.0055 0.00147130582512
0.0025 0.0065 0.000519880343705
0.0025 0.0075 0.000169119776164
0.0025 0.0085 7.40534394699e-05
0.0025 0.0095 3.43292626592e-05
0.0025 0.0105 1.80230481211e-05
0.0025 0.0115 1.13691731926e-05
0.0025 0.0125 8.46228202831e-06
0.0025 0.0135 7.14813443472e-06
0.0025 0.0145 6.55165487331e-06
0.0025 0.0155 6.2890085852e-06
0.0025 0.0165 6.19421783783e-06
0.0025 0.0175 6.19245000324e-06
0.0025 0.0185 6.24787919675e-06
0.0025 0.0195 6.33790631092e-06
0.0025 0.0205 6.44490892829e-06
0.0025 0.0215 6.55445777953e-06
0.0025 0.0225 6.65788170097e-06
0.0025 0.0235 6.75473594385e-06
0.0025 0.0245 6.85301949597e-06
0.0025 0.0255 6.96021379774e-06
0.0025 0.0265 7.0804951317e-06
0.0025 0.0275 7.18108685388e-06
0.0025 0.0285 7.21604152806e-06
0.0025 0.0295 6.82791139799e-06
0.0025 0.0305 6.33496090086e-06
0.0025 0.0315 3.18690001486e-06
0.0035 -0.0315 2.30772844983e-06
0.0035 -0.0305 1.39807336566e-05
0.0035 -0.0295 7.08675646813e-05
0.0035 -0.0285 0.000333661328502
0.0035 -0.0275 0.00117099884579
0.0035 -0.0265 0.000833191833248
0.0035 -0.0255 0.00671556174194
0.0035 -0.0245 0.0289561692041
0.0035 -0.0235 0.0514154480979
0.0035 -0.0225 0.0541886478569
0.0035 -0.0215 0.0373350910936
0.0035 -0.0205 0.0129760347217
0.0035 -0.0195 0.00193756951105
0.0035 -0.0185 0.00427301246379
0.0035 -0.0175 0.0047118948451
0.0035 -0.0165 0.00500928887291
0.0035 -0.0155 0.00435779408164
0.0035 -0.0145 0.00219759140702
0.0035 -0.0135 0.0051196363793
0.0035 -0.0125 0.0123367794669
0.0035 -0.0115 0.0193581629557
0.0035 -0.0105 0.024304998002
0.0035 -0.0095 0.0269061366478
0.0035 -0.0085 0.0277059474103
0.0035 -0.0075 0.0274373261803
0.0035 -0.0065 0.0267226041697
0.0035 -0.0055 0.0260220981817
0.0035 -0.0045 0.0255643109027
0.0035 -0.0035 0.0253815067127
0.0035 -0.0025 0.0253796731142
0.0035 -0.0015 0.0253803578643
0.0035 -0.0005 0.0251345597138
0.0035 0.0005 0.0243299731118
0.0035 0.0015 0.0225469476752
0.0035 0.0025 0.0192293284251
0.0035 0.0035 0.0141547651099
0.0035 0.0045 0.00827579946427
0.0035 0.0055 0.00358022706135
0.0035 0.0065 0.00122441620725
0.0035 0.0075 0.000452632558513
0.0035 0.0085 0.000179753595679
0.0035 0.0095 6.66785230574e-05
0.0035 0.0105 3.03726634388e-05
0.0035 0.0115 1.66757255488e-05
0.0035 0.0125 1.1019780383e-05
0.0035 0.0135 8.46462430725e-06
0.0035 0.0145 7.28493849046e-06
0.0035 0.0155 6.74448325529e-06
0.0035 0.0165 6.52443023362e-06
0.0035 0.0175 6.48363538779e-06
0.0035 0.0185 6.55053838853e-06
0.0035 0.0195 6.6771364189e-06
0.0035 0.0205 6.82655361325e-06
0.0035 0.0215 6.97343218459e-06
0.0035 0.0225 7.10812125993e-06
0.0035 0.0235 7.23658254915e-06
0.0035 0.0245 7.37161676765e-06
0.0035 0.0255 7.51749803395e-06
0.0035 0.0265 7.65876579533e-06
0.0035 0.0275 7.72018259671e-06
0.0035 0.0285 7.61134599343e-06
0.0035 0.0295 6.9556247644e-06
0.0035 0.0305 6.4071075947e-06
0.0035 0.0315 3.2880791213e-06
0.0045 -0.0315 2.34938441922e-06
0.0045 -0.0305 1.16265339586e-05
0.0045 -0.0295 5.60302355597e-05
0.0045 -0.0285 0.000243559966082
0.0045 -0.0275 0.000842939722355
0.0045 -0.0265 0.00112277453273
0.0045 -0.0255 0.00251148481466
0.0045 -0.0245 0.0200732903831
0.0045 -0.0235 0.0438028693096
0.0045 -0.0225 0.0536089653575
0.0045 -0.0215 0.0463995490234
0.0045 -0.0205 0.0276220563963
0.0045 -0.0195 0.00902388463031
0.0045 -0.0185 0.00194914253644
0.0045 -0.0175 0.00349487305209
0.0045 -0.0165 0.00261405470765
0.0045 -0.0155 0.00296648890808
0.0045 -0.0145 0.00925508873457
0.0045 -0.0135 0.0171757242763
0.0045 -0.0125 0.0240288401257
0.0045 -0.0115 0.0283168618319
0.0045 -0.0105 0.0297765479703
0.0045 -0.0095 0.0289921449067
0.0045 -0.0085 0.0268136832184
0.0045 -0.0075 0.0241189387124
0.0045 -0.0065 0.0216693058858
0.0045 -0.0055 0.0199511416676
0.0045 -0.0045 0.0191341682653
0.0045 -0.0035 0.0191982744819
0.0045 -0.0025 0.0199971636091
0.0045 -0.0015 0.0212810020396
0.0045 -0.0005 0.0227090856235
0.0045 0.0005 0.0238275698859
0.0045 0.0015 0.0241643982132
0.0045 0.0025 0.0232059849449
0.0045 0.0035 0.0200991269742
0.0045 0.0045 0.0144102938306
0.0045 0.0055 0.00772499970807
0.0045 0.0065 0.00305474457201
0.0045 0.0075 0.00113707110819
0.0045 0.0085 0.000448285306939
0.0045 0.0095 0.000153304937203
0.0045 0.0105 5.81902463789e-05
0.0045 0.0115 2.83063155128e-05
0.0045 0.0125 1.67973003097e-05
0.0045 0.0135 1.1842963256e-05
0.0045 0.0145 9.44970917996e-06
0.0045 0.0155 8.2117702028e-06
0.0045 0.0165 7.57634648125e-06
0.0045 0.0175 7.30015195492e-06
0.0045 0.0185 7.23913115836e-06
0.0045 0.0195 7.29392151333e-06
0.0045 0.0205 7.39127036128e-06
0.0045 0.0215 7.48824496871e-06
0.0045 0.0225 7.57737082045e-06
0.0045 0.0235 7.67336320926e-06
0.0045 0.0245 7.7878029783e-06
0.0045 0.0255 7.90713517798e-06
0.0045 0.0265 7.98438764767e-06
0.0045 0.0275 7.911009989e-06
0.0045 0.0285 7.60747372986e-06
0.0045 0.0295 6.79466494042e-06
0.0045 0.0305 6.33558975055e-06
0.0045 0.0315 3.32491456736e-06
0.0055 -0.0315 2.56144031504e-06
0.0055 -0.0305 1.17001248224e-05
0.0055 -0.0295 4.68636815288e-05
0.0055 -0.0285 0.000164584681786
0.0055 -0.0275 0.000524019044575
0.0055 -0.0265 0.00112111813743
0.0055 -0.0255 0.000389276327488
0.0055 -0.0245 0.0113837570484
0.0055 -0.0235 0.0335025939658
0.0055 -0.0225 0.0490650273236
0.0055 -0.0215 0.0501815417542
0.0055 -0.0205 0.040097806779
0.0055 -0.0195 0.0246668995554
0.0055 -0.0185 0.0122678116778
0.0055 -0.0175 0.00744689952694
0.0055 -0.0165 0.00953648839367
0.0055 -0.0155 0.0156014393124
0.0055 -0.0145 0.0227013969575
0.0055 -0.0135 0.0284649864038
0.0055 -0.0125 0.0314472469241
0.0055 -0.0115 0.0313418311238
0.0055 -0.0105 0.0286745176415
0.0055 -0.0095 0.0243954611345
0.0055 -0.0085 0.0196139858186
0.0055 -0.0075 0.0153592589723
0.0055 -0.0065 0.0122299025763
0.0055 -0.0055 0.0103634422623
0.0055 -0.0045 0.00963928360007
0.0055 -0.0035 0.00992681117957
0.0055 -0.0025 0.0111885642803
0.0055 -0.0015 0.0134063057883
0.0055 -0.0005 0.0164292441116
0.0055 0.0005 0.0197788946786
0.0055 0.0015 0.022665995554
0.0055 0.0025 0.0243219604063
0.0055 0.0035 0.0239290457573
0.0055 0.0045 0.0202935306987
0.0055 0.0055 0.0134989086016
0.0055 0.0065 0.00661402870978
0.0055 0.0075 0.00257296394706
0.0055 0.0085 0.000993200393166
0.0055 0.0095 0.000376646557057
0.0055 0.0105 0.000133999117585
0.0055 0.0115 5.6079437845e-05
0.0055 0.0125 3.10751914681e-05
0.0055 0.0135 2.07366432831e-05
0.0055 0.0145 1.56185806075e-05
0.0055 0.0155 1.2587497532e-05
0.0055 0.0165 1.07198706432e-05
0.0055 0.0175 9.61390123844e-06
0.0055 0.0185 9.00013169357e-06
0.0055 0.0195 8.6716907374e-06
0.0055 0.0205 8.47355148696e-06
0.0055 0.0215 8.33113865865e-06
0.0055 0.0225 8.24058119052e-06
0.0055 0.0235 8.21383840571e-06
0.0055 0.0245 8.23917750795e-06
0.0055 0.0255 8.26640329486e-06
0.0055 0.0265 8.21662961309e-06
0.0055 0.0275 7.97906097916e-06
0.0055 0.0285 7.52659695111e-06
0.0055 0.0295 6.65107996855e-06
0.0055 0.0305 6.28287620514e-06
0.0055 0.0315 3.34412221206e-06
0.0065 -0.0315 2.82622403605e-06
0.0065 -0.0305 1.13865562563e-05
0.0065 -0.0295 3.51680365349e-05
0.0065 -0.0285 0.000105127415399
0.0065 -0.0275 0.00031919657074
0.0065 -0.0265 0.000944041434494
0.0065 -0.0255 0.00131177880077
0.0065 -0.0245 0.00415231313428
0.0065 -0.0235 0.0214971494728
0.0065 -0.0225 0.0405089719814
0.0065 -0.0215 0.0482937214209
0.0065 -0.0205 0.0456653532824
0.0065 -0.0195 0.0369198688669
0.0065 -0.0185 0.0274423635772
0.0065 -0.0175 0.0227170042091
0.0065 -0.0165 0.0240698087153
0.0065 -0.0155 0.0284283095952
0.0065 -0.0145 0.0322998617713
0.0065 -0.0135 0.0336158261543
0.0065 -0.0125 0.0317574735561
0.0065 -0.0115 0.027141042376
0.0065 -0.0105 0.020948338787
0.0065 -0.0095 0.0147258345182
0.0065 -0.0085 0.00972416296337
0.0065 -0.0075 0.00638510289156
0.0065 -0.0065 0.00443903371585
0.0065 -0.0055 0.00346989523746
0.0065 -0.0045 0.00316226602116
0.0065 -0.0035 0.00338912843197
0.0065 -0.0025 0.00423593902616
0.0065 -0.0015 0.00597326539214
0.0065 -0.0005 0.00895538965458
0.0065 0.0005 0.0132614730586
0.0065 0.0015 0.0182465110093
0.0065 0.0025 0.0226241184191
0.0065 0.0035 0.0250924904295
0.0065 0.0045 0.0243197123105
0.0065 0.0055 0.0193935037078
0.0065 0.0065 0.0118956655282
0.0065 0.0075 0.00550521320544
0.0065 0.0085 0.00214027742939
0.0065 0.0095 0.000846511581622
0.0065 0.0105 0.000335547231436
0.0065 0.0115 0.000134292161061
0.0065 0.0125 6.8287306396e-05
0.0065 0.0135 4.62158116325e-05
0.0065 0.0145 3.31559971703e-05
0.0065 0.0155 2.45790143152e-05
0.0065 0.0165 1.90870463239e-05
0.0065 0.0175 1.53494266231e-05
0.0065 0.0185 1.29231466871e-05
0.0065 0.0195 1.13787859764e-05
0.0065 0.0205 1.03048550589e-05
0.0065 0.0215 9.5372606404e-06
0.0065 0.0225 9.03596425814e-06
0.0065 0.0235 8.7587341005e-06
0.0065 0.0245 8.61859409307e-06
0.0065 0.0255 8.5016447863e-06
0.0065 0.0265 8.30307908616e-06
0.0065 0.0275 7.92920026952e-06
0.0065 0.0285 7.39614546048e-06
0.0065 0.0295 6.52057800274e-06
0.0065 0.0305 6.25896840525e-06
0.0065 0.0315 3.37389527694e-06
0.0075 -0.0315 2.86597529694e-06
0.0075 -0.0305 9.94756978566e-06
0.0075 -0.0295 2.50517960188e-05
0.0075 -0.0285 6.91506384152e-05
0.0075 -0.0275 0.000202326774593
0.0075 -0.0265 0.000635651873201
0.0075 -0.0255 0.00133590843114
0.0075 -0.0245 0.000417542696701
0.0075 -0.0235 0.0103262609131
0.0075 -0.0225 0.0286375929276
0.0075 -0.0215 0.0413267874346
0.0075 -0.0205 0.0440865483191
0.0075 -0.0195 0.0404941697074
0.0075 -0.0185 0.0350170174669
0.0075 -0.0175 0.0319678890772
0.0075 -0.0165 0.032604148951
0.0075 -0.0155 0.0342602420749
0.0075 -0.0145 0.0339683256611
0.0075 -0.0135 0.0305007382571
0.0075 -0.0125 0.0242961637012
0.0075 -0.0115 0.0169929218518
0.0075 -0.0105 0.0105022645914
0.0075 -0.0095 0.00593002432731
0.0075 -0.0085 0.00325425071627
0.0075 -0.0075 0.00186794723946
0.0075 -0.0065 0.00119727493328
0.0075 -0.0055 0.000892584116267
0.0075 -0.0045 0.00079236135417
0.0075 -0.0035 0.000860300853792
0.0075 -0.0025 0.00116193217922
0.0075 -0.0015 0.00192477317645
0.0075 -0.0005 0.00363819529163
0.0075 0.0005 0.00698913898439
0.0075 0.0015 0.0122041874439
0.0075 0.0025 0.0183242527118
0.0075 0.0035 0.0234692862856
0.0075 0.0045 0.0257725208725
0.0075 0.0055 0.0238445418066
0.0075 0.0065 0.0178232724799
0.0075 0.0075 0.0103269386808
0.0075 0.0085 0.00464900350767
0.0075 0.0095 0.00184726022917
0.0075 0.0105 0.000786828638006
0.0075 0.0115 0.000370618654561
0.0075 0.0125 0.000206821271543
0.0075 0.0135 0.000132488436799
0.0075 0.0145 8.61315265339e-05
0.0075 0.0155 6.21972878657e-05
0.0075 0.0165 4.31829563431e-05
0.0075 0.0175 3.00955081419e-05
0.0075 0.0185 2.24412193287e-05
0.0075 0.0195 1.75217672305e-05
0.0075 0.0205 1.4095874259e-05
0.0075 0.0215 1.17566026413e-05
0.0075 0.0225 1.03131745058e-05
0.0075 0.0235 9.50787751764e-06
0.0075 0.0245 9.04950386864e-06
0.0075 0.0255 8.70510816286e-06
0.0075 0.0265 8.33372521439e-06
0.0075 0.0275 7.84763179821e-06
0.0075 0.0285 7.27676309016e-06
0.0075 0.0295 6.43172068544e-06
0.0075 0.0305 6.27211117e-06
0.0075 0.0315 3.41704109286e-06
0.0085 -0.0315 2.6926065829e-06
0.0085 -0.0305 8.51461044584e-06
0.0085 -0.0295 1.97968316098e-05
0.0085 -0.0285 4.73449910627e-05
0.0085 -0.0275 0.000124421734012
0.0085 -0.0265 0.000361773359962
0.0085 -0.0255 0.000993022257608
0.0085 -0.0245 0.00172744777192
0.0085 -0.0235 0.00269780108487
0.0085 -0.0225 0.0162327367486
0.0085 -0.0215 0.0306559407273
0.0085 -0.0205 0.036890415342
0.0085 -0.0195 0.0363117235396
0.0085 -0.0185 0.0332978100281
0.0085 -0.0175 0.0316619068866
0.0085 -0.0165 0.0317695565466
0.0085 -0.0155 0.0306875261843
0.0085 -0.0145 0.0264161615856
0.0085 -0.0135 0.019660592771
0.0085 -0.0125 0.0126187443111
0.0085 -0.0115 0.00709239811535
0.0085 -0.0105 0.00365067706004
0.0085 -0.0095 0.00186503832418
0.0085 -0.0085 0.00100884987031
0.0085 -0.0075 0.000583965161334
0.0085 -0.0065 0.000377077359459
0.0085 -0.0055 0.000281735354671
0.0085 -0.0045 0.000252948286611
0.0085 -0.0035 0.000275367108069
0.0085 -0.0025 0.000368314590259
0.0085 -0.0015 0.000619443107052
0.0085 -0.0005 0.00127696388005
0.0085 0.0005 0.00298464550904
0.0085 0.0015 0.00670835615854
0.0085 0.0025 0.0126535692935
0.0085 0.0035 0.0193752223278
0.0085 0.0045 0.0244707892633
0.0085 0.0055 0.0258499754396
0.0085 0.0065 0.0227275206658
0.0085 0.0075 0.01621078886
0.0085 0.0085 0.00912611940104
0.0085 0.0095 0.0041740168979
0.0085 0.0105 0.00182775362428
0.0085 0.0115 0.000969803247061
0.0085 0.0125 0.000641145501725
0.0085 0.0135 0.00044664932891
0.0085 0.0145 0.000310424270014
0.0085 0.0155 0.000204286161802
0.0085 0.0165 0.000116715130085
0.0085 0.0175 7.24645687173e-05
0.0085 0.0185 4.84053537878e-05
0.0085 0.0195 3.34551150962e-05
0.0085 0.0205 2.32228701588e-05
0.0085 0.0215 1.66261311675e-05
0.0085 0.0225 1.28900083119e-05
0.0085 0.0235 1.08970299466e-05
0.0085 0.0245 9.76346998841e-06
0.0085 0.0255 9.00953168393e-06
0.0085 0.0265 8.39479727107e-06
0.0085 0.0275 7.79168667519e-06
0.0085 0.0285 7.20112699504e-06
0.0085 0.0295 6.39770461201e-06
0.0085 0.0305 6.3239554162e-06
0.0085 0.0315 3.47361120812e-06
0.0095 -0.0315 2.50208826231e-06
0.0095 -0.0305 7.38154250398e-06
0.0095 -0.0295 1.54595704416e-05
0.0095 -0.0285 3.10068802565e-05
0.0095 -0.0275 7.00650067532e-05
0.0095 -0.0265 0.000206482179541
0.0095 -0.0255 0.000725134877319
0.0095 -0.0245 0.00185468316277
0.0095 -0.0235 0.0011538448799
0.0095 -0.0225 0.00730504292723
0.0095 -0.0215 0.0196115639434
0.0095 -0.0205 0.0264890311955
0.0095 -0.0195 0.026765404035
0.0095 -0.0185 0.0244074205682
0.0095 -0.0175 0.0230130337149
0.0095 -0.0165 0.021926849165
0.0095 -0.0155 0.0186269886019
0.0095 -0.0145 0.0133327427049
0.0095 -0.0135 0.00811358954394
0.0095 -0.0125 0.00438372077054
0.0095 -0.0115 0.00224651788838
0.0095 -0.0105 0.00119403779635
0.0095 -0.0095 0.000659137031837
0.0095 -0.0085 0.000340423934943
0.0095 -0.0075 0.000184461899163
0.0095 -0.0065 0.000132851150231
0.0095 -0.0055 0.000115676423991
0.0095 -0.0045 0.000112183629339
0.0095 -0.0035 0.000117724202753
0.0095 -0.0025 0.00014363508446
0.0095 -0.0015 0.000246938890814
0.0095 -0.0005 0.000524203914351
0.0095 0.0005 0.00121873895542
0.0095 0.0015 0.00311873662592
0.0095 0.0025 0.00735786088828
0.0095 0.0035 0.0138946955532
0.0095 0.0045 0.0207336154108
0.0095 0.0055 0.0250896604175
0.0095 0.0065 0.0252671614918
0.0095 0.0075 0.0213471827401
0.0095 0.0085 0.0149028783342
0.0095 0.0095 0.00860003019741
0.0095 0.0105 0.00448109579947
0.0095 0.0115 0.00261339722254
0.0095 0.0125 0.00190421836701
0.0095 0.0135 0.0015002470036
0.0095 0.0145 0.00112034364155
0.0095 0.0155 0.000719892314404
0.0095 0.0165 0.000379527670241
0.0095 0.0175 0.000202413151072
0.0095 0.0185 0.000130166235694
0.0095 0.0195 8.16507164138e-05
0.0095 0.0205 4.67665161662e-05
0.0095 0.0215 2.78672110797e-05
0.0095 0.0225 1.86441958915e-05
0.0095 0.0235 1.38540613857e-05
0.0095 0.0245 1.12411317516e-05
0.0095 0.0255 9.6715756178e-06
0.0095 0.0265 8.6332786287e-06
0.0095 0.0275 7.85085811323e-06
0.0095 0.0285 7.22531745458e-06
0.0095 0.0295 6.45207445292e-06
0.0095 0.0305 6.43451198045e-06
0.0095 0.0315 3.55220296116e-06
0.0105 -0.0315 2.38474927546e-06
0.0105 -0.0305 6.55594039492e-06
0.0105 -0.0295 1.26371401761e-05
0.0105 -0.0285 2.40289404741e-05
0.0105 -0.0275 4.82808175322e-05
0.0105 -0.0265 0.000136880579554
0.0105 -0.0255 0.000537612850528
0.0105 -0.0245 0.00177591815604
0.0105 -0.0235 0.00181398117548
0.0105 -0.0225 0.00478310935736
0.0105 -0.0215 0.0133474423653
0.0105 -0.0205 0.0179086835773
0.0105 -0.0195 0.0166218574236
0.0105 -0.0185 0.0127836586239
0.0105 -0.0175 0.0104984119225
0.0105 -0.0165 0.00901250256456
0.0105 -0.0155 0.00652745540172
0.0105 -0.0145 0.0040547225302
0.0105 -0.0135 0.00241360761079
0.0105 -0.0125 0.00142424241754
0.0105 -0.0115 0.000758466172262
0.0105 -0.0105 0.000384702006469
0.0105 -0.0095 0.000231175881378
0.0105 -0.0085 0.000141090799769
0.0105 -0.0075 8.80494857295e-05
0.0105 -0.0065 7.17485585467e-05
0.0105 -0.0055 6.72371064757e-05
0.0105 -0.0045 6.52379230487e-05
0.0105 -0.0035 6.47028284843e-05
0.0105 -0.0025 7.20822396843e-05
0.0105 -0.0015 0.000112164580456
0.0105 -0.0005 0.000237892910143
0.0105 0.0005 0.000553041404556
0.0105 0.0015 0.00136922496765
0.0105 0.0025 0.00364199798853
0.0105 0.0035 0.00849990009969
0.0105 0.0045 0.0154458135239
0.0105 0.0055 0.0218493542215
0.0105 0.0065 0.0249684498674
0.0105 0.0075 0.0240301259906
0.0105 0.0085 0.0198555723202
0.0105 0.0095 0.0142220547334
0.0105 0.0105 0.00943219481177
0.0105 0.0115 0.00671710701214
0.0105 0.0125 0.00551049555031
0.0105 0.0135 0.0046987738147
0.0105 0.0145 0.00370133684063
0.0105 0.0155 0.00248027306617
0.0105 0.0165 0.00138706510409
0.0105 0.0175 0.000764896552393
0.0105 0.0185 0.000466978680118
0.0105 0.0195 0.00024278762512
0.0105 0.0205 0.000108391276067
0.0105 0.0215 5.53644831833e-05
0.0105 0.0225 3.16547361893e-05
0.0105 0.0235 2.04598442459e-05
0.0105 0.0245 1.45416097418e-05
0.0105 0.0255 1.12488764445e-05
0.0105 0.0265 9.34495752921e-06
0.0105 0.0275 8.19182355799e-06
0.0105 0.0285 7.44828232891e-06
0.0105 0.0295 6.65195856077e-06
0.0105 0.0305 6.63628227712e-06
0.0105 0.0315 3.66512067753e-06
0.0115 -0.0315 2.35907063485e-06
0.0115 -0.0305 6.18711755311e-06
0.0115 -0.0295 1.15088388522e-05
0.0115 -0.0285 2.24121584431e-05
0.0115 -0.0275 4.74084562972e-05
0.0115 -0.0265 0.000125429108484
0.0115 -0.0255 0.000401987991347
0.0115 -0.0245 0.00140712923283
0.0115 -0.0235 0.00280410458221
0.0115 -0.0225 0.00820245960265
0.0115 -0.0215 0.0143350734118
0.0115 -0.0205 0.0158359059696
0.0115 -0.0195 0.0117987336964
0.0115 -0.0185 0.00579140962083
0.0115 -0.0175 0.00270319788384
0.0115 -0.0165 0.00201869737008
0.0115 -0.0155 0.00142912079675
0.0115 -0.0145 0.00103804303484
0.0115 -0.0135 0.000734388871022
0.0115 -0.0125 0.000463108902908
0.0115 -0.0115 0.000256877885554
0.0115 -0.0105 0.000143992059409
0.0115 -0.0095 0.000104189216567
0.0115 -0.0085 7.86152963032e-05
0.0115 -0.0075 5.81156146972e-05
0.0115 -0.0065 4.76576180403e-05
0.0115 -0.0055 4.36687795918e-05
0.0115 -0.0045 4.23045276028e-05
0.0115 -0.0035 4.33044878062e-05
0.0115 -0.0025 5.02125153592e-05
0.0115 -0.0015 7.04344446982e-05
0.0115 -0.0005 0.00012314118923
0.0115 0.0005 0.000262849606308
0.0115 0.0015 0.000628113300896
0.0115 0.0025 0.00164263192871
0.0115 0.0035 0.00443036953478
0.0115 0.0045 0.00993709696429
0.0115 0.0055 0.0169191706801
0.0115 0.0065 0.0222058733109
0.0115 0.0075 0.0237647958963
0.0115 0.0085 0.0219604393328
0.0115 0.0095 0.0182342559099
0.0115 0.0105 0.0146213199982
0.0115 0.0115 0.012671065421
0.0115 0.0125 0.0119491509684
0.0115 0.0135 0.011254682045
0.0115 0.0145 0.00986174797935
0.0115 0.0155 0.00755194551613
0.0115 0.0165 0.00482302820481
0.0115 0.0175 0.00268169314202
0.0115 0.0185 0.001454194864
0.0115 0.0195 0.000730445167356
0.0115 0.0205 0.000302792116718
0.0115 0.0215 0.000125984332136
0.0115 0.0225 6.36313639086e-05
0.0115 0.0235 3.58404866755e-05
0.0115 0.0245 2.2316893265e-05
0.0115 0.0255 1.50022071226e-05
0.0115 0.0265 1.11466786154e-05
0.0115 0.0275 9.14067647778e-06
0.0115 0.0285 8.04061017227e-06
0.0115 0.0295 7.08158135167e-06
0.0115 0.0305 6.96917176234e-06
0.0115 0.0315 3.82550913254e-06
0.0125 -0.0315 2.42558746798e-06
0.0125 -0.0305 6.19946387525e-06
0.0125 -0.0295 1.145725185e-05
0.0125 -0.0285 2.35073611182e-05
0.0125 -0.0275 5.36734202844e-05
0.0125 -0.0265 0.000152232686229
0.0125 -0.0255 0.000405821787635
0.0125 -0.0245 0.00145626855239
0.0125 -0.0235 0.00525570794716
0.0125 -0.0225 0.011741074705
0.0125 -0.0215 0.016021970573
0.0125 -0.0205 0.014719585691
0.0125 -0.0195 0.00876783197729
0.0125 -0.0185 0.0031334248851
0.0125 -0.0175 0.000941436080306
0.0125 -0.0165 0.000533958963216
0.0125 -0.0155 0.000345424442009
0.0125 -0.0145 0.000264058409741
0.0125 -0.0135 0.000205037795466
0.0125 -0.0125 0.000156720725874
0.0125 -0.0115 0.000113790168568
0.0125 -0.0105 7.9988902005e-05
0.0125 -0.0095 6.01296064575e-05
0.0125 -0.0085 4.79699946007e-05
0.0125 -0.0075 3.92063483214e-05
0.0125 -0.0065 3.35195194918e-05
0.0125 -0.0055 3.07779950838e-05
0.0125 -0.0045 3.02307330234e-05
0.0125 -0.0035 3.21959292358e-05
0.0125 -0.0025 3.86714927007e-05
0.0125 -0.0015 5.32281926368e-05
0.0125 -0.0005 8.19792051675e-05
0.0125 0.0005 0.000143066167215
0.0125 0.0015 0.000308084122249
0.0125 0.0025 0.000759696198117
0.0125 0.0035 0.00206593105252
0.0125 0.0045 0.00552549426056
0.0125 0.0055 0.0115695053635
0.0125 0.0065 0.0178335087072
0.0125 0.0075 0.0211657029077
0.0125 0.0085 0.0209588802853
0.0125 0.0095 0.0186785248461
0.0125 0.0105 0.0165865995045
0.0125 0.0115 0.0163243261513
0.0125 0.0125 0.0170573845335
0.0125 0.0135 0.0174722699178
0.0125 0.0145 0.0170178626661
0.0125 0.0155 0.0152397647225
0.0125 0.0165 0.0118767808328
0.0125 0.0175 0.00773534460614
0.0125 0.0185 0.00424483652254
0.0125 0.0195 0.00205000823934
0.0125 0.0205 0.000887289255447
0.0125 0.0215 0.000349659199748
0.0125 0.0225 0.00014825598269
0.0125 0.0235 7.76912861294e-05
0.0125 0.0245 4.13635605327e-05
0.0125 0.0255 2.36108023867e-05
0.0125 0.0265 1.53661034113e-05
0.0125 0.0275 1.13258464301e-05
0.0125 0.0285 9.28837548337e-06
0.0125 0.0295 7.85115567926e-06
0.0125 0.0305 7.47424545534e-06
0.0125 0.0315 4.04631326751e-06
0.0135 -0.0315 2.55784192024e-06
0.0135 -0.0305 6.4175371887e-06
0.0135 -0.0295 1.18712053589e-05
0.0135 -0.0285 2.54509912119e-05
0.0135 -0.0275 6.23169870212e-05
0.0135 -0.0265 0.000201917196085
0.0135 -0.0255 0.00065444416954
0.0135 -0.0245 0.00255628986369
0.0135 -0.0235 0.00763165346325
0.0135 -0.0225 0.0133908161352
0.0135 -0.0215 0.0148854295642
0.0135 -0.0205 0.010836562205
0.0135 -0.0195 0.0048518694067
0.0135 -0.0185 0.00137762266329
0.0135 -0.0175 0.000432182204672
0.0135 -0.0165 0.000218270796415
0.0135 -0.0155 0.000142470806871
0.0135 -0.0145 0.0001092017701
0.0135 -0.0135 9.04420762407e-05
0.0135 -0.0125 7.51348375499e-05
0.0135 -0.0115 6.12595435103e-05
0.0135 -0.0105 4.92551802508e-05
0.0135 -0.0095 3.99322237526e-05
0.0135 -0.0085 3.34792368348e-05
0.0135 -0.0075 2.91003279952e-05
0.0135 -0.0065 2.62638921601e-05
0.0135 -0.0055 2.48240269463e-05
0.0135 -0.0045 2.48379282373e-05
0.0135 -0.0035 2.68401087716e-05
0.0135 -0.0025 3.22988894868e-05
0.0135 -0.0015 4.38046013531e-05
0.0135 -0.0005 6.56921072055e-05
0.0135 0.0005 0.000107289527898
0.0135 0.0015 0.000202980286196
0.0135 0.0025 0.000412539117086
0.0135 0.0035 0.000975545849044
0.0135 0.0045 0.00279855484125
0.0135 0.0055 0.00717671466846
0.0135 0.0065 0.0131579104696
0.0135 0.0075 0.0173084628629
0.0135 0.0085 0.0178367787329
0.0135 0.0095 0.0158015059918
0.0135 0.0105 0.0140018116995
0.0135 0.0115 0.0143403792731
0.0135 0.0125 0.0154585442401
0.0135 0.0135 0.0165662047938
0.0135 0.0145 0.0179559772472
0.0135 0.0155 0.018985149915
0.0135 0.0165 0.0181909798866
0.0135 0.0175 0.0148673493492
0.0135 0.0185 0.010015223369
0.0135 0.0195 0.0054916257777
0.0135 0.0205 0.00249847409858
0.0135 0.0215 0.00104024898366
0.0135 0.0225 0.000459021279673
0.0135 0.0235 0.000208470142981
0.0135 0.0245 8.84750779657e-05
0.0135 0.0255 4.41319463707e-05
0.0135 0.0265 2.48921399251e-05
0.0135 0.0275 1.59926083635e-05
0.0135 0.0285 1.16499726154e-05
0.0135 0.0295 9.10919538159e-06
0.0135 0.0305 8.20998772644e-06
0.0135 0.0315 4.35220386827e-06
0.0145 -0.0315 2.73408341407e-06
0.0145 -0.0305 6.72208536235e-06
0.0145 -0.0295 1.23683220986e-05
0.0145 -0.0285 2.73764451449e-05
0.0145 -0.0275 7.1202801981e-05
0.0145 -0.0265 0.000256064115659
0.0145 -0.0255 0.000981192017355
0.0145 -0.0245 0.00376947824241
0.0145 -0.0235 0.00944395266111
0.0145 -0.0225 0.0138141761163
0.0145 -0.0215 0.0124875141317
0.0145 -0.0205 0.00706508463511
0.0145 -0.0195 0.00258438502237
0.0145 -0.0185 0.000837994513558
0.0145 -0.0175 0.000277880917373
0.0145 -0.0165 0.000135426328738
0.0145 -0.0155 8.73122995231e-05
0.0145 -0.0145 6.66049969124e-05
0.0145 -0.0135 5.55245391907e-05
0.0145 -0.0125 4.78686271658e-05
0.0145 -0.0115 4.13022544648e-05
0.0145 -0.0105 3.55678905796e-05
0.0145 -0.0095 3.09313537928e-05
0.0145 -0.0085 2.75119627154e-05
0.0145 -0.0075 2.51900350516e-05
0.0145 -0.0065 2.37836850815e-05
0.0145 -0.0055 2.32553001864e-05
0.0145 -0.0045 2.37874241908e-05
0.0145 -0.0035 2.58973854749e-05
0.0145 -0.0025 3.07306034635e-05
0.0145 -0.0015 4.06141351181e-05
0.0145 -0.0005 6.02455469024e-05
0.0145 0.0005 0.000100335600219
0.0145 0.0015 0.000178744339527
0.0145 0.0025 0.000304769294058
0.0145 0.0035 0.000576114973435
0.0145 0.0045 0.00153644425866
0.0145 0.0055 0.00455511155696