% Model:              Benchmark260518.mph
% Version:            COMSOL 6.2.0.339
% Date:               May 20 2026, 06:36
% Dimension:          2
% Nodes:              4096
% Expressions:        1
% Description:        速度大小
% Length unit:        m
% x                       y                        spf.U (m/s)
5.0E-4                    -0.0315                  9.099668966421889E-7
5.0E-4                    -0.0305                  1.7922695310780173E-6
5.0E-4                    -0.0295                  1.878814077083777E-6
5.0E-4                    -0.0285                  2.0227480116340333E-6
5.0E-4                    -0.0275                  2.156144340287298E-6
5.0E-4                    -0.0265                  2.2620347779167657E-6
5.0E-4                    -0.0255                  2.3520343322334407E-6
5.0E-4                    -0.0245                  2.457679525445168E-6
5.0E-4                    -0.0235                  2.536550787236005E-6
5.0E-4                    -0.0225                  2.550374757775537E-6
5.0E-4                    -0.0215                  2.5470154632125216E-6
5.0E-4                    -0.0205                  2.573080116784127E-6
5.0E-4                    -0.0195                  2.6178727393708787E-6
5.0E-4                    -0.0185                  2.679032809646573E-6
5.0E-4                    -0.0175                  2.7707931049311876E-6
5.0E-4                    -0.0165                  2.8386585545057865E-6
5.0E-4                    -0.0155                  2.833003200284836E-6
5.0E-4                    -0.0145                  2.795176411956079E-6
5.0E-4                    -0.0135                  2.7571193874866344E-6
5.0E-4                    -0.0125                  2.7117361602034634E-6
5.0E-4                    -0.0115                  2.65688572829322E-6
5.0E-4                    -0.0105                  2.5944652405845163E-6
5.0E-4                    -0.0095                  2.5234054659645173E-6
5.0E-4                    -0.0085                  2.459094137340394E-6
5.0E-4                    -0.0075                  2.3906331725906624E-6
5.0E-4                    -0.0065                  2.3461040177608896E-6
5.0E-4                    -0.0055                  2.3409231517349084E-6
5.0E-4                    -0.0045                  2.305024273359324E-6
5.0E-4                    -0.0035                  2.4064609000793778E-6
5.0E-4                    -0.0025                  3.015333668468468E-6
5.0E-4                    -0.0015                  4.656745527967619E-6
5.0E-4                    -5.0E-4                  8.46479210079288E-6
5.0E-4                    5.0E-4                   1.7365101379643728E-5
5.0E-4                    0.0015                   3.82190710882931E-5
5.0E-4                    0.0025                   6.352472598369117E-5
5.0E-4                    0.0035                   1.4018896126929853E-4
5.0E-4                    0.0045                   3.7734532774965187E-4
5.0E-4                    0.0055                   7.28613797767075E-4
5.0E-4                    0.0065                   0.001748352623644516
5.0E-4                    0.0075                   0.005806489436501931
5.0E-4                    0.0085                   0.03600457806712209
5.0E-4                    0.0095                   0.05647791166563625
5.0E-4                    0.0105                   0.0477345518874395
5.0E-4                    0.0115                   0.03189539444321064
5.0E-4                    0.0125                   0.015301834396573089
5.0E-4                    0.0135                   0.004610283646099698
5.0E-4                    0.0145                   8.079504567647359E-4
5.0E-4                    0.0155                   1.5403871537510847E-4
5.0E-4                    0.0165                   4.859613497112199E-5
5.0E-4                    0.0175                   2.1174445405971147E-5
5.0E-4                    0.0185                   1.218936181409855E-5
5.0E-4                    0.0195                   8.765727674884306E-6
5.0E-4                    0.0205                   7.252518960514547E-6
5.0E-4                    0.0215                   6.3992023633131446E-6
5.0E-4                    0.0225                   6.926453713418175E-6
5.0E-4                    0.0235                   6.002828302113708E-6
5.0E-4                    0.0245                   4.14466982413365E-6
5.0E-4                    0.0255                   4.51288445616215E-6
5.0E-4                    0.0265                   4.255674336978986E-6
5.0E-4                    0.0275                   4.0919079528727E-6
5.0E-4                    0.0285                   3.944354955633462E-6
5.0E-4                    0.0295                   3.576007586638487E-6
5.0E-4                    0.0305                   3.244202640935468E-6
5.0E-4                    0.0315                   1.6393452967260871E-6
0.0015                    -0.0315                  1.7852319594350394E-6
0.0015                    -0.0305                  3.528036618311992E-6
0.0015                    -0.0295                  3.6957312926570177E-6
0.0015                    -0.0285                  3.875135438273781E-6
0.0015                    -0.0275                  3.972905532176133E-6
0.0015                    -0.0265                  4.0499518187182675E-6
0.0015                    -0.0255                  4.114381198619997E-6
0.0015                    -0.0245                  4.1992354104866E-6
0.0015                    -0.0235                  4.259644239897108E-6
0.0015                    -0.0225                  4.258337991287522E-6
0.0015                    -0.0215                  4.244366780425989E-6
0.0015                    -0.0205                  4.266281956008641E-6
0.0015                    -0.0195                  4.31557878666158E-6
0.0015                    -0.0185                  4.3892840034253005E-6
0.0015                    -0.0175                  4.496143560050545E-6
0.0015                    -0.0165                  4.578478080807831E-6
0.0015                    -0.0155                  4.5855897863028E-6
0.0015                    -0.0145                  4.5566924866488535E-6
0.0015                    -0.0135                  4.525838120357844E-6
0.0015                    -0.0125                  4.4889819348767024E-6
0.0015                    -0.0115                  4.445273205451344E-6
0.0015                    -0.0105                  4.397831822601622E-6
0.0015                    -0.0095                  4.347378891438061E-6
0.0015                    -0.0085                  4.307304654230354E-6
0.0015                    -0.0075                  4.269678909299902E-6
0.0015                    -0.0065                  4.268122868935313E-6
0.0015                    -0.0055                  4.329163647594263E-6
0.0015                    -0.0045                  4.440186538472012E-6
0.0015                    -0.0035                  4.913919395647616E-6
0.0015                    -0.0025                  6.465059190650103E-6
0.0015                    -0.0015                  1.0388462328094194E-5
0.0015                    -5.0E-4                  1.942706869288294E-5
0.0015                    5.0E-4                   3.872653104198977E-5
0.0015                    0.0015                   8.514053939891551E-5
0.0015                    0.0025                   1.97257308016912E-4
0.0015                    0.0035                   5.343200464063023E-4
0.0015                    0.0045                   0.001268666951548132
0.0015                    0.0055                   0.0023603940291689416
0.0015                    0.0065                   0.002110445093088576
0.0015                    0.0075                   0.017699428946773513
0.0015                    0.0085                   0.046676384833384835
0.0015                    0.0095                   0.05639039410767147
0.0015                    0.0105                   0.04510982086818991
0.0015                    0.0115                   0.027333019348142702
0.0015                    0.0125                   0.011457844199292936
0.0015                    0.0135                   0.003253464812878122
0.0015                    0.0145                   7.74885827380307E-4
0.0015                    0.0155                   1.6286390198899604E-4
0.0015                    0.0165                   4.8115964705182826E-5
0.0015                    0.0175                   1.9941080781885166E-5
0.0015                    0.0185                   1.1648061245769335E-5
0.0015                    0.0195                   8.574414099619745E-6
0.0015                    0.0205                   7.281877802672002E-6
0.0015                    0.0215                   6.721213970474996E-6
0.0015                    0.0225                   6.290338355666977E-6
0.0015                    0.0235                   6.579432504691086E-6
0.0015                    0.0245                   7.265496928059795E-6
0.0015                    0.0255                   7.369077035634688E-6
0.0015                    0.0265                   7.1570546290444075E-6
0.0015                    0.0275                   7.039478209124193E-6
0.0015                    0.0285                   6.9620878182996306E-6
0.0015                    0.0295                   6.576289764301807E-6
0.0015                    0.0305                   6.2286414807130455E-6
0.0015                    0.0315                   3.1855200861091267E-6
0.0025                    -0.0315                  1.8387983588141967E-6
0.0025                    -0.0305                  3.6460855203203785E-6
0.0025                    -0.0295                  3.907939450856645E-6
0.0025                    -0.0285                  4.103061662591416E-6
0.0025                    -0.0275                  4.066671669838463E-6
0.0025                    -0.0265                  3.999850547278618E-6
0.0025                    -0.0255                  3.919719883520541E-6
0.0025                    -0.0245                  3.844905488464078E-6
0.0025                    -0.0235                  3.776417533169464E-6
0.0025                    -0.0225                  3.716103420318939E-6
0.0025                    -0.0215                  3.6680297905452653E-6
0.0025                    -0.0205                  3.6375494760065508E-6
0.0025                    -0.0195                  3.627234688397785E-6
0.0025                    -0.0185                  3.6353072016399003E-6
0.0025                    -0.0175                  3.6553772857891597E-6
0.0025                    -0.0165                  3.6816033225506633E-6
0.0025                    -0.0155                  3.7103021008788995E-6
0.0025                    -0.0145                  3.739823967201715E-6
0.0025                    -0.0135                  3.773509093804275E-6
0.0025                    -0.0125                  3.815512426332681E-6
0.0025                    -0.0115                  3.8691571921121335E-6
0.0025                    -0.0105                  3.937979623009752E-6
0.0025                    -0.0095                  4.024269100346772E-6
0.0025                    -0.0085                  4.124802718417038E-6
0.0025                    -0.0075                  4.241464936028825E-6
0.0025                    -0.0065                  4.384281955196043E-6
0.0025                    -0.0055                  4.58906228256214E-6
0.0025                    -0.0045                  5.0020247516950535E-6
0.0025                    -0.0035                  6.030254315132414E-6
0.0025                    -0.0025                  8.604215794410511E-6
0.0025                    -0.0015                  1.4622606074538719E-5
0.0025                    -5.0E-4                  2.8838744563802625E-5
0.0025                    5.0E-4                   6.393191225004313E-5
0.0025                    0.0015                   1.5944134902636312E-4
0.0025                    0.0025                   4.4749046943627304E-4
0.0025                    0.0035                   0.001243874137021781
0.0025                    0.0045                   0.002509550261204253
0.0025                    0.0055                   0.0032881100447738195
0.0025                    0.0065                   0.006036342496120727
0.0025                    0.0075                   0.03015603075123755
0.0025                    0.0085                   0.052270059350695536
0.0025                    0.0095                   0.05434816973522471
0.0025                    0.0105                   0.04024382809126949
0.0025                    0.0115                   0.0216478746425633
0.0025                    0.0125                   0.008090828400814078
0.0025                    0.0135                   0.0023454658493448355
0.0025                    0.0145                   6.399783749180228E-4
0.0025                    0.0155                   1.4869340321366301E-4
0.0025                    0.0165                   4.7174443255231984E-5
0.0025                    0.0175                   1.9032913894661228E-5
0.0025                    0.0185                   1.1113686935097857E-5
0.0025                    0.0195                   8.367455706135645E-6
0.0025                    0.0205                   7.297457592169395E-6
0.0025                    0.0215                   6.7585943685814024E-6
0.0025                    0.0225                   6.553686329789325E-6
0.0025                    0.0235                   6.648734208264096E-6
0.0025                    0.0245                   6.764853102099866E-6
0.0025                    0.0255                   6.686579547287716E-6
0.0025                    0.0265                   6.567169411097436E-6
0.0025                    0.0275                   6.540035587969396E-6
0.0025                    0.0285                   6.585792116409712E-6
0.0025                    0.0295                   6.362294132709852E-6
0.0025                    0.0305                   6.360180972377757E-6
0.0025                    0.0315                   3.3745484965173823E-6
0.0035                    -0.0315                  1.9050154377645294E-6
0.0035                    -0.0305                  3.732471394671164E-6
0.0035                    -0.0295                  4.074326406308634E-6
0.0035                    -0.0285                  4.452517038761684E-6
0.0035                    -0.0275                  4.509672494081487E-6
0.0035                    -0.0265                  4.4640563904764354E-6
0.0035                    -0.0255                  4.3644610244133796E-6
0.0035                    -0.0245                  4.25358774003758E-6
0.0035                    -0.0235                  4.145624938704946E-6
0.0035                    -0.0225                  4.048065413292513E-6
0.0035                    -0.0215                  3.9662877074198726E-6
0.0035                    -0.0205                  3.905469227576428E-6
0.0035                    -0.0195                  3.868635644239321E-6
0.0035                    -0.0185                  3.85682805977156E-6
0.0035                    -0.0175                  3.8699585409857305E-6
0.0035                    -0.0165                  3.905656275962973E-6
0.0035                    -0.0155                  3.9600989372034305E-6
0.0035                    -0.0145                  4.029990505399871E-6
0.0035                    -0.0135                  4.111746482727998E-6
0.0035                    -0.0125                  4.20204236861073E-6
0.0035                    -0.0115                  4.3003944883678984E-6
0.0035                    -0.0105                  4.410163381024407E-6
0.0035                    -0.0095                  4.53587564171016E-6
0.0035                    -0.0085                  4.6811241537837365E-6
0.0035                    -0.0075                  4.849889049874436E-6
0.0035                    -0.0065                  5.058280956307958E-6
0.0035                    -0.0055                  5.37410710158613E-6
0.0035                    -0.0045                  6.020559444881833E-6
0.0035                    -0.0035                  7.619510939319595E-6
0.0035                    -0.0025                  1.1635524637031089E-5
0.0035                    -0.0015                  2.12034899230271E-5
0.0035                    -5.0E-4                  4.3104505828127044E-5
0.0035                    5.0E-4                   1.1179729196977824E-4
0.0035                    0.0015                   3.23196987537513E-4
0.0035                    0.0025                   9.516823536728375E-4
0.0035                    0.0035                   0.002362698917754551
0.0035                    0.0045                   0.0037847035770843707
0.0035                    0.0055                   8.77907401068251E-4
0.0035                    0.0065                   0.016734661561487334
0.0035                    0.0075                   0.04119919151912549
0.0035                    0.0085                   0.05481326698124508
0.0035                    0.0095                   0.050390855390064125
0.0035                    0.0105                   0.03365003610757652
0.0035                    0.0115                   0.015915459124596056
0.0035                    0.0125                   0.005464306986853097
0.0035                    0.0135                   0.0016771822766950813
0.0035                    0.0145                   4.8268355765637125E-4
0.0035                    0.0155                   1.2470850585676285E-4
0.0035                    0.0165                   4.233951856680159E-5
0.0035                    0.0175                   1.80690516316147E-5
0.0035                    0.0185                   1.0650147732193491E-5
0.0035                    0.0195                   8.148222183395645E-6
0.0035                    0.0205                   7.221108472149493E-6
0.0035                    0.0215                   6.840235365533132E-6
0.0035                    0.0225                   6.741770241717626E-6
0.0035                    0.0235                   6.765569509499975E-6
0.0035                    0.0245                   6.839464468061751E-6
0.0035                    0.0255                   6.912437651419568E-6
0.0035                    0.0265                   6.9332499711670816E-6
0.0035                    0.0275                   6.909352918498578E-6
0.0035                    0.0285                   6.85667085794012E-6
0.0035                    0.0295                   6.445484018402319E-6
0.0035                    0.0305                   6.630767637863596E-6
0.0035                    0.0315                   3.6683014548803993E-6
0.0045                    -0.0315                  1.939507523892151E-6
0.0045                    -0.0305                  3.7225679028445346E-6
0.0045                    -0.0295                  4.027881304029383E-6
0.0045                    -0.0285                  4.51292243132599E-6
0.0045                    -0.0275                  4.69073620058288E-6
0.0045                    -0.0265                  4.724862525896965E-6
0.0045                    -0.0255                  4.658653987731247E-6
0.0045                    -0.0245                  4.550326715645281E-6
0.0045                    -0.0235                  4.427491638602946E-6
0.0045                    -0.0225                  4.307259392206163E-6
0.0045                    -0.0215                  4.1995163879788665E-6
0.0045                    -0.0205                  4.111819810605418E-6
0.0045                    -0.0195                  4.050956328843195E-6
0.0045                    -0.0185                  4.022668202835464E-6
0.0045                    -0.0175                  4.03103778160438E-6
0.0045                    -0.0165                  4.078198705396137E-6
0.0045                    -0.0155                  4.1630055551589565E-6
0.0045                    -0.0145                  4.279570010188214E-6
0.0045                    -0.0135                  4.417679631122685E-6
0.0045                    -0.0125                  4.565022325196942E-6
0.0045                    -0.0115                  4.71156594904363E-6
0.0045                    -0.0105                  4.854709993108013E-6
0.0045                    -0.0095                  5.001227658891595E-6
0.0045                    -0.0085                  5.164392820078868E-6
0.0045                    -0.0075                  5.36261290662008E-6
0.0045                    -0.0065                  5.633732270150879E-6
0.0045                    -0.0055                  6.085667887042881E-6
0.0045                    -0.0045                  7.024764468755539E-6
0.0045                    -0.0035                  9.275423302634285E-6
0.0045                    -0.0025                  1.4991277540296212E-5
0.0045                    -0.0015                  3.0302291960819845E-5
0.0045                    -5.0E-4                  7.377858278222033E-5
0.0045                    5.0E-4                   2.1108926610590107E-4
0.0045                    0.0015                   6.292159262938931E-4
0.0045                    0.0025                   0.0018173305420578583
0.0045                    0.0035                   0.0036197616176098383
0.0045                    0.0045                   0.003193071135097668
0.0045                    0.0055                   0.007525839704585045
0.0045                    0.0065                   0.029446436080788865
0.0045                    0.0075                   0.04874410580526098
0.0045                    0.0085                   0.05423885514599048
0.0045                    0.0095                   0.044473931122398405
0.0045                    0.0105                   0.026134608984212573
0.0045                    0.0115                   0.010839358327574296
0.0045                    0.0125                   0.0035525264796489125
0.0045                    0.0135                   0.0011687997765247764
0.0045                    0.0145                   3.4824273860220356E-4
0.0045                    0.0155                   9.543407569564887E-5
0.0045                    0.0165                   3.48741899364772E-5
0.0045                    0.0175                   1.61101826552486E-5
0.0045                    0.0185                   1.0009867599928444E-5
0.0045                    0.0195                   7.859504809425033E-6
0.0045                    0.0205                   7.095820286892783E-6
0.0045                    0.0215                   6.8367145227496446E-6
0.0045                    0.0225                   6.7812164886590925E-6
0.0045                    0.0235                   6.820772945170587E-6
0.0045                    0.0245                   6.899177567624507E-6
0.0045                    0.0255                   6.9747364533535874E-6
0.0045                    0.0265                   7.013423803485781E-6
0.0045                    0.0275                   6.933626254760952E-6
0.0045                    0.0285                   6.760628951258433E-6
0.0045                    0.0295                   6.26734802595909E-6
0.0045                    0.0305                   6.728605633795194E-6
0.0045                    0.0315                   3.85648446123088E-6
0.0055                    -0.0315                  1.971536272964106E-6
0.0055                    -0.0305                  3.7235439315727203E-6
0.0055                    -0.0295                  3.969706300117707E-6
0.0055                    -0.0285                  4.497390802822365E-6
0.0055                    -0.0275                  4.765269837181081E-6
0.0055                    -0.0265                  4.895328728553225E-6
0.0055                    -0.0255                  4.89853484289587E-6
0.0055                    -0.0245                  4.829417487321656E-6
0.0055                    -0.0235                  4.722161073491569E-6
0.0055                    -0.0225                  4.601329524830727E-6
0.0055                    -0.0215                  4.483124240132072E-6
0.0055                    -0.0205                  4.3800937568529965E-6
0.0055                    -0.0195                  4.303318654017518E-6
0.0055                    -0.0185                  4.263264389938045E-6
0.0055                    -0.0175                  4.2692153343731626E-6
0.0055                    -0.0165                  4.327865395688611E-6
0.0055                    -0.0155                  4.441428712221119E-6
0.0055                    -0.0145                  4.605328297875607E-6
0.0055                    -0.0135                  4.806302366729609E-6
0.0055                    -0.0125                  5.023092250521404E-6
0.0055                    -0.0115                  5.231581735986403E-6
0.0055                    -0.0105                  5.414686173358426E-6
0.0055                    -0.0095                  5.573566795166049E-6
0.0055                    -0.0085                  5.733902612656221E-6
0.0055                    -0.0075                  5.947501149979012E-6
0.0055                    -0.0065                  6.305760951635092E-6
0.0055                    -0.0055                  6.988210545256699E-6
0.0055                    -0.0045                  8.391304933650241E-6
0.0055                    -0.0035                  1.1447602806390308E-5
0.0055                    -0.0025                  1.906086501475938E-5
0.0055                    -0.0015                  4.110935222959559E-5
0.0055                    -5.0E-4                  1.2361219746814795E-4
0.0055                    5.0E-4                   3.7837240183602894E-4
0.0055                    0.0015                   0.0011597929801192611
0.0055                    0.0025                   0.002960484134209442
0.0055                    0.0035                   0.00423890516709577
0.0055                    0.0045                   0.0014406344614659788
0.0055                    0.0055                   0.018910554874984473
0.0055                    0.0065                   0.04017180685816139
0.0055                    0.0075                   0.0523794819302692
0.0055                    0.0085                   0.050941328367276995
0.0055                    0.0095                   0.03687233893721615
0.0055                    0.0105                   0.0186555913324571
0.0055                    0.0115                   0.006857016502811339
0.0055                    0.0125                   0.0022404020109518434
0.0055                    0.0135                   7.69842510543982E-4
0.0055                    0.0145                   2.3672595854804673E-4
0.0055                    0.0155                   6.873239663905731E-5
0.0055                    0.0165                   2.6550862795753376E-5
0.0055                    0.0175                   1.3486560537959664E-5
0.0055                    0.0185                   9.056120014383024E-6
0.0055                    0.0195                   7.452876644610406E-6
0.0055                    0.0205                   6.884909360405883E-6
0.0055                    0.0215                   6.71350276404732E-6
0.0055                    0.0225                   6.708470521931179E-6
0.0055                    0.0235                   6.774705042984943E-6
0.0055                    0.0245                   6.8632245877342346E-6
0.0055                    0.0255                   6.927701483530981E-6
0.0055                    0.0265                   6.9230647996189275E-6
0.0055                    0.0275                   6.778775520525709E-6
0.0055                    0.0285                   6.557269422129929E-6
0.0055                    0.0295                   6.079095199810069E-6
0.0055                    0.0305                   6.848577829571834E-6
0.0055                    0.0315                   4.044896111905934E-6
0.0065                    -0.0315                  2.0002421203432697E-6
0.0065                    -0.0305                  3.7285586037696946E-6
0.0065                    -0.0295                  3.911240698531458E-6
0.0065                    -0.0285                  4.44417131559595E-6
0.0065                    -0.0275                  4.759482359220797E-6
0.0065                    -0.0265                  4.963926020067665E-6
0.0065                    -0.0255                  5.040947982702699E-6
0.0065                    -0.0245                  5.028674954398593E-6
0.0065                    -0.0235                  4.957677836856752E-6
0.0065                    -0.0225                  4.855404106477034E-6
0.0065                    -0.0215                  4.742259503849729E-6
0.0065                    -0.0205                  4.634860343675392E-6
0.0065                    -0.0195                  4.5482202808014675E-6
0.0065                    -0.0185                  4.497045330775859E-6
0.0065                    -0.0175                  4.4955629418899325E-6
0.0065                    -0.0165                  4.5561322137917075E-6
0.0065                    -0.0155                  4.686847175884428E-6
0.0065                    -0.0145                  4.888374157654183E-6
0.0065                    -0.0135                  5.150420740028328E-6
0.0065                    -0.0125                  5.4492211366524295E-6
0.0065                    -0.0115                  5.749325730555174E-6
0.0065                    -0.0105                  6.014063299436381E-6
0.0065                    -0.0095                  6.227244433680313E-6
0.0065                    -0.0085                  6.421714364117614E-6
0.0065                    -0.0075                  6.703846790693678E-6
0.0065                    -0.0065                  7.273428960652627E-6
0.0065                    -0.0055                  8.459581158357454E-6