% Model:              Benchmark260518.mph
% Version:            COMSOL 6.2.0.339
% Date:               May 19 2026, 14:08
% Dimension:          2
% Nodes:              4096
% Expressions:        1
% Description:        速度大小
% Length unit:        m
% x                       y                        spf.U (m/s)
5.0E-4                    -0.0315                  3.572024244767562E-6
5.0E-4                    -0.0305                  7.141834317242879E-6
5.0E-4                    -0.0295                  8.002413891111885E-6
5.0E-4                    -0.0285                  9.019579814263724E-6
5.0E-4                    -0.0275                  9.70630012089154E-6
5.0E-4                    -0.0265                  1.0429151156665546E-5
5.0E-4                    -0.0255                  1.111975732526879E-5
5.0E-4                    -0.0245                  1.1827111370235332E-5
5.0E-4                    -0.0235                  1.2539970153326285E-5
5.0E-4                    -0.0225                  1.3346570069739068E-5
5.0E-4                    -0.0215                  1.4334574992217373E-5
5.0E-4                    -0.0205                  1.5618377561112263E-5
5.0E-4                    -0.0195                  1.7384633821624703E-5
5.0E-4                    -0.0185                  1.9877990756361293E-5
5.0E-4                    -0.0175                  2.363263177719754E-5
5.0E-4                    -0.0165                  3.012218609008582E-5
5.0E-4                    -0.0155                  4.644131018785448E-5
5.0E-4                    -0.0145                  9.350206093975147E-5
5.0E-4                    -0.0135                  2.3052529232719463E-4
5.0E-4                    -0.0125                  3.839825252257129E-4
5.0E-4                    -0.0115                  3.84189758377311E-4
5.0E-4                    -0.0105                  2.8957719046550487E-4
5.0E-4                    -0.0095                  1.2254426326939834E-4
5.0E-4                    -0.0085                  0.0011675533029209969
5.0E-4                    -0.0075                  0.003015592912482578
5.0E-4                    -0.0065                  0.005362394635758056
5.0E-4                    -0.0055                  0.007564850220934828
5.0E-4                    -0.0045                  0.008994920710539216
5.0E-4                    -0.0035                  0.009290617175016726
5.0E-4                    -0.0025                  0.008500011246038955
5.0E-4                    -0.0015                  0.006927853197327071
5.0E-4                    -5.0E-4                  0.004826900803788582
5.0E-4                    5.0E-4                   0.002498992023549885
5.0E-4                    0.0015                   0.003532623836759109
5.0E-4                    0.0025                   0.0061858294815965425
5.0E-4                    0.0035                   0.007204776966341122
5.0E-4                    0.0045                   0.00644025924871735
5.0E-4                    0.0055                   0.005506241121756536
5.0E-4                    0.0065                   0.050861279067598145
5.0E-4                    0.0075                   0.09698731702768894
5.0E-4                    0.0085                   0.09462592988840555
5.0E-4                    0.0095                   0.047860619063385165
5.0E-4                    0.0105                   0.003876112486277964
5.0E-4                    0.0115                   0.0016223120487546495
5.0E-4                    0.0125                   0.002697469218471671
5.0E-4                    0.0135                   0.005587722802330783
5.0E-4                    0.0145                   0.007520536021246861
5.0E-4                    0.0155                   0.008560423447456413
5.0E-4                    0.0165                   0.008453561996545603
5.0E-4                    0.0175                   0.006983954410032752
5.0E-4                    0.0185                   0.004602511321468859
5.0E-4                    0.0195                   0.002322179892622363
5.0E-4                    0.0205                   0.0010460209390024124
5.0E-4                    0.0215                   5.482713183629619E-4
5.0E-4                    0.0225                   2.3528401799751772E-4
5.0E-4                    0.0235                   6.778175039550137E-5
5.0E-4                    0.0245                   2.605190913311559E-5
5.0E-4                    0.0255                   1.215493096610146E-5
5.0E-4                    0.0265                   7.1400591395738154E-6
5.0E-4                    0.0275                   5.22031014982935E-6
5.0E-4                    0.0285                   4.244108494666893E-6
5.0E-4                    0.0295                   3.516737799079002E-6
5.0E-4                    0.0305                   3.0137012805563063E-6
5.0E-4                    0.0315                   1.4749456139639045E-6
0.0015                    -0.0315                  6.907813542435201E-6
0.0015                    -0.0305                  1.3544202634920875E-5
0.0015                    -0.0295                  1.4426909237776196E-5
0.0015                    -0.0285                  1.5567408258101664E-5
0.0015                    -0.0275                  1.6249728761449048E-5
0.0015                    -0.0265                  1.7083567140749977E-5
0.0015                    -0.0255                  1.7987462679852143E-5
0.0015                    -0.0245                  1.9003041747035222E-5
0.0015                    -0.0235                  2.012412724055453E-5
0.0015                    -0.0225                  2.1493191288810755E-5
0.0015                    -0.0215                  2.335895833640921E-5
0.0015                    -0.0205                  2.609456926066346E-5
0.0015                    -0.0195                  3.0268375728167324E-5
0.0015                    -0.0185                  3.677913963169196E-5
0.0015                    -0.0175                  4.7182380170002436E-5
0.0015                    -0.0165                  6.524099839755168E-5
0.0015                    -0.0155                  1.0368801247105365E-4
0.0015                    -0.0145                  1.9359818398456354E-4
0.0015                    -0.0135                  4.2960506706978164E-4
0.0015                    -0.0125                  7.177475323337045E-4
0.0015                    -0.0115                  9.190272849223124E-4
0.0015                    -0.0105                  0.0015211675732357257
0.0015                    -0.0095                  0.004636370127056911
0.0015                    -0.0085                  0.009729815240410618
0.0015                    -0.0075                  0.01567672598769864
0.0015                    -0.0065                  0.021361935491460517
0.0015                    -0.0055                  0.025878412275690096
0.0015                    -0.0045                  0.028699193319973896
0.0015                    -0.0035                  0.02967864029026038
0.0015                    -0.0025                  0.028979439299331194
0.0015                    -0.0015                  0.026842953799867182
0.0015                    -5.0E-4                  0.023253761808467225
0.0015                    5.0E-4                   0.017666660895543317
0.0015                    0.0015                   0.010170330950539236
0.0015                    0.0025                   0.0034511447735982408
0.0015                    0.0035                   0.003662981605923924
0.0015                    0.0045                   0.004270149508897108
0.0015                    0.0055                   0.016837547812573853
0.0015                    0.0065                   0.05804723026145428
0.0015                    0.0075                   0.08967306471297322
0.0015                    0.0085                   0.08621709358741596
0.0015                    0.0095                   0.05181882418343641
0.0015                    0.0105                   0.015365568708746561
0.0015                    0.0115                   0.011640553493550638
0.0015                    0.0125                   0.018122650237334073
0.0015                    0.0135                   0.02304352988295498
0.0015                    0.0145                   0.02528317976318612
0.0015                    0.0155                   0.025745253629252382
0.0015                    0.0165                   0.024596179537232303
0.0015                    0.0175                   0.021486923796591617
0.0015                    0.0185                   0.016439995368463932
0.0015                    0.0195                   0.010206310276214655
0.0015                    0.0205                   0.004689244008519955
0.0015                    0.0215                   0.0016874661453625689
0.0015                    0.0225                   5.878608732149231E-4
0.0015                    0.0235                   1.697671145282417E-4
0.0015                    0.0245                   6.432499381337426E-5
0.0015                    0.0255                   2.7729585188404256E-5
0.0015                    0.0265                   1.4896722808335237E-5
0.0015                    0.0275                   9.932172008776042E-6
0.0015                    0.0285                   7.805829170461723E-6
0.0015                    0.0295                   6.543431456174773E-6
0.0015                    0.0305                   5.823355518484732E-6
0.0015                    0.0315                   2.9038773089299894E-6
0.0025                    -0.0315                  7.3287881451063625E-6
0.0025                    -0.0305                  1.3650911899714683E-5
0.0025                    -0.0295                  1.3490036160895443E-5
0.0025                    -0.0285                  1.4048099883338308E-5
0.0025                    -0.0275                  1.416039257167521E-5
0.0025                    -0.0265                  1.4473796084719633E-5
0.0025                    -0.0255                  1.5028536628947339E-5
0.0025                    -0.0245                  1.590048668770215E-5
0.0025                    -0.0235                  1.7175946930797467E-5
0.0025                    -0.0225                  1.9118580600740525E-5
0.0025                    -0.0215                  2.2363483056182635E-5
0.0025                    -0.0205                  2.814456406470512E-5
0.0025                    -0.0195                  3.8022918879959355E-5
0.0025                    -0.0185                  5.419734685802335E-5
0.0025                    -0.0175                  8.195635756547183E-5
0.0025                    -0.0165                  1.2594121560519705E-4
0.0025                    -0.0155                  1.9230731639620103E-4
0.0025                    -0.0145                  3.4540167833580827E-4
0.0025                    -0.0135                  6.40131309828878E-4
0.0025                    -0.0125                  0.001106945461196536
0.0025                    -0.0115                  0.0029012450402467445
0.0025                    -0.0105                  0.008052751729735248
0.0025                    -0.0095                  0.015976165990911215
0.0025                    -0.0085                  0.02431052815814723
0.0025                    -0.0075                  0.031323405051712994
0.0025                    -0.0065                  0.03638722973099475
0.0025                    -0.0055                  0.03970148999060985
0.0025                    -0.0045                  0.041803071272725
0.0025                    -0.0035                  0.043227176239110786
0.0025                    -0.0025                  0.04426771580480625
0.0025                    -0.0015                  0.04485586450304192
0.0025                    -5.0E-4                  0.04449678487369624
0.0025                    5.0E-4                   0.04233558181309752
0.0025                    0.0015                   0.037535622115696436
0.0025                    0.0025                   0.03041831604693112
0.0025                    0.0035                   0.023474095050964698
0.0025                    0.0045                   0.021980201935806347
0.0025                    0.0055                   0.03455564678846577
0.0025                    0.0065                   0.06071722755519256
0.0025                    0.0075                   0.07667201515143518
0.0025                    0.0085                   0.07097213645027557
0.0025                    0.0095                   0.04861936160052422
0.0025                    0.0105                   0.03218917979769081
0.0025                    0.0115                   0.03486945381760386
0.0025                    0.0125                   0.03871049068935757
0.0025                    0.0135                   0.0388067299737952
0.0025                    0.0145                   0.03686128825109414
0.0025                    0.0155                   0.034623045040645374
0.0025                    0.0165                   0.03263402094484979
0.0025                    0.0175                   0.030327122475470817
0.0025                    0.0185                   0.02656177584969987
0.0025                    0.0195                   0.020132646812624857
0.0025                    0.0205                   0.011548540440720357
0.0025                    0.0215                   0.004470669304514276
0.0025                    0.0225                   0.001283993510773517
0.0025                    0.0235                   3.9133704212290777E-4
0.0025                    0.0245                   1.2177197098372704E-4
0.0025                    0.0255                   4.761749824422862E-5
0.0025                    0.0265                   2.1542043920311827E-5
0.0025                    0.0275                   1.2001920432054653E-5
0.0025                    0.0285                   8.295187286961692E-6
0.0025                    0.0295                   6.590288428356882E-6
0.0025                    0.0305                   6.060876066817754E-6
0.0025                    0.0315                   3.1550196363233543E-6
0.0035                    -0.0315                  8.02283973119001E-6
0.0035                    -0.0305                  1.4217260175609883E-5
0.0035                    -0.0295                  1.3469520069118476E-5
0.0035                    -0.0285                  1.4319076267310656E-5
0.0035                    -0.0275                  1.464502811068874E-5
0.0035                    -0.0265                  1.5187074005033444E-5
0.0035                    -0.0255                  1.614625758080381E-5
0.0035                    -0.0245                  1.7859410091687245E-5
0.0035                    -0.0235                  2.074318491009161E-5
0.0035                    -0.0225                  2.566996183824988E-5
0.0035                    -0.0215                  3.455820456591999E-5
0.0035                    -0.0205                  5.128870543975217E-5
0.0035                    -0.0195                  8.388561058940536E-5
0.0035                    -0.0185                  1.3930928807566253E-4
0.0035                    -0.0175                  2.2352016668251753E-4
0.0035                    -0.0165                  3.9117736185682465E-4
0.0035                    -0.0155                  6.34158437960687E-4
0.0035                    -0.0145                  0.0010074588764032793
0.0035                    -0.0135                  0.001704139653521306
0.0035                    -0.0125                  0.0037844865083369616
0.0035                    -0.0115                  0.009430084281923766
0.0035                    -0.0105                  0.018409612034437573
0.0035                    -0.0095                  0.027535396137612352
0.0035                    -0.0085                  0.03442032012137671
0.0035                    -0.0075                  0.03864810258343116
0.0035                    -0.0065                  0.04083003903288943
0.0035                    -0.0055                  0.04175571386038187
0.0035                    -0.0045                  0.04220547067133699
0.0035                    -0.0035                  0.04294967669233174
0.0035                    -0.0025                  0.04460760952918041
0.0035                    -0.0015                  0.047332806207264704
0.0035                    -5.0E-4                  0.05060394113436167
0.0035                    5.0E-4                   0.05336701284118913
0.0035                    0.0015                   0.054369191559495336
0.0035                    0.0025                   0.05274890171729049
0.0035                    0.0035                   0.049177259040563054
0.0035                    0.0045                   0.04670983925914606
0.0035                    0.0055                   0.04958611864982056
0.0035                    0.0065                   0.057162300441069236
0.0035                    0.0075                   0.05855291424219752
0.0035                    0.0085                   0.04957453338145255
0.0035                    0.0095                   0.038433382040569584
0.0035                    0.0105                   0.03952272584054473
0.0035                    0.0115                   0.04341409625002846
0.0035                    0.0125                   0.041082064063922175
0.0035                    0.0135                   0.03558901387827592
0.0035                    0.0145                   0.030784623687418664
0.0035                    0.0155                   0.02834423585841338
0.0035                    0.0165                   0.028254257802525235
0.0035                    0.0175                   0.029230678201953565
0.0035                    0.0185                   0.02935466579115916
0.0035                    0.0195                   0.026661286806747345
0.0035                    0.0205                   0.019450643308280148
0.0035                    0.0215                   0.009682352273308097
0.0035                    0.0225                   0.003121300306350401
0.0035                    0.0235                   9.251772627162508E-4
0.0035                    0.0245                   2.831456959691476E-4
0.0035                    0.0255                   9.092253562883974E-5
0.0035                    0.0265                   3.569761083491477E-5
0.0035                    0.0275                   1.6656975770465212E-5
0.0035                    0.0285                   9.914676847359549E-6
0.0035                    0.0295                   7.059948419540494E-6
0.0035                    0.0305                   6.486404927923054E-6
0.0035                    0.0315                   3.5256452177254746E-6
0.0045                    -0.0315                  8.47530477219968E-6
0.0045                    -0.0305                  1.4446575600673934E-5
0.0045                    -0.0295                  1.30352119267356E-5
0.0045                    -0.0285                  1.4028140629691928E-5
0.0045                    -0.0275                  1.4725454822535478E-5
0.0045                    -0.0265                  1.583112317269772E-5
0.0045                    -0.0255                  1.7788892639139495E-5
0.0045                    -0.0245                  2.1479827524327805E-5
0.0045                    -0.0235                  2.8173033304260553E-5
0.0045                    -0.0225                  4.039400322998269E-5
0.0045                    -0.0215                  6.383404717864623E-5
0.0045                    -0.0205                  1.1238096819735733E-4
0.0045                    -0.0195                  2.185839187368564E-4
0.0045                    -0.0185                  4.6659780993394323E-4
0.0045                    -0.0175                  8.486660550713348E-4
0.0045                    -0.0165                  0.0014460959626090262
0.0045                    -0.0155                  0.002269273005434213
0.0045                    -0.0145                  0.00329037181031688
0.0045                    -0.0135                  0.0052209825759718205
0.0045                    -0.0125                  0.00988284669457332
0.0045                    -0.0115                  0.01792992915568964
0.0045                    -0.0105                  0.02682039446446775
0.0045                    -0.0095                  0.03359637410949031
0.0045                    -0.0085                  0.0373000885858168
0.0045                    -0.0075                  0.038304391175996204
0.0045                    -0.0065                  0.0370534390866345
0.0045                    -0.0055                  0.034248431495066546
0.0045                    -0.0045                  0.03126778905037663
0.0045                    -0.0035                  0.02957835570359635
0.0045                    -0.0025                  0.030057024079993815
0.0045                    -0.0015                  0.03300152111648619
0.0045                    -5.0E-4                  0.038146984926342616
0.0045                    5.0E-4                   0.044646721563151116
0.0045                    0.0015                   0.05104979485361345
0.0045                    0.0025                   0.05559156282787143
0.0045                    0.0035                   0.05706646176972482
0.0045                    0.0045                   0.05556875500375503
0.0045                    0.0055                   0.05212902307471719
0.0045                    0.0065                   0.04713428268935994
0.0045                    0.0075                   0.0383038160513653
0.0045                    0.0085                   0.02708087537814878
0.0045                    0.0095                   0.02388906296051502
0.0045                    0.0105                   0.027887492145930358
0.0045                    0.0115                   0.027508044994537642
0.0045                    0.0125                   0.0230842092790616
0.0045                    0.0135                   0.018330919995073542
0.0045                    0.0145                   0.015293533316583155
0.0045                    0.0155                   0.014819174665086848
0.0045                    0.0165                   0.01729430748735776
0.0045                    0.0175                   0.022196669906637854
0.0045                    0.0185                   0.027167974315991283
0.0045                    0.0195                   0.02916779301616372
0.0045                    0.0205                   0.02552716530237621
0.0045                    0.0215                   0.015866319723336283
0.0045                    0.0225                   0.006258257829272515
0.0045                    0.0235                   0.001856868641604849
0.0045                    0.0245                   6.109325375389181E-4
0.0045                    0.0255                   1.7938171118489217E-4
0.0045                    0.0265                   5.703217421507636E-5
0.0045                    0.0275                   2.2830089029960108E-5
0.0045                    0.0285                   1.1805276640677291E-5
0.0045                    0.0295                   7.50292101026625E-6
0.0045                    0.0305                   6.838521045670842E-6
0.0045                    0.0315                   3.827980711121243E-6
0.0055                    -0.0315                  8.945623937366557E-6
0.0055                    -0.0305                  1.4798878929390528E-5
0.0055                    -0.0295                  1.2754320693114684E-5
0.0055                    -0.0285                  1.3816445660517692E-5
0.0055                    -0.0275                  1.4958668801149203E-5
0.0055                    -0.0265                  1.705630163238183E-5
0.0055                    -0.0255                  2.1044226283216293E-5
0.0055                    -0.0245                  2.9152503064802067E-5
0.0055                    -0.0235                  4.502147729673413E-5
0.0055                    -0.0225                  7.518001959724479E-5
0.0055                    -0.0215                  1.3701709515650412E-4
0.0055                    -0.0205                  2.8102533547277105E-4
0.0055                    -0.0195                  6.68347830049578E-4
0.0055                    -0.0185                  0.0015584830453649545
0.0055                    -0.0175                  0.003081934321300868
0.0055                    -0.0165                  0.00511606568204952
0.0055                    -0.0155                  0.0071867926961438604
0.0055                    -0.0145                  0.00907787156592405
0.0055                    -0.0135                  0.011655372140798644
0.0055                    -0.0125                  0.01652373411876044
0.0055                    -0.0115                  0.023597646482088064
0.0055                    -0.0105                  0.03027868542530452
0.0055                    -0.0095                  0.034372263217356626
0.0055                    -0.0085                  0.03521259684246359
0.0055                    -0.0075                  0.03257798267328952
0.0055                    -0.0065                  0.026836605992447377
0.0055                    -0.0055                  0.019993827465720197
0.0055                    -0.0045                  0.014632958229355864
0.0055                    -0.0035                  0.011878432173624399
0.0055                    -0.0025                  0.011465349017051141
0.0055                    -0.0015                  0.013031024307153822
0.0055                    -5.0E-4                  0.01647097379648291
0.0055                    5.0E-4                   0.021661748542193097
0.0055                    0.0015                   0.028084097830151346
0.0055                    0.0025                   0.03447510912767461
0.0055                    0.0035                   0.039097793658281914
0.0055                    0.0045                   0.04023124784887614
0.0055                    0.0055                   0.03695737772125833
0.0055                    0.0065                   0.02953096156548204
0.0055                    0.0075                   0.019014087882573617
0.0055                    0.0085                   0.01047582823032737
0.0055                    0.0095                   0.009594696793954837
0.0055                    0.0105                   0.009498965819805003
0.0055                    0.0115                   0.00790134897563617
0.0055                    0.0125                   0.0065997255917719395
0.0055                    0.0135                   0.005709700112437809
0.0055                    0.0145                   0.0050632811938497784
0.0055                    0.0155                   0.005337165918745912
0.0055                    0.0165                   0.007656208762274309
0.0055                    0.0175                   0.013617737491532908
0.0055                    0.0185                   0.02211850271234752
0.0055                    0.0195                   0.02859660502150392
0.0055                    0.0205                   0.028946336248801267
0.0055                    0.0215                   0.021346442801000513
0.0055                    0.0225                   0.010228069005417362
0.0055                    0.0235                   0.003324308785153956
0.0055                    0.0245                   0.0010512321995880343
0.0055                    0.0255                   3.0695800729555855E-4
0.0055                    0.0265                   8.543729520715061E-5
0.0055                    0.0275                   3.195855633379254E-5
0.0055                    0.0285                   1.4325991555198001E-5
0.0055                    0.0295                   8.206294086913578E-6
0.0055                    0.0305                   7.301919198267551E-6
0.0055                    0.0315                   4.1510380792027165E-6
0.0065                    -0.0315                  9.396818411274046E-6
0.0065                    -0.0305                  1.5220649533008522E-5
0.0065                    -0.0295                  1.2660294091167139E-5
0.0065                    -0.0285                  1.3838630554774333E-5
0.0065                    -0.0275                  1.5643047553338968E-5
0.0065                    -0.0265                  1.9465881576239286E-5
0.0065                    -0.0255                  2.744707997371022E-5
0.0065                    -0.0245                  4.4733416293380884E-5
0.0065                    -0.0235                  8.398709907850783E-5
0.0065                    -0.0225                  1.66875740330503E-4
0.0065                    -0.0215                  3.3791327674172444E-4
0.0065                    -0.0205                  8.011533443155386E-4
0.0065                    -0.0195                  0.002106426643114459
0.0065                    -0.0185                  0.004901985167301504
0.0065                    -0.0175                  0.008853408355678265
0.0065                    -0.0165                  0.01249497237543717
0.0065                    -0.0155                  0.014809754954757896
0.0065                    -0.0145                  0.015883866316747975
0.0065                    -0.0135                  0.016574013434538817
0.0065                    -0.0125                  0.018983555528547934
0.0065                    -0.0115                  0.024081828173101755
0.0065                    -0.0105                  0.029308470316149044
0.0065                    -0.0095                  0.03187306608209599
0.0065                    -0.0085                  0.030303522058575602
0.0065                    -0.0075                  0.024139025600127824
0.0065                    -0.0065                  0.015232442552643534
0.0065                    -0.0055                  0.007801756569877053
0.0065                    -0.0045                  0.004169397234038932