% Model:              Benchmark260518.mph
% Version:            COMSOL 6.2.0.339
% Date:               May 20 2026, 13:45
% Dimension:          2
% Nodes:              4096
% Expressions:        1
% Description:        速度大小
% Length unit:        m
% x                       y                        spf.U (m/s)
5.0E-4                    -0.0315                  8.890362000678009E-7
5.0E-4                    -0.0305                  1.759370038403196E-6
5.0E-4                    -0.0295                  1.8571715236986075E-6
5.0E-4                    -0.0285                  1.97887881041006E-6
5.0E-4                    -0.0275                  2.104401787517713E-6
5.0E-4                    -0.0265                  2.2598150403043223E-6
5.0E-4                    -0.0255                  2.3936612996335264E-6
5.0E-4                    -0.0245                  2.5035109675862344E-6
5.0E-4                    -0.0235                  2.5980363949799515E-6
5.0E-4                    -0.0225                  2.6845265813252535E-6
5.0E-4                    -0.0215                  2.761825651709106E-6
5.0E-4                    -0.0205                  2.825959264687038E-6
5.0E-4                    -0.0195                  2.8775976467885457E-6
5.0E-4                    -0.0185                  2.922742074474101E-6
5.0E-4                    -0.0175                  2.968503872351939E-6
5.0E-4                    -0.0165                  3.0155541168687564E-6
5.0E-4                    -0.0155                  3.067826685400364E-6
5.0E-4                    -0.0145                  3.112482786919087E-6
5.0E-4                    -0.0135                  3.136969218150612E-6
5.0E-4                    -0.0125                  3.1352965475808615E-6
5.0E-4                    -0.0115                  3.160215156569796E-6
5.0E-4                    -0.0105                  3.2426941245299103E-6
5.0E-4                    -0.0095                  3.333314529876044E-6
5.0E-4                    -0.0085                  3.382504686013605E-6
5.0E-4                    -0.0075                  3.3894528543620543E-6
5.0E-4                    -0.0065                  3.365083882603429E-6
5.0E-4                    -0.0055                  3.2948190852254864E-6
5.0E-4                    -0.0045                  3.258650705415608E-6
5.0E-4                    -0.0035                  3.1788607553403906E-6
5.0E-4                    -0.0025                  2.9221321722575367E-6
5.0E-4                    -0.0015                  2.7026945134200626E-6
5.0E-4                    -5.0E-4                  2.72802019594343E-6
5.0E-4                    5.0E-4                   3.0229834410379984E-6
5.0E-4                    0.0015                   3.687550611845867E-6
5.0E-4                    0.0025                   4.894394758565967E-6
5.0E-4                    0.0035                   6.656018556397925E-6
5.0E-4                    0.0045                   8.51201847482281E-6
5.0E-4                    0.0055                   1.0094578191323199E-5
5.0E-4                    0.0065                   1.2682678693944608E-5
5.0E-4                    0.0075                   2.0394850115815913E-5
5.0E-4                    0.0085                   5.4488118984062224E-5
5.0E-4                    0.0095                   1.4569332586946004E-4
5.0E-4                    0.0105                   3.3105027413337073E-4
5.0E-4                    0.0115                   6.427958150952303E-4
5.0E-4                    0.0125                   0.0013671375088632578
5.0E-4                    0.0135                   0.0029503109993917155
5.0E-4                    0.0145                   0.025719851778629326
5.0E-4                    0.0155                   0.04529624459142907
5.0E-4                    0.0165                   0.037493214810324464
5.0E-4                    0.0175                   0.015026915102731695
5.0E-4                    0.0185                   4.2023429652196905E-4
5.0E-4                    0.0195                   3.3855613477390076E-4
5.0E-4                    0.0205                   1.3456629047286692E-4
5.0E-4                    0.0215                   1.0078285747602214E-4
5.0E-4                    0.0225                   4.8314667644992296E-5
5.0E-4                    0.0235                   1.8099689639603485E-5
5.0E-4                    0.0245                   7.64152222867703E-6
5.0E-4                    0.0255                   4.2560285683375205E-6
5.0E-4                    0.0265                   3.1840861552878747E-6
5.0E-4                    0.0275                   2.913825937165531E-6
5.0E-4                    0.0285                   2.7644785498793506E-6
5.0E-4                    0.0295                   2.5445628258594364E-6
5.0E-4                    0.0305                   2.406213206139979E-6
5.0E-4                    0.0315                   1.2217727115658558E-6
0.0015                    -0.0315                  1.742434890060983E-6
0.0015                    -0.0305                  3.452334592803038E-6
0.0015                    -0.0295                  3.628545916934999E-6
0.0015                    -0.0285                  3.787989899226792E-6
0.0015                    -0.0275                  3.88632549602404E-6
0.0015                    -0.0265                  4.023755446342995E-6
0.0015                    -0.0255                  4.143005036365014E-6
0.0015                    -0.0245                  4.242945586109326E-6
0.0015                    -0.0235                  4.332221400201143E-6
0.0015                    -0.0225                  4.4177383990203975E-6
0.0015                    -0.0215                  4.497226311990227E-6
0.0015                    -0.0205                  4.565914398195475E-6
0.0015                    -0.0195                  4.624451100513644E-6
0.0015                    -0.0185                  4.679679416865157E-6
0.0015                    -0.0175                  4.739731987057148E-6
0.0015                    -0.0165                  4.80686198385277E-6
0.0015                    -0.0155                  4.884675844567E-6
0.0015                    -0.0145                  4.960072297277992E-6
0.0015                    -0.0135                  5.0189049703975485E-6
0.0015                    -0.0125                  5.057354183418235E-6
0.0015                    -0.0115                  5.126670946247519E-6
0.0015                    -0.0105                  5.2519002878930255E-6
0.0015                    -0.0095                  5.375146493539948E-6
0.0015                    -0.0085                  5.438228394956078E-6
0.0015                    -0.0075                  5.4374393022948635E-6
0.0015                    -0.0065                  5.388973659498622E-6
0.0015                    -0.0055                  5.298560146622072E-6
0.0015                    -0.0045                  5.2551136416733265E-6
0.0015                    -0.0035                  5.194569313035819E-6
0.0015                    -0.0025                  5.013271742025583E-6
0.0015                    -0.0015                  4.957343097494556E-6
0.0015                    -5.0E-4                  5.320292046320428E-6
0.0015                    5.0E-4                   6.3342681855901174E-6
0.0015                    0.0015                   8.538740141480135E-6
0.0015                    0.0025                   1.2909232371686329E-5
0.0015                    0.0035                   2.0581991605953556E-5
0.0015                    0.0045                   3.0966840559033064E-5
0.0015                    0.0055                   4.000134719070455E-5
0.0015                    0.0065                   5.0371959512958836E-5
0.0015                    0.0075                   8.581696153376332E-5
0.0015                    0.0085                   2.0458808432329825E-4
0.0015                    0.0095                   4.91896869650154E-4
0.0015                    0.0105                   0.0010441215926739738
0.0015                    0.0115                   0.001822090574121079
0.0015                    0.0125                   0.002304016485519688
0.0015                    0.0135                   0.008645564414717076
0.0015                    0.0145                   0.031592069635083174
0.0015                    0.0155                   0.04443461023677375
0.0015                    0.0165                   0.0343033547527783
0.0015                    0.0175                   0.013389599632275253
0.0015                    0.0185                   5.861332164857173E-4
0.0015                    0.0195                   7.743848170189591E-4
0.0015                    0.0205                   2.616360946130155E-4
0.0015                    0.0215                   1.492632625993515E-4
0.0015                    0.0225                   7.071951504168218E-5
0.0015                    0.0235                   2.9257475981229648E-5
0.0015                    0.0245                   1.3367123722608626E-5
0.0015                    0.0255                   7.752804780038249E-6
0.0015                    0.0265                   5.8960032318287315E-6
0.0015                    0.0275                   5.408549776828478E-6
0.0015                    0.0285                   5.257440128220244E-6
0.0015                    0.0295                   5.0089701548244694E-6
0.0015                    0.0305                   4.757313260818659E-6
0.0015                    0.0315                   2.4071677641265755E-6
0.0025                    -0.0315                  1.7931252824901863E-6
0.0025                    -0.0305                  3.5553038956664514E-6
0.0025                    -0.0295                  3.8089455391670647E-6
0.0025                    -0.0285                  4.005588478395022E-6
0.0025                    -0.0275                  3.984846858704281E-6
0.0025                    -0.0265                  3.943411102003051E-6
0.0025                    -0.0255                  3.892357272233189E-6
0.0025                    -0.0245                  3.8461981764516675E-6
0.0025                    -0.0235                  3.8088580134679185E-6
0.0025                    -0.0225                  3.7824419738525184E-6
0.0025                    -0.0215                  3.7658754410186584E-6
0.0025                    -0.0205                  3.7577570065407513E-6
0.0025                    -0.0195                  3.75789639277282E-6
0.0025                    -0.0185                  3.7677732298533475E-6
0.0025                    -0.0175                  3.7897268926882495E-6
0.0025                    -0.0165                  3.826600082742979E-6
0.0025                    -0.0155                  3.879354934921792E-6
0.0025                    -0.0145                  3.9478563444384445E-6
0.0025                    -0.0135                  4.029953338697525E-6
0.0025                    -0.0125                  4.125696988760338E-6
0.0025                    -0.0115                  4.2309719487730295E-6
0.0025                    -0.0105                  4.333399080194451E-6
0.0025                    -0.0095                  4.411915646261976E-6
0.0025                    -0.0085                  4.444811390949635E-6
0.0025                    -0.0075                  4.424127687114802E-6
0.0025                    -0.0065                  4.364091935203836E-6
0.0025                    -0.0055                  4.30752650370929E-6
0.0025                    -0.0045                  4.3008192036361555E-6
0.0025                    -0.0035                  4.398371229694554E-6
0.0025                    -0.0025                  4.673693557743839E-6
0.0025                    -0.0015                  5.235769944715037E-6
0.0025                    -5.0E-4                  6.3361436801102365E-6
0.0025                    5.0E-4                   8.576046129768346E-6
0.0025                    0.0015                   1.339894365381186E-5
0.0025                    0.0025                   2.379501378325277E-5
0.0025                    0.0035                   4.477579850484924E-5
0.0025                    0.0045                   8.233128714350828E-5
0.0025                    0.0055                   1.2063784699190874E-4
0.0025                    0.0065                   1.6301406195438353E-4
0.0025                    0.0075                   2.85337368829305E-4
0.0025                    0.0085                   6.343018459106742E-4
0.0025                    0.0095                   0.0013329665679696924
0.0025                    0.0105                   0.0022196461813325766
0.0025                    0.0115                   0.002825878276930193
0.0025                    0.0125                   0.0015187552914263025
0.0025                    0.0135                   0.015519299911023628
0.0025                    0.0145                   0.03566949558373105
0.0025                    0.0155                   0.042642558327105486
0.0025                    0.0165                   0.030144406676923138
0.0025                    0.0175                   0.010595105891304647
0.0025                    0.0185                   2.2151189616014574E-4
0.0025                    0.0195                   8.780154673085602E-4
0.0025                    0.0205                   2.605441879579223E-4
0.0025                    0.0215                   9.370207978170413E-5
0.0025                    0.0225                   4.244420430394566E-5
0.0025                    0.0235                   2.1685573892749667E-5
0.0025                    0.0245                   1.1870913614338825E-5
0.0025                    0.0255                   7.659876109861895E-6
0.0025                    0.0265                   6.121955026048944E-6
0.0025                    0.0275                   5.678751151983797E-6
0.0025                    0.0285                   5.608337568087278E-6
0.0025                    0.0295                   5.363968487834862E-6
0.0025                    0.0305                   4.971644149586011E-6
0.0025                    0.0315                   2.49962659243337E-6
0.0035                    -0.0315                  1.8637659585058508E-6
0.0035                    -0.0305                  3.6443231766712315E-6
0.0035                    -0.0295                  3.964803837456249E-6
0.0035                    -0.0285                  4.333634310111212E-6
0.0035                    -0.0275                  4.399219916712019E-6
0.0035                    -0.0265                  4.375726080174714E-6
0.0035                    -0.0255                  4.3061685436436005E-6
0.0035                    -0.0245                  4.228594301159653E-6
0.0035                    -0.0235                  4.155138347607072E-6
0.0035                    -0.0225                  4.0925399135597715E-6
0.0035                    -0.0215                  4.0424037464650426E-6
0.0035                    -0.0205                  4.004503176394392E-6
0.0035                    -0.0195                  3.97861440386584E-6
0.0035                    -0.0185                  3.965627571203177E-6
0.0035                    -0.0175                  3.96781488698665E-6
0.0035                    -0.0165                  3.9884471735379825E-6
0.0035                    -0.0155                  4.031377324890449E-6
0.0035                    -0.0145                  4.099807913947955E-6
0.0035                    -0.0135                  4.195541032266392E-6
0.0035                    -0.0125                  4.317311135938211E-6
0.0035                    -0.0115                  4.459357029429252E-6
0.0035                    -0.0105                  4.608053131343545E-6
0.0035                    -0.0095                  4.740572996313631E-6
0.0035                    -0.0085                  4.83029437622163E-6
0.0035                    -0.0075                  4.85921883546029E-6
0.0035                    -0.0065                  4.834898425404624E-6
0.0035                    -0.0055                  4.8039776426630244E-6
0.0035                    -0.0045                  4.857617858151012E-6
0.0035                    -0.0035                  5.120662780891295E-6
0.0035                    -0.0025                  5.756218173866385E-6
0.0035                    -0.0015                  7.008838190641901E-6
0.0035                    -5.0E-4                  9.334034103636867E-6
0.0035                    5.0E-4                   1.3814776806387771E-5
0.0035                    0.0015                   2.3032482787215627E-5
0.0035                    0.0025                   4.4117187073055585E-5
0.0035                    0.0035                   9.185759766309233E-5
0.0035                    0.0045                   1.6323707781199464E-4
0.0035                    0.0055                   2.531593843267139E-4
0.0035                    0.0065                   4.5486650421785205E-4
0.0035                    0.0075                   9.540008854595522E-4
0.0035                    0.0085                   0.0018325687275747512
0.0035                    0.0095                   0.0028460777318106384
0.0035                    0.0105                   0.0033288196862071876
0.0035                    0.0115                   0.0019398757581790913
0.0035                    0.0125                   0.006747137562359608
0.0035                    0.0135                   0.023516811103712044
0.0035                    0.0145                   0.038319628003148906
0.0035                    0.0155                   0.039663620311931824
0.0035                    0.0165                   0.025111123968695612
0.0035                    0.0175                   0.007429986279750419
0.0035                    0.0185                   2.3333385726145202E-4
0.0035                    0.0195                   7.905219537867042E-4
0.0035                    0.0205                   2.3937993213334334E-4
0.0035                    0.0215                   8.435280949596213E-5
0.0035                    0.0225                   3.8682510985467027E-5
0.0035                    0.0235                   2.0834221639808104E-5
0.0035                    0.0245                   1.2498766386571143E-5
0.0035                    0.0255                   8.717404238186766E-6
0.0035                    0.0265                   7.231955816128266E-6
0.0035                    0.0275                   6.703096458635747E-6
0.0035                    0.0285                   6.421281046576621E-6
0.0035                    0.0295                   5.837575420809357E-6
0.0035                    0.0305                   5.2190985706908395E-6
0.0035                    0.0315                   2.628555082737898E-6
0.0045                    -0.0315                  1.9278666642838187E-6
0.0045                    -0.0305                  3.6707937959848902E-6
0.0045                    -0.0295                  3.920219178309537E-6
0.0045                    -0.0285                  4.377800783470572E-6
0.0045                    -0.0275                  4.553682706409638E-6
0.0045                    -0.0265                  4.606062848826776E-6
0.0045                    -0.0255                  4.570704839023547E-6
0.0045                    -0.0245                  4.501133581218157E-6
0.0045                    -0.0235                  4.42075741115148E-6
0.0045                    -0.0225                  4.343119999025609E-6
0.0045                    -0.0215                  4.274216465522811E-6
0.0045                    -0.0205                  4.216419161709914E-6
0.0045                    -0.0195                  4.1705307804959755E-6
0.0045                    -0.0185                  4.1375515802883225E-6
0.0045                    -0.0175                  4.119759862345662E-6
0.0045                    -0.0165                  4.121243314099669E-6
0.0045                    -0.0155                  4.147711727124044E-6
0.0045                    -0.0145                  4.205723681046426E-6
0.0045                    -0.0135                  4.30107532513216E-6
0.0045                    -0.0125                  4.4367217746678954E-6
0.0045                    -0.0115                  4.6101632465993065E-6
0.0045                    -0.0105                  4.8110853571830046E-6
0.0045                    -0.0095                  5.019628619007997E-6
0.0045                    -0.0085                  5.207425241210006E-6
0.0045                    -0.0075                  5.346669462097378E-6
0.0045                    -0.0065                  5.4322565148659185E-6
0.0045                    -0.0055                  5.517652533269322E-6
0.0045                    -0.0045                  5.750629311976983E-6
0.0045                    -0.0035                  6.383702002797818E-6
0.0045                    -0.0025                  7.785159686975893E-6
0.0045                    -0.0015                  1.056246084264341E-5
0.0045                    -5.0E-4                  1.5694615202342095E-5
0.0045                    5.0E-4                   2.506425558677769E-5
0.0045                    0.0015                   4.4401415729595535E-5
0.0045                    0.0025                   8.653043917661502E-5
0.0045                    0.0035                   1.7676686476877194E-4
0.0045                    0.0045                   2.8088110107906105E-4
0.0045                    0.0055                   4.6379384815430747E-4
0.0045                    0.0065                   0.0010053735693126102
0.0045                    0.0075                   0.001815604584959299
0.0045                    0.0085                   0.002553629931613883
0.0045                    0.0095                   0.0025787409618579574
0.0045                    0.0105                   8.863043735845872E-4
0.0045                    0.0115                   0.004555220819348848
0.0045                    0.0125                   0.015929202185604365
0.0045                    0.0135                   0.030063325664931466
0.0045                    0.0145                   0.03845826798496592
0.0045                    0.0155                   0.03517768432760628
0.0045                    0.0165                   0.019541368268554887
0.0045                    0.0175                   0.004443361781251136
0.0045                    0.0185                   4.916370090081932E-4
0.0045                    0.0195                   6.46501347111871E-4
0.0045                    0.0205                   2.0565399108011262E-4
0.0045                    0.0215                   8.204549950157498E-5
0.0045                    0.0225                   3.9846383957235E-5
0.0045                    0.0235                   2.182444115350044E-5
0.0045                    0.0245                   1.340795341439571E-5
0.0045                    0.0255                   9.646994962384424E-6
0.0045                    0.0265                   8.11925719057222E-6
0.0045                    0.0275                   7.44315067841258E-6
0.0045                    0.0285                   6.920791323373471E-6
0.0045                    0.0295                   6.084987943550464E-6
0.0045                    0.0305                   5.37101150619863E-6
0.0045                    0.0315                   2.7272863237892117E-6
0.0055                    -0.0315                  2.0378804732101084E-6
0.0055                    -0.0305                  3.7595696911687262E-6
0.0055                    -0.0295                  3.86834791496014E-6
0.0055                    -0.0285                  4.344217410331682E-6
0.0055                    -0.0275                  4.595728374665982E-6
0.0055                    -0.0265                  4.73841610152755E-6
0.0055                    -0.0255                  4.771385371940051E-6
0.0055                    -0.0245                  4.743586852693092E-6
0.0055                    -0.0235                  4.6844529862047415E-6
0.0055                    -0.0225                  4.614325193710284E-6
0.0055                    -0.0215                  4.544119913181876E-6
0.0055                    -0.0205                  4.479479076777394E-6
0.0055                    -0.0195                  4.4229755670596945E-6
0.0055                    -0.0185                  4.376227323390679E-6
0.0055                    -0.0175                  4.341585337672421E-6
0.0055                    -0.0165                  4.323397177072468E-6
0.0055                    -0.0155                  4.328655542495858E-6
0.0055                    -0.0145                  4.3667481442733445E-6
0.0055                    -0.0135                  4.448211027128566E-6
0.0055                    -0.0125                  4.582504381533245E-6
0.0055                    -0.0115                  4.775260368600076E-6
0.0055                    -0.0105                  5.025358811354036E-6
0.0055                    -0.0095                  5.322269787208382E-6
0.0055                    -0.0085                  5.645049461416013E-6
0.0055                    -0.0075                  5.968655200692243E-6
0.0055                    -0.0065                  6.290055922139103E-6
0.0055                    -0.0055                  6.691355555762484E-6
0.0055                    -0.0045                  7.452915264937164E-6
0.0055                    -0.0035                  9.165531604256183E-6
0.0055                    -0.0025                  1.2667939494237915E-5
0.0055                    -0.0015                  1.9236809161640703E-5
0.0055                    -5.0E-4                  3.238024577770418E-5
0.0055                    5.0E-4                   5.7665327958178184E-5
0.0055                    0.0015                   1.0371091433003586E-4
0.0055                    0.0025                   2.2664943156943136E-4
0.0055                    0.0035                   4.715535622488987E-4
0.0055                    0.0045                   7.25993333267955E-4
0.0055                    0.0055                   0.0010832065943008674
0.0055                    0.0065                   0.001672775966008631
0.0055                    0.0075                   0.002392995742978181
0.0055                    0.0085                   0.0034322247542714155
0.0055                    0.0095                   0.005274554061125385
0.0055                    0.0105                   0.008895158612498129
0.0055                    0.0115                   0.015508999802753875
0.0055                    0.0125                   0.02467119605487603
0.0055                    0.0135                   0.03284613685039806
0.0055                    0.0145                   0.03559833136800977
0.0055                    0.0155                   0.029121568488642613
0.0055                    0.0165                   0.014094380838108822
0.0055                    0.0175                   0.002179780887092328
0.0055                    0.0185                   8.063359298259541E-4
0.0055                    0.0195                   5.516534869269621E-4
0.0055                    0.0205                   1.8535674566402393E-4
0.0055                    0.0215                   9.546046787704972E-5
0.0055                    0.0225                   4.700010659371335E-5
0.0055                    0.0235                   2.4949598339263543E-5
0.0055                    0.0245                   1.5037772471253858E-5
0.0055                    0.0255                   1.073913988670221E-5
0.0055                    0.0265                   8.96190235213028E-6
0.0055                    0.0275                   8.08034258846799E-6
0.0055                    0.0285                   7.354575127821344E-6
0.0055                    0.0295                   6.352623791708291E-6
0.0055                    0.0305                   5.5802430680686574E-6
0.0055                    0.0315                   2.846330184638934E-6
0.0065                    -0.0315                  2.1800416886384662E-6
0.0065                    -0.0305                  3.887065864987367E-6
0.0065                    -0.0295                  3.8142440654277986E-6
0.0065                    -0.0285                  4.268909744508566E-6
0.0065                    -0.0275                  4.552120177651771E-6
0.0065                    -0.0265                  4.7623586187813624E-6
0.0065                    -0.0255                  4.865672544170087E-6
0.0065                    -0.0245                  4.894228110431834E-6
0.0065                    -0.0235                  4.873318257690879E-6
0.0065                    -0.0225                  4.826143214409945E-6
0.0065                    -0.0215                  4.767636712735484E-6
0.0065                    -0.0205                  4.70676651665291E-6
0.0065                    -0.0195                  4.648213055864242E-6
0.0065                    -0.0185                  4.5944214233227525E-6
0.0065                    -0.0175                  4.547562174991419E-6
0.0065                    -0.0165                  4.51144464264748E-6
0.0065                    -0.0155                  4.493107581407769E-6
0.0065                    -0.0145                  4.5036997377553696E-6
0.0065                    -0.0135                  4.558152130844053E-6
0.0065                    -0.0125                  4.673442862815351E-6
0.0065                    -0.0115                  4.865755228713145E-6
0.0065                    -0.0105                  5.147444749999682E-6
0.0065                    -0.0095                  5.524975838982818E-6
0.0065                    -0.0085                  5.9990581106344545E-6
0.0065                    -0.0075                  6.571853883991037E-6
0.0065                    -0.0065                  7.282342841694504E-6
0.0065                    -0.0055                  8.319324605590684E-6