% Model:              Benchmark260518.mph
% Version:            COMSOL 6.2.0.339
% Date:               May 20 2026, 22:17
% Dimension:          2
% Nodes:              4096
% Expressions:        1
% Description:        速度大小
% Length unit:        m
% x                       y                        spf.U (m/s)
5.0E-4                    -0.0315                  1.1464959803089258E-6
5.0E-4                    -0.0305                  2.3172006677600566E-6
5.0E-4                    -0.0295                  2.6041459658864165E-6
5.0E-4                    -0.0285                  2.889622736918913E-6
5.0E-4                    -0.0275                  3.038526968793424E-6
5.0E-4                    -0.0265                  3.166533783617425E-6
5.0E-4                    -0.0255                  3.2623379208288404E-6
5.0E-4                    -0.0245                  3.3476057943176242E-6
5.0E-4                    -0.0235                  3.426218334078545E-6
5.0E-4                    -0.0225                  3.5017076093983704E-6
5.0E-4                    -0.0215                  3.579123678332431E-6
5.0E-4                    -0.0205                  3.659417205046359E-6
5.0E-4                    -0.0195                  3.7451280505964597E-6
5.0E-4                    -0.0185                  3.839519113249734E-6
5.0E-4                    -0.0175                  3.9460933306191256E-6
5.0E-4                    -0.0165                  4.071873954869274E-6
5.0E-4                    -0.0155                  4.2346950890599875E-6
5.0E-4                    -0.0145                  4.475400880897784E-6
5.0E-4                    -0.0135                  4.927841408075302E-6
5.0E-4                    -0.0125                  6.096820556879468E-6
5.0E-4                    -0.0115                  8.995787840927028E-6
5.0E-4                    -0.0105                  1.2623284319783863E-5
5.0E-4                    -0.0095                  1.551123245084736E-5
5.0E-4                    -0.0085                  1.6991507085347904E-5
5.0E-4                    -0.0075                  1.8838118039426024E-5
5.0E-4                    -0.0065                  2.8162867469235386E-5
5.0E-4                    -0.0055                  6.53709988693047E-5
5.0E-4                    -0.0045                  2.0201932881723394E-4
5.0E-4                    -0.0035                  4.588868749289192E-4
5.0E-4                    -0.0025                  7.600035804049242E-4
5.0E-4                    -0.0015                  0.001115972525971138
5.0E-4                    -5.0E-4                  0.0016688773483752432
5.0E-4                    5.0E-4                   0.0023991764485821925
5.0E-4                    0.0015                   0.002985665080677832
5.0E-4                    0.0025                   0.0031051671019348783
5.0E-4                    0.0035                   0.0026509047709525704
5.0E-4                    0.0045                   0.0017774919340840917
5.0E-4                    0.0055                   0.0010600582813186437
5.0E-4                    0.0065                   0.0017040398522362272
5.0E-4                    0.0075                   0.0025955082852547654
5.0E-4                    0.0085                   0.0028056673164471623
5.0E-4                    0.0095                   0.002363300077913677
5.0E-4                    0.0105                   0.0017132692306829967
5.0E-4                    0.0115                   0.004006118081051075
5.0E-4                    0.0125                   0.021990017588614977
5.0E-4                    0.0135                   0.03565501925106972
5.0E-4                    0.0145                   0.033879566878326974
5.0E-4                    0.0155                   0.02735626286265078
5.0E-4                    0.0165                   0.01832762876393263
5.0E-4                    0.0175                   0.010328991533781966
5.0E-4                    0.0185                   0.004262856741436276
5.0E-4                    0.0195                   0.001071253591619384
5.0E-4                    0.0205                   1.817140474527503E-4
5.0E-4                    0.0215                   8.596589451183191E-5
5.0E-4                    0.0225                   2.9345600826443686E-5
5.0E-4                    0.0235                   1.1984197808680732E-5
5.0E-4                    0.0245                   6.673208670707619E-6
5.0E-4                    0.0255                   5.160096656575092E-6
5.0E-4                    0.0265                   4.59220043750204E-6
5.0E-4                    0.0275                   4.216934784598456E-6
5.0E-4                    0.0285                   3.9426116888394065E-6
5.0E-4                    0.0295                   3.524782332851512E-6
5.0E-4                    0.0305                   3.150897255845191E-6
5.0E-4                    0.0315                   1.5815272581511528E-6
0.0015                    -0.0315                  2.252328006938971E-6
0.0015                    -0.0305                  4.489155328873416E-6
0.0015                    -0.0295                  4.8460019357525055E-6
0.0015                    -0.0285                  5.161635214483566E-6
0.0015                    -0.0275                  5.255171676202283E-6
0.0015                    -0.0265                  5.3361958437110995E-6
0.0015                    -0.0255                  5.3959670880696995E-6
0.0015                    -0.0245                  5.459258385270599E-6
0.0015                    -0.0235                  5.530041312986757E-6
0.0015                    -0.0225                  5.611987224890991E-6
0.0015                    -0.0215                  5.710107428614147E-6
0.0015                    -0.0205                  5.826162264606518E-6
0.0015                    -0.0195                  5.963609379014258E-6
0.0015                    -0.0185                  6.127133596919655E-6
0.0015                    -0.0175                  6.322744209953361E-6
0.0015                    -0.0165                  6.563101608318301E-6
0.0015                    -0.0155                  6.8791577076337205E-6
0.0015                    -0.0145                  7.344901809168726E-6
0.0015                    -0.0135                  8.183907203401888E-6
0.0015                    -0.0125                  1.0141993412671556E-5
0.0015                    -0.0115                  1.4534564534625595E-5
0.0015                    -0.0105                  2.007819679134027E-5
0.0015                    -0.0095                  2.4865789569039836E-5
0.0015                    -0.0085                  2.8350342629544814E-5
0.0015                    -0.0075                  3.400568690330221E-5
0.0015                    -0.0065                  5.497448333208212E-5
0.0015                    -0.0055                  1.3048106105217533E-4
0.0015                    -0.0045                  3.941215711356006E-4
0.0015                    -0.0035                  9.002603109171697E-4
0.0015                    -0.0025                  0.0016635198654086606
0.0015                    -0.0015                  0.0030869067543819522
0.0015                    -5.0E-4                  0.005355757468836444
0.0015                    5.0E-4                   0.007808540170990176
0.0015                    0.0015                   0.009623865643056102
0.0015                    0.0025                   0.01037464015647736
0.0015                    0.0035                   0.009990439970407706
0.0015                    0.0045                   0.008587148696991327
0.0015                    0.0055                   0.0063090346542210496
0.0015                    0.0065                   0.0035481474991503905
0.0015                    0.0075                   0.002017826564322835
0.0015                    0.0085                   0.0029934600998978967
0.0015                    0.0095                   0.0032172866179658345
0.0015                    0.0105                   0.002621944014441437
0.0015                    0.0115                   0.012276666189622523
0.0015                    0.0125                   0.028561103235935376
0.0015                    0.0135                   0.035727049359543225
0.0015                    0.0145                   0.03279548510979869
0.0015                    0.0155                   0.025427638035615277
0.0015                    0.0165                   0.01630103356519165
0.0015                    0.0175                   0.00851974399317283
0.0015                    0.0185                   0.0031502536055340756
0.0015                    0.0195                   8.25335110184E-4
0.0015                    0.0205                   2.711847020056027E-4
0.0015                    0.0215                   1.2917909626180491E-4
0.0015                    0.0225                   4.869221478673906E-5
0.0015                    0.0235                   2.0597857746507145E-5
0.0015                    0.0245                   1.1398139361453011E-5
0.0015                    0.0255                   8.542781163228857E-6
0.0015                    0.0265                   7.579774351454768E-6
0.0015                    0.0275                   7.131942109439863E-6
0.0015                    0.0285                   6.895805301166869E-6
0.0015                    0.0295                   6.459790632255188E-6
0.0015                    0.0305                   6.051913565483538E-6
0.0015                    0.0315                   3.0814111191478014E-6
0.0025                    -0.0315                  2.384188523662659E-6
0.0025                    -0.0305                  4.606172440477224E-6
0.0025                    -0.0295                  4.767843130346075E-6
0.0025                    -0.0285                  4.951161100854654E-6
0.0025                    -0.0275                  4.873292594606892E-6
0.0025                    -0.0265                  4.7718863797306504E-6
0.0025                    -0.0255                  4.672490086809487E-6
0.0025                    -0.0245                  4.599871596267957E-6
0.0025                    -0.0235                  4.560164202451424E-6
0.0025                    -0.0225                  4.557663119693277E-6
0.0025                    -0.0215                  4.594593551806589E-6
0.0025                    -0.0205                  4.67348916573421E-6
0.0025                    -0.0195                  4.796957128873051E-6
0.0025                    -0.0185                  4.968326830864306E-6
0.0025                    -0.0175                  5.192760856166679E-6
0.0025                    -0.0165                  5.481424860724697E-6
0.0025                    -0.0155                  5.8618096363778616E-6
0.0025                    -0.0145                  6.402312223636321E-6
0.0025                    -0.0135                  7.27262803577524E-6
0.0025                    -0.0125                  8.857501092111406E-6
0.0025                    -0.0115                  1.1604667889306216E-5
0.0025                    -0.0105                  1.5301536807561924E-5
0.0025                    -0.0095                  1.9670853688954237E-5
0.0025                    -0.0085                  2.557158584296524E-5
0.0025                    -0.0075                  3.721467779866841E-5
0.0025                    -0.0065                  6.736723865893294E-5
0.0025                    -0.0055                  1.5337561785109163E-4
0.0025                    -0.0045                  4.1203269819332477E-4
0.0025                    -0.0035                  0.001052097411266428
0.0025                    -0.0025                  0.002623091345672892
0.0025                    -0.0015                  0.005824329258856633
0.0025                    -5.0E-4                  0.00993654119068541
0.0025                    5.0E-4                   0.013385185976151917
0.0025                    0.0015                   0.01563985799379376
0.0025                    0.0025                   0.016960569605787
0.0025                    0.0035                   0.01758662551191338
0.0025                    0.0045                   0.017438601538302775
0.0025                    0.0055                   0.016116251394006312
0.0025                    0.0065                   0.013232954556688966
0.0025                    0.0075                   0.009029640825046184
0.0025                    0.0085                   0.00495758187763285
0.0025                    0.0095                   0.004020607218580605
0.0025                    0.0105                   0.009213621239102106
0.0025                    0.0115                   0.020571094327196022
0.0025                    0.0125                   0.03152549305261909
0.0025                    0.0135                   0.03460910388436052
0.0025                    0.0145                   0.030695072834971217
0.0025                    0.0155                   0.02276790478877317
0.0025                    0.0165                   0.013821406426106492
0.0025                    0.0175                   0.006643627029163614
0.0025                    0.0185                   0.002258537906479998
0.0025                    0.0195                   6.092968561587007E-4
0.0025                    0.0205                   1.850396585047444E-4
0.0025                    0.0215                   8.411104733994896E-5
0.0025                    0.0225                   3.7204534018284255E-5
0.0025                    0.0235                   1.7442652707280934E-5
0.0025                    0.0245                   9.96945079203966E-6
0.0025                    0.0255                   7.308420850049121E-6
0.0025                    0.0265                   6.509051020867892E-6
0.0025                    0.0275                   6.361804197968925E-6
0.0025                    0.0285                   6.4095340438783886E-6
0.0025                    0.0295                   6.23321214461587E-6
0.0025                    0.0305                   6.19174819714034E-6
0.0025                    0.0315                   3.2777142332271457E-6
0.0035                    -0.0315                  2.594020221274848E-6
0.0035                    -0.0305                  4.817502951086151E-6
0.0035                    -0.0295                  4.88855933719957E-6
0.0035                    -0.0285                  5.226535060535013E-6
0.0035                    -0.0275                  5.232886253652019E-6
0.0035                    -0.0265                  5.151179675401444E-6
0.0035                    -0.0255                  5.026173867781166E-6
0.0035                    -0.0245                  4.910996736029809E-6
0.0035                    -0.0235                  4.825185017480797E-6
0.0035                    -0.0225                  4.782003868194179E-6
0.0035                    -0.0215                  4.789143701439085E-6
0.0035                    -0.0205                  4.85204882700085E-6
0.0035                    -0.0195                  4.975243285595006E-6
0.0035                    -0.0185                  5.163548433436869E-6
0.0035                    -0.0175                  5.423390389124258E-6
0.0035                    -0.0165                  5.766833253358662E-6
0.0035                    -0.0155                  6.223126618309186E-6
0.0035                    -0.0145                  6.863699787206853E-6
0.0035                    -0.0135                  7.841335198013468E-6
0.0035                    -0.0125                  9.412610015489874E-6
0.0035                    -0.0115                  1.190639008107257E-5
0.0035                    -0.0105                  1.5812649975930253E-5
0.0035                    -0.0095                  2.223013467597772E-5
0.0035                    -0.0085                  3.364833259380635E-5
0.0035                    -0.0075                  5.589578451202175E-5
0.0035                    -0.0065                  1.0611217846993954E-4
0.0035                    -0.0055                  2.2663805787131203E-4
0.0035                    -0.0045                  5.124799709300571E-4
0.0035                    -0.0035                  0.0014780577564616018
0.0035                    -0.0025                  0.004718941418858124
0.0035                    -0.0015                  0.010050714879752648
0.0035                    -5.0E-4                  0.014579230661205946
0.0035                    5.0E-4                   0.017001612038801784
0.0035                    0.0015                   0.018159842031757075
0.0035                    0.0025                   0.01906970105294725
0.0035                    0.0035                   0.020230049189378617
0.0035                    0.0045                   0.02154086497734976
0.0035                    0.0055                   0.02227419360901363
0.0035                    0.0065                   0.021454552376060657
0.0035                    0.0075                   0.018684908878454944
0.0035                    0.0085                   0.015102474521297633
0.0035                    0.0095                   0.013748077202992521
0.0035                    0.0105                   0.017911457480123766
0.0035                    0.0115                   0.025861301834918905
0.0035                    0.0125                   0.031802534575719736
0.0035                    0.0135                   0.03227609181556631
0.0035                    0.0145                   0.027608110309661996
0.0035                    0.0155                   0.019530984523657455
0.0035                    0.0165                   0.011146092236753148
0.0035                    0.0175                   0.004918456782096229
0.0035                    0.0185                   0.001576737518813583
0.0035                    0.0195                   4.496908987127254E-4
0.0035                    0.0205                   1.4344614681839464E-4
0.0035                    0.0215                   6.45957166222586E-5
0.0035                    0.0225                   3.20373642069883E-5
0.0035                    0.0235                   1.6772231913025264E-5
0.0035                    0.0245                   1.0361743387994313E-5
0.0035                    0.0255                   7.93148926140084E-6
0.0035                    0.0265                   7.146478168650888E-6
0.0035                    0.0275                   6.937117630382118E-6
0.0035                    0.0285                   6.853192267660981E-6
0.0035                    0.0295                   6.466148075133548E-6
0.0035                    0.0305                   6.53587908581029E-6
0.0035                    0.0315                   3.5945724971333704E-6
0.0045                    -0.0315                  2.747715742315475E-6
0.0045                    -0.0305                  4.917416598573071E-6
0.0045                    -0.0295                  4.810623643547696E-6
0.0045                    -0.0285                  5.233123925786105E-6
0.0045                    -0.0275                  5.358635738249054E-6
0.0045                    -0.0265                  5.359195811685967E-6
0.0045                    -0.0255                  5.262052977530212E-6
0.0045                    -0.0245                  5.137793952098734E-6
0.0045                    -0.0235                  5.024104969839216E-6
0.0045                    -0.0225                  4.948369700011884E-6
0.0045                    -0.0215                  4.928382860370796E-6
0.0045                    -0.0205                  4.9762498974808E-6
0.0045                    -0.0195                  5.100532075835941E-6
0.0045                    -0.0185                  5.309773858174821E-6
0.0045                    -0.0175                  5.616255194532718E-6
0.0045                    -0.0165                  6.041263336408607E-6
0.0045                    -0.0155                  6.629020159307269E-6
0.0045                    -0.0145                  7.479597151883213E-6
0.0045                    -0.0135                  8.808999460687951E-6
0.0045                    -0.0125                  1.1023739356255377E-5
0.0045                    -0.0115                  1.4843885797636282E-5
0.0045                    -0.0105                  2.1535632932531662E-5
0.0045                    -0.0095                  3.361824848329493E-5
0.0045                    -0.0085                  5.7687823657815195E-5
0.0045                    -0.0075                  1.0760401485665712E-4
0.0045                    -0.0065                  2.0611785287557446E-4
0.0045                    -0.0055                  4.8585921524491727E-4
0.0045                    -0.0045                  0.0010819140880655165
0.0045                    -0.0035                  0.0029900640911488885
0.0045                    -0.0025                  0.008337877172683531
0.0045                    -0.0015                  0.014854935738476191
0.0045                    -5.0E-4                  0.01798404909906768
0.0045                    5.0E-4                   0.01782280996141845
0.0045                    0.0015                   0.016548348489117088
0.0045                    0.0025                   0.015773611966671805
0.0045                    0.0035                   0.016455958103127194
0.0045                    0.0045                   0.018678069315841442
0.0045                    0.0055                   0.0215857513430462
0.0045                    0.0065                   0.02365474917849848
0.0045                    0.0075                   0.023551613252514456
0.0045                    0.0085                   0.02154025713374366
0.0045                    0.0095                   0.02012633130127274
0.0045                    0.0105                   0.02213757558553787
0.0045                    0.0115                   0.02651075635713582
0.0045                    0.0125                   0.029446240496843294
0.0045                    0.0135                   0.028667075837702553
0.0045                    0.0145                   0.023756813617912924
0.0045                    0.0155                   0.01609260589421197
0.0045                    0.0165                   0.008620369094968917
0.0045                    0.0175                   0.0035068179045475694
0.0045                    0.0185                   0.0011038667981279544
0.0045                    0.0195                   3.459134309203524E-4
0.0045                    0.0205                   1.1603750448557224E-4
0.0045                    0.0215                   4.870086631117031E-5
0.0045                    0.0225                   2.622966761596908E-5
0.0045                    0.0235                   1.5223419259343302E-5
0.0045                    0.0245                   1.02214222243617E-5
0.0045                    0.0255                   8.248553915632625E-6
0.0045                    0.0265                   7.561084273094922E-6
0.0045                    0.0275                   7.274516333864474E-6
0.0045                    0.0285                   7.023853931639848E-6
0.0045                    0.0295                   6.498767550290121E-6
0.0045                    0.0305                   6.719865927476365E-6
0.0045                    0.0315                   3.801743992352567E-6
0.0055                    -0.0315                  2.875302626765228E-6
0.0055                    -0.0305                  5.011706244285311E-6
0.0055                    -0.0295                  4.7366808619725215E-6
0.0055                    -0.0285                  5.185694263782708E-6
0.0055                    -0.0275                  5.400206939478398E-6
0.0055                    -0.0265                  5.500138964636938E-6
0.0055                    -0.0255                  5.4670946168039195E-6
0.0055                    -0.0245                  5.365517847464594E-6
0.0055                    -0.0235                  5.2434016356769595E-6
0.0055                    -0.0225                  5.143038071637652E-6
0.0055                    -0.0215                  5.096550918069248E-6
0.0055                    -0.0205                  5.128061632830268E-6
0.0055                    -0.0195                  5.255181298056058E-6
0.0055                    -0.0185                  5.495104357886548E-6
0.0055                    -0.0175                  5.875776205377735E-6
0.0055                    -0.0165                  6.449076653935366E-6
0.0055                    -0.0155                  7.309835080662846E-6
0.0055                    -0.0145                  8.646901332755345E-6
0.0055                    -0.0135                  1.0860685604915132E-5
0.0055                    -0.0125                  1.4804585442548268E-5
0.0055                    -0.0115                  2.208051140388737E-5
0.0055                    -0.0105                  3.5643132326343836E-5
0.0055                    -0.0095                  6.16699713337275E-5
0.0055                    -0.0085                  1.1382477810693643E-4
0.0055                    -0.0075                  2.4921705388782176E-4
0.0055                    -0.0065                  5.192412217064557E-4
0.0055                    -0.0055                  0.0011281034716866226
0.0055                    -0.0045                  0.0025289804161969776
0.0055                    -0.0035                  0.006336256215686914
0.0055                    -0.0025                  0.013294872564942451
0.0055                    -0.0015                  0.01894137925903277
0.0055                    -5.0E-4                  0.019332256537899502
0.0055                    5.0E-4                   0.0159773274348015
0.0055                    0.0015                   0.011898199521169538
0.0055                    0.0025                   0.009235077232740922
0.0055                    0.0035                   0.008821433256814164
0.0055                    0.0045                   0.01062242175389071
0.0055                    0.0055                   0.014222648524081713
0.0055                    0.0065                   0.018472684554488486
0.0055                    0.0075                   0.021340176716365216
0.0055                    0.0085                   0.021605777207282607
0.0055                    0.0095                   0.020601257794155337
0.0055                    0.0105                   0.02106692045909066
0.0055                    0.0115                   0.023345260917159667
0.0055                    0.0125                   0.02502675341758901
0.0055                    0.0135                   0.024058534756162788
0.0055                    0.0145                   0.019691378878028742
0.0055                    0.0155                   0.01305558244448621
0.0055                    0.0165                   0.00668630716773351
0.0055                    0.0175                   0.002567657270815215
0.0055                    0.0185                   8.388467333418636E-4
0.0055                    0.0195                   3.012245261412772E-4
0.0055                    0.0205                   1.1508875230319506E-4
0.0055                    0.0215                   4.585319497032494E-5
0.0055                    0.0225                   2.3200541995532563E-5
0.0055                    0.0235                   1.4019803063145321E-5
0.0055                    0.0245                   1.0068389490584305E-5
0.0055                    0.0255                   8.496411261357763E-6
0.0055                    0.0265                   7.894893751688918E-6
0.0055                    0.0275                   7.538796769352994E-6
0.0055                    0.0285                   7.1723906230122105E-6
0.0055                    0.0295                   6.576897595138263E-6
0.0055                    0.0305                   6.935675047354566E-6
0.0055                    0.0315                   3.998606315434674E-6
0.0065                    -0.0315                  2.9892918504874613E-6
0.0065                    -0.0305                  5.100163996856481E-6
0.0065                    -0.0295                  4.660873350313311E-6
0.0065                    -0.0285                  5.099863724084551E-6
0.0065                    -0.0275                  5.359709052725217E-6
0.0065                    -0.0265                  5.537684749949022E-6
0.0065                    -0.0255                  5.574620965834805E-6
0.0065                    -0.0245                  5.513021231317366E-6
0.0065                    -0.0235                  5.397184205223738E-6
0.0065                    -0.0225                  5.278822018220404E-6
0.0065                    -0.0215                  5.206364562548837E-6
0.0065                    -0.0205                  5.223584599267477E-6
0.0065                    -0.0195                  5.3680850788368234E-6
0.0065                    -0.0185                  5.678563632987792E-6
0.0065                    -0.0175                  6.217302802008949E-6
0.0065                    -0.0165                  7.110088905129707E-6
0.0065                    -0.0155                  8.583339390768518E-6
0.0065                    -0.0145                  1.1014616974127815E-5
0.0065                    -0.0135                  1.5167629626533504E-5
0.0065                    -0.0125                  2.269213848367838E-5
0.0065                    -0.0115                  3.760284853023549E-5
0.0065                    -0.0105                  6.799999592841385E-5
0.0065                    -0.0095                  1.3158522198405967E-4
0.0065                    -0.0085                  2.6880951953273574E-4
0.0065                    -0.0075                  5.945851125941537E-4
0.0065                    -0.0065                  0.0012322859331416604
0.0065                    -0.0055                  0.0025591136634754673