% Model:              Benchmark260518.mph
% Version:            COMSOL 6.2.0.339
% Date:               May 20 2026, 18:24
% Dimension:          2
% Nodes:              4096
% Expressions:        1
% Description:        速度大小
% Length unit:        m
% x                       y                        spf.U (m/s)
5.0E-4                    -0.0315                  1.507224495906506E-6
5.0E-4                    -0.0305                  3.008931581042936E-6
5.0E-4                    -0.0295                  3.2726013624430045E-6
5.0E-4                    -0.0285                  3.6435058970103427E-6
5.0E-4                    -0.0275                  3.939624704578094E-6
5.0E-4                    -0.0265                  4.149779767000196E-6
5.0E-4                    -0.0255                  4.349255926004971E-6
5.0E-4                    -0.0245                  4.585159156492001E-6
5.0E-4                    -0.0235                  4.804204339729512E-6
5.0E-4                    -0.0225                  5.056317987079653E-6
5.0E-4                    -0.0215                  5.362167768939174E-6
5.0E-4                    -0.0205                  5.721358167392035E-6
5.0E-4                    -0.0195                  6.162198205661511E-6
5.0E-4                    -0.0185                  6.723307354481003E-6
5.0E-4                    -0.0175                  7.469126544594488E-6
5.0E-4                    -0.0165                  8.48392292223367E-6
5.0E-4                    -0.0155                  9.949048100085461E-6
5.0E-4                    -0.0145                  1.221716261794183E-5
5.0E-4                    -0.0135                  1.5702838672027936E-5
5.0E-4                    -0.0125                  2.353811470174223E-5
5.0E-4                    -0.0115                  4.617118617787423E-5
5.0E-4                    -0.0105                  1.1616489213662535E-4
5.0E-4                    -0.0095                  3.5521400764178447E-4
5.0E-4                    -0.0085                  7.417755720146262E-4
5.0E-4                    -0.0075                  0.0010304804624265884
5.0E-4                    -0.0065                  0.0015098464816863941
5.0E-4                    -0.0055                  0.0032406460712471664
5.0E-4                    -0.0045                  0.006048261278204659
5.0E-4                    -0.0035                  0.009037943385237297
5.0E-4                    -0.0025                  0.01123372828679303
5.0E-4                    -0.0015                  0.012027659575284119
5.0E-4                    -5.0E-4                  0.011295294965845127
5.0E-4                    5.0E-4                   0.009293493735700277
5.0E-4                    0.0015                   0.006512343716641056
5.0E-4                    0.0025                   0.0033386314852147394
5.0E-4                    0.0035                   0.0012816225155176883
5.0E-4                    0.0045                   0.0024503706308000137
5.0E-4                    0.0055                   0.002266457428434658
5.0E-4                    0.0065                   0.0014540567980167482
5.0E-4                    0.0075                   7.789981795438741E-4
5.0E-4                    0.0085                   5.282353915580807E-4
5.0E-4                    0.0095                   7.01348469345854E-4
5.0E-4                    0.0105                   0.0015448437158377731
5.0E-4                    0.0115                   0.002549812506988316
5.0E-4                    0.0125                   0.00339504384042774
5.0E-4                    0.0135                   0.0066210075507469645
5.0E-4                    0.0145                   0.14647606219546908
5.0E-4                    0.0155                   0.2893442051298887
5.0E-4                    0.0165                   0.25632913854308115
5.0E-4                    0.0175                   0.10753102687275107
5.0E-4                    0.0185                   9.629568190594372E-4
5.0E-4                    0.0195                   8.676470343234702E-4
5.0E-4                    0.0205                   5.761628423639157E-4
5.0E-4                    0.0215                   3.890735151112308E-4
5.0E-4                    0.0225                   1.8890786956739396E-4
5.0E-4                    0.0235                   6.62116276787492E-5
5.0E-4                    0.0245                   2.6687322208348094E-5
5.0E-4                    0.0255                   1.4211011681558795E-5
5.0E-4                    0.0265                   1.0014946637809986E-5
5.0E-4                    0.0275                   8.61040112880421E-6
5.0E-4                    0.0285                   8.1316525025097E-6
5.0E-4                    0.0295                   7.842852512794574E-6
5.0E-4                    0.0305                   7.674406187776153E-6
5.0E-4                    0.0315                   3.9349736951468615E-6
0.0015                    -0.0315                  2.9491082444828775E-6
0.0015                    -0.0305                  5.8775814231970736E-6
0.0015                    -0.0295                  6.296821207858373E-6
0.0015                    -0.0285                  6.762109680048245E-6
0.0015                    -0.0275                  7.035822903731116E-6
0.0015                    -0.0265                  7.248180587736976E-6
0.0015                    -0.0255                  7.47555317502525E-6
0.0015                    -0.0245                  7.781339682203517E-6
0.0015                    -0.0235                  8.12382807041802E-6
0.0015                    -0.0225                  8.557979543568287E-6
0.0015                    -0.0215                  9.1172195928666E-6
0.0015                    -0.0205                  9.81553947180409E-6
0.0015                    -0.0195                  1.0698456981605843E-5
0.0015                    -0.0185                  1.1835650468842617E-5
0.0015                    -0.0175                  1.3345219441686127E-5
0.0015                    -0.0165                  1.542071092423963E-5
0.0015                    -0.0155                  1.848161518593026E-5
0.0015                    -0.0145                  2.3418655275526686E-5
0.0015                    -0.0135                  3.2185934006264004E-5
0.0015                    -0.0125                  5.2027153403212274E-5
0.0015                    -0.0115                  1.0643497697254124E-4
0.0015                    -0.0105                  2.6327249077929605E-4
0.0015                    -0.0095                  8.22671931619043E-4
0.0015                    -0.0085                  0.0017584656841750786
0.0015                    -0.0075                  0.0037408530645392183
0.0015                    -0.0065                  0.008320393852878584
0.0015                    -0.0055                  0.015218341264386858
0.0015                    -0.0045                  0.022440179510001095
0.0015                    -0.0035                  0.028453778406844918
0.0015                    -0.0025                  0.03234295067631043
0.0015                    -0.0015                  0.03374736329633198
0.0015                    -5.0E-4                  0.03270281508976911
0.0015                    5.0E-4                   0.029420153173479995
0.0015                    0.0015                   0.024160263870734906
0.0015                    0.0025                   0.017049621650482787
0.0015                    0.0035                   0.008665897864504104
0.0015                    0.0045                   0.0029794727096479926
0.0015                    0.0055                   0.00398759693365672
0.0015                    0.0065                   0.003128799801349223
0.0015                    0.0075                   0.001926667512128447
0.0015                    0.0085                   0.001326485644251731
0.0015                    0.0095                   0.0015023845637119357
0.0015                    0.0105                   0.0028770735975713452
0.0015                    0.0115                   0.004525824111445334
0.0015                    0.0125                   0.006281526919119296
0.0015                    0.0135                   0.017189874372525584
0.0015                    0.0145                   0.15903409675071647
0.0015                    0.0155                   0.28844861320088044
0.0015                    0.0165                   0.25167144551202886
0.0015                    0.0175                   0.10503010379739734
0.0015                    0.0185                   0.001660177754205565
0.0015                    0.0195                   0.0014957966220066914
0.0015                    0.0205                   8.273017532830548E-4
0.0015                    0.0215                   5.278204526785293E-4
0.0015                    0.0225                   2.599997490196394E-4
0.0015                    0.0235                   1.0324571071148125E-4
0.0015                    0.0245                   4.559707897353731E-5
0.0015                    0.0255                   2.556466526215255E-5
0.0015                    0.0265                   1.865854638819189E-5
0.0015                    0.0275                   1.6467926523184723E-5
0.0015                    0.0285                   1.5969657244828215E-5
0.0015                    0.0295                   1.5688400196083767E-5
0.0015                    0.0305                   1.542156106351373E-5
0.0015                    0.0315                   7.927444149255337E-6
0.0025                    -0.0315                  3.02563411909312E-6
0.0025                    -0.0305                  6.005215623544041E-6
0.0025                    -0.0295                  6.455989002295809E-6
0.0025                    -0.0285                  6.847399374009696E-6
0.0025                    -0.0275                  6.87939473416811E-6
0.0025                    -0.0265                  6.905946818185476E-6
0.0025                    -0.0255                  6.973191102977086E-6
0.0025                    -0.0245                  7.140040911399729E-6
0.0025                    -0.0235                  7.434285790537115E-6
0.0025                    -0.0225                  7.876528258217221E-6
0.0025                    -0.0215                  8.493248987937252E-6
0.0025                    -0.0205                  9.313191965754836E-6
0.0025                    -0.0195                  1.0376591935604462E-5
0.0025                    -0.0185                  1.1759256177635498E-5
0.0025                    -0.0175                  1.3614968449083735E-5
0.0025                    -0.0165                  1.6280300566108437E-5
0.0025                    -0.0155                  2.05218061640195E-5
0.0025                    -0.0145                  2.8148061677820053E-5
0.0025                    -0.0135                  4.395571570272319E-5
0.0025                    -0.0125                  8.019429960736143E-5
0.0025                    -0.0115                  1.7259257726521643E-4
0.0025                    -0.0105                  4.407223445872037E-4
0.0025                    -0.0095                  0.0013625987939439891
0.0025                    -0.0085                  0.003921969886183257
0.0025                    -0.0075                  0.010434862992934757
0.0025                    -0.0065                  0.020772535371326326
0.0025                    -0.0055                  0.030945764657052
0.0025                    -0.0045                  0.038416106720260766
0.0025                    -0.0035                  0.04313111942433638
0.0025                    -0.0025                  0.04580160057072019
0.0025                    -0.0015                  0.047026486395111325
0.0025                    -5.0E-4                  0.047101964690686914
0.0025                    5.0E-4                   0.045938117529075416
0.0025                    0.0015                   0.04293948601187355
0.0025                    0.0025                   0.037119285809479284
0.0025                    0.0035                   0.027642070462448227
0.0025                    0.0045                   0.015078407044219332
0.0025                    0.0055                   0.004763197723424756
0.0025                    0.0065                   0.004741128007246657
0.0025                    0.0075                   0.004250923979576774
0.0025                    0.0085                   0.0026790144370929412
0.0025                    0.0095                   0.002261766003156411
0.0025                    0.0105                   0.003233750183250015
0.0025                    0.0115                   0.00414483929750137
0.0025                    0.0125                   0.006554604751739947
0.0025                    0.0135                   0.02556175223333166
0.0025                    0.0145                   0.17109536105199266
0.0025                    0.0155                   0.28734097363303956
0.0025                    0.0165                   0.24593095528688866
0.0025                    0.0175                   0.10071272317408193
0.0025                    0.0185                   0.0015249302640391795
0.0025                    0.0195                   0.001564209446549103
0.0025                    0.0205                   5.423635556280118E-4
0.0025                    0.0215                   2.6697605739393676E-4
0.0025                    0.0225                   1.3258730712068604E-4
0.0025                    0.0235                   7.025267179677562E-5
0.0025                    0.0245                   3.853422824028735E-5
0.0025                    0.0255                   2.45686637025129E-5
0.0025                    0.0265                   1.9377032657896414E-5
0.0025                    0.0275                   1.7842606948281205E-5
0.0025                    0.0285                   1.7675596117030673E-5
0.0025                    0.0295                   1.7207949368234396E-5
0.0025                    0.0305                   1.6838215753350848E-5
0.0025                    0.0315                   8.798040611380369E-6
0.0035                    -0.0315                  3.1350868949992998E-6
0.0035                    -0.0305                  6.110433449166676E-6
0.0035                    -0.0295                  6.61443654378513E-6
0.0035                    -0.0285                  7.25246051906936E-6
0.0035                    -0.0275                  7.410412036273774E-6
0.0035                    -0.0265                  7.471751823524991E-6
0.0035                    -0.0255                  7.531341104029845E-6
0.0035                    -0.0245                  7.68632175563904E-6
0.0035                    -0.0235                  7.984721397187192E-6
0.0035                    -0.0225                  8.464633934342681E-6
0.0035                    -0.0215                  9.158826065147236E-6
0.0035                    -0.0205                  1.0107550857831595E-5
0.0035                    -0.0195                  1.137598262071962E-5
0.0035                    -0.0185                  1.3095446692510676E-5
0.0035                    -0.0175                  1.5559352519408217E-5
0.0035                    -0.0165                  1.944673210873722E-5
0.0035                    -0.0155                  2.634173694192117E-5
0.0035                    -0.0145                  4.005944881324394E-5
0.0035                    -0.0135                  7.013329701378233E-5
0.0035                    -0.0125                  1.4371803672140585E-4
0.0035                    -0.0115                  3.35284269550681E-4
0.0035                    -0.0105                  8.976483072732274E-4
0.0035                    -0.0095                  0.0028517857416889805
0.0035                    -0.0085                  0.00942606724858458
0.0035                    -0.0075                  0.021399831514734555
0.0035                    -0.0065                  0.03356411821519037
0.0035                    -0.0055                  0.041722840216275106
0.0035                    -0.0045                  0.04613216323758215
0.0035                    -0.0035                  0.048335498394300416
0.0035                    -0.0025                  0.04948914236139044
0.0035                    -0.0015                  0.05037226275054696
0.0035                    -5.0E-4                  0.051400897509084234
0.0035                    5.0E-4                   0.052541937093539576
0.0035                    0.0015                   0.0531024388536353
0.0035                    0.0025                   0.05163744213206376
0.0035                    0.0035                   0.046189676345883036
0.0035                    0.0045                   0.03521982562983028
0.0035                    0.0055                   0.01955794839869778
0.0035                    0.0065                   0.007392951965175116
0.0035                    0.0075                   0.008838732155732304
0.0035                    0.0085                   0.007641761411935447
0.0035                    0.0095                   0.004843316833956603
0.0035                    0.0105                   0.00444736869076047
0.0035                    0.0115                   0.004834270932673125
0.0035                    0.0125                   0.008498909663833602
0.0035                    0.0135                   0.035249921676614615
0.0035                    0.0145                   0.18418806622306103
0.0035                    0.0155                   0.28586152417015775
0.0035                    0.0165                   0.2390780186555973
0.0035                    0.0175                   0.09489681284263235
0.0035                    0.0185                   0.002401491497317687
0.0035                    0.0195                   0.002036242266919427
0.0035                    0.0205                   6.414453181005109E-4
0.0035                    0.0215                   2.6412495829057506E-4
0.0035                    0.0225                   1.2068168362628808E-4
0.0035                    0.0235                   6.506551397108844E-5
0.0035                    0.0245                   3.9003315122930767E-5
0.0035                    0.0255                   2.7065415480000023E-5
0.0035                    0.0265                   2.23804241260152E-5
0.0035                    0.0275                   2.0797276198821207E-5
0.0035                    0.0285                   2.017423746378105E-5
0.0035                    0.0295                   1.886960493447348E-5
0.0035                    0.0305                   1.848503223920861E-5
0.0035                    0.0315                   9.952265997784614E-6
0.0045                    -0.0315                  3.221681501763361E-6
0.0045                    -0.0305                  6.1055865510100006E-6
0.0045                    -0.0295                  6.458697447939146E-6
0.0045                    -0.0285                  7.208483498646456E-6
0.0045                    -0.0275                  7.516528055079688E-6
0.0045                    -0.0265                  7.684592461089812E-6
0.0045                    -0.0255                  7.79663157029223E-6
0.0045                    -0.0245                  7.979585419719125E-6
0.0045                    -0.0235                  8.310067273827901E-6
0.0045                    -0.0225                  8.849820658699343E-6
0.0045                    -0.0215                  9.653997013630281E-6
0.0045                    -0.0205                  1.079456835255902E-5
0.0045                    -0.0195                  1.2399794293549215E-5
0.0045                    -0.0185                  1.4732994874657402E-5
0.0045                    -0.0175                  1.837926550625478E-5
0.0045                    -0.0165                  2.4648432735262664E-5
0.0045                    -0.0155                  3.6719158415809976E-5
0.0045                    -0.0145                  6.183545240330036E-5
0.0045                    -0.0135                  1.218878814810004E-4
0.0045                    -0.0125                  2.721384165902203E-4
0.0045                    -0.0115                  7.899106470824748E-4
0.0045                    -0.0105                  0.0020794357701705325
0.0045                    -0.0095                  0.006760671461203746
0.0045                    -0.0085                  0.018655527326592224
0.0045                    -0.0075                  0.03336451502719596
0.0045                    -0.0065                  0.043018958777555634
0.0045                    -0.0055                  0.04698257871913782
0.0045                    -0.0045                  0.04775130302228774
0.0045                    -0.0035                  0.046864312118450095
0.0045                    -0.0025                  0.04546310449954057
0.0045                    -0.0015                  0.04478258916914257
0.0045                    -5.0E-4                  0.04582402403084336
0.0045                    5.0E-4                   0.048840543321259
0.0045                    0.0015                   0.053035289404357575
0.0045                    0.0025                   0.056667647054207945
0.0045                    0.0035                   0.05743803588365545
0.0045                    0.0045                   0.0527834950334322
0.0045                    0.0055                   0.04085473715061883
0.0045                    0.0065                   0.022808175176594187
0.0045                    0.0075                   0.011394580009740942
0.0045                    0.0085                   0.015432902611941643
0.0045                    0.0095                   0.01410248604538798
0.0045                    0.0105                   0.010345293156502606
0.0045                    0.0115                   0.007574057349409098
0.0045                    0.0125                   0.010278879375976439
0.0045                    0.0135                   0.0472752147916494
0.0045                    0.0145                   0.19776657428867858
0.0045                    0.0155                   0.2836659448791046
0.0045                    0.0165                   0.2309671843435492
0.0045                    0.0175                   0.08785360288557871
0.0045                    0.0185                   0.0037585031436053744
0.0045                    0.0195                   0.002660525880478825
0.0045                    0.0205                   8.337573013557225E-4
0.0045                    0.0215                   3.087998937333079E-4
0.0045                    0.0225                   1.2790676555645629E-4
0.0045                    0.0235                   6.636632413518777E-5
0.0045                    0.0245                   3.996723733522871E-5
0.0045                    0.0255                   2.8763926810515028E-5
0.0045                    0.0265                   2.440437700371084E-5
0.0045                    0.0275                   2.26441321661406E-5
0.0045                    0.0285                   2.148963871966911E-5
0.0045                    0.0295                   1.963096241337489E-5
0.0045                    0.0305                   1.9582840851570968E-5
0.0045                    0.0315                   1.0845024326103371E-5
0.0055                    -0.0315                  3.3484691202011017E-6
0.0055                    -0.0305                  6.174129480512859E-6
0.0055                    -0.0295                  6.303506860848341E-6
0.0055                    -0.0285                  7.050346121681278E-6
0.0055                    -0.0275                  7.439904394414845E-6
0.0055                    -0.0265                  7.711382670461038E-6
0.0055                    -0.0255                  7.899019930014063E-6
0.0055                    -0.0245                  8.135941337693801E-6
0.0055                    -0.0235                  8.526866307842444E-6
0.0055                    -0.0225                  9.172122547547711E-6
0.0055                    -0.0215                  1.0178074201397552E-5
0.0055                    -0.0205                  1.1692995332947036E-5
0.0055                    -0.0195                  1.398176589529231E-5
0.0055                    -0.0185                  1.7574513929928892E-5
0.0055                    -0.0175                  2.3565142732809552E-5
0.0055                    -0.0165                  3.440874940056872E-5
0.0055                    -0.0155                  5.581083793442096E-5
0.0055                    -0.0145                  1.0346609818319431E-4
0.0055                    -0.0135                  2.220131074560839E-4
0.0055                    -0.0125                  5.876205102653665E-4
0.0055                    -0.0115                  0.0016968327158917976
0.0055                    -0.0105                  0.00471638692244558
0.0055                    -0.0095                  0.0139800765635822
0.0055                    -0.0085                  0.029984750179995728
0.0055                    -0.0075                  0.0433263677128014
0.0055                    -0.0065                  0.04843368835928203
0.0055                    -0.0055                  0.04788147071794956
0.0055                    -0.0045                  0.04403160106244132
0.0055                    -0.0035                  0.038265263839282755
0.0055                    -0.0025                  0.032548687786775346
0.0055                    -0.0015                  0.02898926435436628
0.0055                    -5.0E-4                  0.029072343297293947
0.0055                    5.0E-4                   0.03336894733509336
0.0055                    0.0015                   0.04132140455982179
0.0055                    0.0025                   0.050929164250215785
0.0055                    0.0035                   0.059113084001336656
0.0055                    0.0045                   0.06270583355179422
0.0055                    0.0055                   0.0589321869369928
0.0055                    0.0065                   0.04583825604422361
0.0055                    0.0075                   0.024639745814760947
0.0055                    0.0085                   0.015961721249518383
0.0055                    0.0095                   0.02295492970900614
0.0055                    0.0105                   0.02181509337859139
0.0055                    0.0115                   0.015585164654219134
0.0055                    0.0125                   0.010335786962332833
0.0055                    0.0135                   0.062329056334465324
0.0055                    0.0145                   0.21111015323407445
0.0055                    0.0155                   0.28059446882706307
0.0055                    0.0165                   0.22142056725711076
0.0055                    0.0175                   0.07978032599514426
0.0055                    0.0185                   0.005154563149433683
0.0055                    0.0195                   0.00342327002416169
0.0055                    0.0205                   0.0010724332608651771
0.0055                    0.0215                   3.921848047913579E-4
0.0055                    0.0225                   1.4838118178603246E-4
0.0055                    0.0235                   7.1917119519303E-5
0.0055                    0.0245                   4.21148668003176E-5
0.0055                    0.0255                   3.0481409895380525E-5
0.0055                    0.0265                   2.605282579823349E-5
0.0055                    0.0275                   2.401790477113432E-5
0.0055                    0.0285                   2.2455069945061327E-5
0.0055                    0.0295                   2.0288447563755184E-5
0.0055                    0.0305                   2.0556852377550782E-5
0.0055                    0.0315                   1.1576691641123999E-5
0.0065                    -0.0315                  3.5350117123189415E-6
0.0065                    -0.0305                  6.312391917471323E-6
0.0065                    -0.0295                  6.1527169055860225E-6
0.0065                    -0.0285                  6.842431506242408E-6
0.0065                    -0.0275                  7.240928126430295E-6
0.0065                    -0.0265                  7.571182383798232E-6
0.0065                    -0.0255                  7.827646838634346E-6
0.0065                    -0.0245                  8.142802387078019E-6
0.0065                    -0.0235                  8.657270550618018E-6
0.0065                    -0.0225                  9.538857542695407E-6
0.0065                    -0.0215                  1.1001274107375944E-5
0.0065                    -0.0205                  1.3356902306803058E-5
0.0065                    -0.0195                  1.7100407656488013E-5
0.0065                    -0.0185                  2.3224199243908905E-5
0.0065                    -0.0175                  3.372815020360006E-5
0.0065                    -0.0165                  5.277538446079216E-5
0.0065                    -0.0155                  9.166329392791024E-5
0.0065                    -0.0145                  1.828949092245196E-4
0.0065                    -0.0135                  4.4200135048190345E-4
0.0065                    -0.0125                  0.001237487387306376
0.0065                    -0.0115                  0.0032959443468160298
0.0065                    -0.0105                  0.00968283125087576
0.0065                    -0.0095                  0.023853709989970634
0.0065                    -0.0085                  0.040388438657305244
0.0065                    -0.0075                  0.049486845413813325
0.0065                    -0.0065                  0.04981907910078674
0.0065                    -0.0055                  0.04436230066879589
0.0065                    -0.0045                  0.03489698544348782