% Model:              Benchmark260518.mph
% Version:            COMSOL 6.2.0.339
% Date:               May 19 2026, 23:21
% Dimension:          2
% Nodes:              4096
% Expressions:        1
% Description:        速度大小
% Length unit:        m
% x                       y                        spf.U (m/s)
5.0E-4                    -0.0315                  1.145359842166946E-6
5.0E-4                    -0.0305                  2.3129058770404335E-6
5.0E-4                    -0.0295                  2.6511452975255236E-6
5.0E-4                    -0.0285                  3.036906226635276E-6
5.0E-4                    -0.0275                  3.2740663603796373E-6
5.0E-4                    -0.0265                  3.4746323951367133E-6
5.0E-4                    -0.0255                  3.6247947034852994E-6
5.0E-4                    -0.0245                  3.750398528904101E-6
5.0E-4                    -0.0235                  3.861064283581558E-6
5.0E-4                    -0.0225                  3.960358460542154E-6
5.0E-4                    -0.0215                  4.042710795979381E-6
5.0E-4                    -0.0205                  4.087687274496902E-6
5.0E-4                    -0.0195                  4.063998094199953E-6
5.0E-4                    -0.0185                  3.961255630167647E-6
5.0E-4                    -0.0175                  3.850480852018146E-6
5.0E-4                    -0.0165                  3.7973013835816623E-6
5.0E-4                    -0.0155                  3.7939227052464916E-6
5.0E-4                    -0.0145                  3.8468555101697074E-6
5.0E-4                    -0.0135                  3.992405224204957E-6
5.0E-4                    -0.0125                  4.234460261539185E-6
5.0E-4                    -0.0115                  4.527207815260088E-6
5.0E-4                    -0.0105                  4.702667024872908E-6
5.0E-4                    -0.0095                  4.639676043842538E-6
5.0E-4                    -0.0085                  4.564469418942591E-6
5.0E-4                    -0.0075                  4.641139555623555E-6
5.0E-4                    -0.0065                  4.784983185440693E-6
5.0E-4                    -0.0055                  4.88753288739537E-6
5.0E-4                    -0.0045                  4.840010418266689E-6
5.0E-4                    -0.0035                  4.789166069110879E-6
5.0E-4                    -0.0025                  4.888622413125398E-6
5.0E-4                    -0.0015                  4.994869507001082E-6
5.0E-4                    -5.0E-4                  5.161145707351261E-6
5.0E-4                    5.0E-4                   5.4158799689315375E-6
5.0E-4                    0.0015                   5.726534269363692E-6
5.0E-4                    0.0025                   6.344694076606743E-6
5.0E-4                    0.0035                   7.225687591766776E-6
5.0E-4                    0.0045                   8.660267018592001E-6
5.0E-4                    0.0055                   1.4041649048652785E-5
5.0E-4                    0.0065                   3.390090276870359E-5
5.0E-4                    0.0075                   9.893222878532954E-5
5.0E-4                    0.0085                   2.1016359068385922E-4
5.0E-4                    0.0095                   3.0202876103376696E-4
5.0E-4                    0.0105                   2.921761770050698E-4
5.0E-4                    0.0115                   2.5381548016919326E-4
5.0E-4                    0.0125                   3.876666371658215E-4
5.0E-4                    0.0135                   5.394395142681986E-4
5.0E-4                    0.0145                   5.900276701083874E-4
5.0E-4                    0.0155                   5.452775329260129E-4
5.0E-4                    0.0165                   3.929093655724623E-4
5.0E-4                    0.0175                   3.2497691722579834E-4
5.0E-4                    0.0185                   0.0023423110959127744
5.0E-4                    0.0195                   0.007204925009065226
5.0E-4                    0.0205                   0.01855157177597162
5.0E-4                    0.0215                   0.02469694463841425
5.0E-4                    0.0225                   0.019863716557743775
5.0E-4                    0.0235                   0.01413160852185519
5.0E-4                    0.0245                   0.00837655913151651
5.0E-4                    0.0255                   0.0038869625983495157
5.0E-4                    0.0265                   0.0012700843278703395
5.0E-4                    0.0275                   3.3350659919647896E-4
5.0E-4                    0.0285                   7.627174792546507E-5
5.0E-4                    0.0295                   2.9011103733895087E-5
5.0E-4                    0.0305                   1.1879361879202088E-5
5.0E-4                    0.0315                   4.069950968921028E-6
0.0015                    -0.0315                  2.2499536892120285E-6
0.0015                    -0.0305                  4.4395356279924695E-6
0.0015                    -0.0295                  4.794304977243559E-6
0.0015                    -0.0285                  5.2086078150660115E-6
0.0015                    -0.0275                  5.408954410300178E-6
0.0015                    -0.0265                  5.581334368766276E-6
0.0015                    -0.0255                  5.7099792482047944E-6
0.0015                    -0.0245                  5.822122019443276E-6
0.0015                    -0.0235                  5.9261283747426045E-6
0.0015                    -0.0225                  6.023597813540018E-6
0.0015                    -0.0215                  6.105310413260629E-6
0.0015                    -0.0205                  6.146288636573417E-6
0.0015                    -0.0195                  6.112377288837127E-6
0.0015                    -0.0185                  5.997327932325513E-6
0.0015                    -0.0175                  5.877806930932843E-6
0.0015                    -0.0165                  5.825064737023497E-6
0.0015                    -0.0155                  5.837706051696733E-6
0.0015                    -0.0145                  5.925542469080276E-6
0.0015                    -0.0135                  6.125785959136255E-6
0.0015                    -0.0125                  6.43933641796733E-6
0.0015                    -0.0115                  6.80273094307907E-6
0.0015                    -0.0105                  7.0298900562443645E-6
0.0015                    -0.0095                  7.002090346978013E-6
0.0015                    -0.0085                  6.948055321855592E-6
0.0015                    -0.0075                  7.040175664854883E-6
0.0015                    -0.0065                  7.19504099704769E-6
0.0015                    -0.0055                  7.290290937022014E-6
0.0015                    -0.0045                  7.2273427700102925E-6
0.0015                    -0.0035                  7.1656279487184286E-6
0.0015                    -0.0025                  7.267378072737249E-6
0.0015                    -0.0015                  7.41526129811102E-6
0.0015                    -5.0E-4                  7.666780650240224E-6
0.0015                    5.0E-4                   8.069756775155305E-6
0.0015                    0.0015                   8.6464430302197E-6
0.0015                    0.0025                   9.719026558811541E-6
0.0015                    0.0035                   1.1488353602001237E-5
0.0015                    0.0045                   1.5016843397696815E-5
0.0015                    0.0055                   2.5778092851824163E-5
0.0015                    0.0065                   5.953702108811553E-5
0.0015                    0.0075                   1.562636912765468E-4
0.0015                    0.0085                   3.4138545000307114E-4
0.0015                    0.0095                   5.432102723338768E-4
0.0015                    0.0105                   6.784813201863208E-4
0.0015                    0.0115                   7.78685056763385E-4
0.0015                    0.0125                   6.674272326710977E-4
0.0015                    0.0135                   8.342496461725628E-4
0.0015                    0.0145                   0.0014754188067114674
0.0015                    0.0155                   0.002420605668739613
0.0015                    0.0165                   0.003876467972584448
0.0015                    0.0175                   0.006439785000893573
0.0015                    0.0185                   0.011271007245462863
0.0015                    0.0195                   0.018783016665838977
0.0015                    0.0205                   0.024666682744602084
0.0015                    0.0215                   0.02347976722032411
0.0015                    0.0225                   0.01757994817459537
0.0015                    0.0235                   0.011429348271188647
0.0015                    0.0245                   0.006044292131437927
0.0015                    0.0255                   0.002438124492325112
0.0015                    0.0265                   7.655086723085691E-4
0.0015                    0.0275                   2.68979660712835E-4
0.0015                    0.0285                   1.3879971482904806E-4
0.0015                    0.0295                   5.6509492949418695E-5
0.0015                    0.0305                   2.466531220703692E-5
0.0015                    0.0315                   8.740989804439263E-6
0.0025                    -0.0315                  2.4471787146292097E-6
0.0025                    -0.0305                  4.565322371289587E-6
0.0025                    -0.0295                  4.516339415162131E-6
0.0025                    -0.0285                  4.6633214809397965E-6
0.0025                    -0.0275                  4.6104093573056805E-6
0.0025                    -0.0265                  4.547478991890787E-6
0.0025                    -0.0255                  4.4802529091091015E-6
0.0025                    -0.0245                  4.426025906642908E-6
0.0025                    -0.0235                  4.3856650496814236E-6
0.0025                    -0.0225                  4.357882233960497E-6
0.0025                    -0.0215                  4.337492557570321E-6
0.0025                    -0.0205                  4.317788401891802E-6
0.0025                    -0.0195                  4.2943807504546015E-6
0.0025                    -0.0185                  4.271678048265432E-6
0.0025                    -0.0175                  4.2592490634695294E-6
0.0025                    -0.0165                  4.267545330122372E-6
0.0025                    -0.0155                  4.305150096603718E-6
0.0025                    -0.0145                  4.376761691557746E-6
0.0025                    -0.0135                  4.484654267212968E-6
0.0025                    -0.0125                  4.623169449120892E-6
0.0025                    -0.0115                  4.7664807123809306E-6
0.0025                    -0.0105                  4.883324678320657E-6
0.0025                    -0.0095                  4.96439539080741E-6
0.0025                    -0.0085                  5.014735682932237E-6
0.0025                    -0.0075                  5.046564149804951E-6
0.0025                    -0.0065                  5.0563200736900545E-6
0.0025                    -0.0055                  5.02698121889375E-6
0.0025                    -0.0045                  4.97257173250905E-6
0.0025                    -0.0035                  4.924169166527828E-6
0.0025                    -0.0025                  4.916372752805105E-6
0.0025                    -0.0015                  4.995045343421791E-6
0.0025                    -5.0E-4                  5.193322741380971E-6
0.0025                    5.0E-4                   5.5737567216620925E-6
0.0025                    0.0015                   6.263004938188668E-6
0.0025                    0.0025                   7.5128344887179376E-6
0.0025                    0.0035                   1.0010929670371433E-5
0.0025                    0.0045                   1.570513643592261E-5
0.0025                    0.0055                   2.9390496371544766E-5
0.0025                    0.0065                   6.239593920831403E-5
0.0025                    0.0075                   1.4222121698692245E-4
0.0025                    0.0085                   3.711215745596377E-4
0.0025                    0.0095                   7.398867457754797E-4
0.0025                    0.0105                   0.0013289739627134378
0.0025                    0.0115                   0.0026079362456313936
0.0025                    0.0125                   0.004655945522999509
0.0025                    0.0135                   0.007062878923174746
0.0025                    0.0145                   0.00945249231482224
0.0025                    0.0155                   0.011836290698108515
0.0025                    0.0165                   0.014493015620381352
0.0025                    0.0175                   0.01771033320920907
0.0025                    0.0185                   0.021375353228724282
0.0025                    0.0195                   0.024180891852885793
0.0025                    0.0205                   0.02411154768746025
0.0025                    0.0215                   0.01996534780523209
0.0025                    0.0225                   0.013702944464071571
0.0025                    0.0235                   0.008008909334585371
0.0025                    0.0245                   0.003732243727466826
0.0025                    0.0255                   0.0013818286844797174
0.0025                    0.0265                   4.7972443932136976E-4
0.0025                    0.0275                   2.3167346900546473E-4
0.0025                    0.0285                   1.340590791653106E-4
0.0025                    0.0295                   5.954516586145279E-5
0.0025                    0.0305                   2.7668239163965738E-5
0.0025                    0.0315                   1.063464493715991E-5
0.0035                    -0.0315                  2.737408747848091E-6
0.0035                    -0.0305                  4.8386741041426836E-6
0.0035                    -0.0295                  4.56261932152073E-6
0.0035                    -0.0285                  4.7991638614516446E-6
0.0035                    -0.0275                  4.798602878703221E-6
0.0035                    -0.0265                  4.751224316426678E-6
0.0035                    -0.0255                  4.667667450653748E-6
0.0035                    -0.0245                  4.584861581859073E-6
0.0035                    -0.0235                  4.51113415639381E-6
0.0035                    -0.0225                  4.4505510780228555E-6
0.0035                    -0.0215                  4.4026473107313866E-6
0.0035                    -0.0205                  4.365817048058083E-6
0.0035                    -0.0195                  4.338923203553982E-6
0.0035                    -0.0185                  4.322666510776405E-6
0.0035                    -0.0175                  4.320375231718661E-6
0.0035                    -0.0165                  4.336331182566128E-6
0.0035                    -0.0155                  4.373906888770097E-6
0.0035                    -0.0145                  4.435991507058673E-6
0.0035                    -0.0135                  4.524684644525806E-6
0.0035                    -0.0125                  4.6381468109920195E-6
0.0035                    -0.0115                  4.768063304153065E-6
0.0035                    -0.0105                  4.8999758474972895E-6
0.0035                    -0.0095                  5.017817360029471E-6
0.0035                    -0.0085                  5.110189028865953E-6
0.0035                    -0.0075                  5.16641559647441E-6
0.0035                    -0.0065                  5.174479507691114E-6
0.0035                    -0.0055                  5.129561058533278E-6
0.0035                    -0.0045                  5.042575867361002E-6
0.0035                    -0.0035                  4.945676020410388E-6
0.0035                    -0.0025                  4.886848434438392E-6
0.0035                    -0.0015                  4.9245603846562825E-6
0.0035                    -5.0E-4                  5.140481752737445E-6
0.0035                    5.0E-4                   5.656897103878577E-6
0.0035                    0.0015                   6.695052969596004E-6
0.0035                    0.0025                   8.757156094098416E-6
0.0035                    0.0035                   1.3109488237818577E-5
0.0035                    0.0045                   2.2993916310383318E-5
0.0035                    0.0055                   4.694153003474794E-5
0.0035                    0.0065                   1.0325840134429175E-4
0.0035                    0.0075                   2.308148792600276E-4
0.0035                    0.0085                   6.64318695259555E-4
0.0035                    0.0095                   0.0017575023158206541
0.0035                    0.0105                   0.004055565899222076
0.0035                    0.0115                   0.00788199897491383
0.0035                    0.0125                   0.012290808219557704
0.0035                    0.0135                   0.01614406605721971
0.0035                    0.0145                   0.019129934837383903
0.0035                    0.0155                   0.021396570630496735
0.0035                    0.0165                   0.02312600413579365
0.0035                    0.0175                   0.02427536458333056
0.0035                    0.0185                   0.0245065036638641
0.0035                    0.0195                   0.023258309482926336
0.0035                    0.0205                   0.01986963250581883
0.0035                    0.0215                   0.014498828220085545
0.0035                    0.0225                   0.008944385985545061
0.0035                    0.0235                   0.004659707593185946
0.0035                    0.0245                   0.0019602409901217956
0.0035                    0.0255                   7.349965574658873E-4
0.0035                    0.0265                   3.1420503987121236E-4
0.0035                    0.0275                   1.988420000426983E-4
0.0035                    0.0285                   1.2245861459893212E-4
0.0035                    0.0295                   5.7456675163784534E-5
0.0035                    0.0305                   2.919572633324479E-5
0.0035                    0.0315                   1.2366402426644291E-5
0.0045                    -0.0315                  2.9301787032430407E-6
0.0045                    -0.0305                  4.971915154906112E-6
0.0045                    -0.0295                  4.4543132410577405E-6
0.0045                    -0.0285                  4.741024484942503E-6
0.0045                    -0.0275                  4.838323470066383E-6
0.0045                    -0.0265                  4.871402658737673E-6
0.0045                    -0.0255                  4.829277289030809E-6
0.0045                    -0.0245                  4.759475963908519E-6
0.0045                    -0.0235                  4.681896737871325E-6
0.0045                    -0.0225                  4.60897519327416E-6
0.0045                    -0.0215                  4.546098582577712E-6
0.0045                    -0.0205                  4.496008022911641E-6
0.0045                    -0.0195                  4.4601299227169725E-6
0.0045                    -0.0185                  4.439429056842485E-6
0.0045                    -0.0175                  4.434572798429741E-6
0.0045                    -0.0165                  4.446360881762265E-6
0.0045                    -0.0155                  4.4762931292613975E-6
0.0045                    -0.0145                  4.52676826652016E-6
0.0045                    -0.0135                  4.600968017183453E-6
0.0045                    -0.0125                  4.701885196306969E-6
0.0045                    -0.0115                  4.829872781373114E-6
0.0045                    -0.0105                  4.979877636216225E-6
0.0045                    -0.0095                  5.1391491674734785E-6
0.0045                    -0.0085                  5.286124202954782E-6
0.0045                    -0.0075                  5.393929409570822E-6
0.0045                    -0.0065                  5.437730888071843E-6
0.0045                    -0.0055                  5.40459815151987E-6
0.0045                    -0.0045                  5.304149153625511E-6
0.0045                    -0.0035                  5.173095957736127E-6
0.0045                    -0.0025                  5.076243366975569E-6
0.0045                    -0.0015                  5.113005818365999E-6
0.0045                    -5.0E-4                  5.435825250796771E-6
0.0045                    5.0E-4                   6.288283049686832E-6
0.0045                    0.0015                   8.096792859242378E-6
0.0045                    0.0025                   1.1823386788041581E-5
0.0045                    0.0035                   1.9841972286579555E-5
0.0045                    0.0045                   3.925969730509007E-5
0.0045                    0.0055                   8.965384722179107E-5
0.0045                    0.0065                   2.439818693104525E-4
0.0045                    0.0075                   5.969579099723411E-4
0.0045                    0.0085                   0.0016126230140048182
0.0045                    0.0095                   0.004513631888003314
0.0045                    0.0105                   0.00954712235380871
0.0045                    0.0115                   0.015110489656532866
0.0045                    0.0125                   0.01954024738688802
0.0045                    0.0135                   0.02237067002540779
0.0045                    0.0145                   0.023886823584468267
0.0045                    0.0155                   0.02437164607381369
0.0045                    0.0165                   0.023963302392376422
0.0045                    0.0175                   0.022693532001131375
0.0045                    0.0185                   0.020513648225986437
0.0045                    0.0195                   0.0172500730373108
0.0045                    0.0205                   0.012930132222297682
0.0045                    0.0215                   0.008353003009062094
0.0045                    0.0225                   0.004632816635111983
0.0045                    0.0235                   0.002200405739462338
0.0045                    0.0245                   9.053643740476614E-4
0.0045                    0.0255                   3.9396319767039285E-4
0.0045                    0.0265                   2.4433438300423723E-4
0.0045                    0.0275                   1.708166722057953E-4
0.0045                    0.0285                   9.221372050449811E-5
0.0045                    0.0295                   4.627551789709967E-5
0.0045                    0.0305                   2.7764460586975996E-5
0.0045                    0.0315                   1.307255371753999E-5
0.0055                    -0.0315                  3.085257954667623E-6
0.0055                    -0.0305                  5.085537255383744E-6
0.0055                    -0.0295                  4.3558675289571075E-6
0.0055                    -0.0285                  4.655597004197586E-6
0.0055                    -0.0275                  4.831375915779492E-6
0.0055                    -0.0265                  4.9651115110189795E-6
0.0055                    -0.0255                  5.0030339937856215E-6
0.0055                    -0.0245                  4.98460983896343E-6
0.0055                    -0.0235                  4.934567499282521E-6
0.0055                    -0.0225                  4.872882812756384E-6
0.0055                    -0.0215                  4.810985955124914E-6
0.0055                    -0.0205                  4.756079218778274E-6
0.0055                    -0.0195                  4.7126894169272795E-6
0.0055                    -0.0185                  4.683623373660151E-6
0.0055                    -0.0175                  4.670300915049416E-6
0.0055                    -0.0165                  4.673136119439323E-6
0.0055                    -0.0155                  4.692452843070422E-6
0.0055                    -0.0145                  4.7299601854017515E-6
0.0055                    -0.0135                  4.789922656576562E-6
0.0055                    -0.0125                  4.8790057371465555E-6
0.0055                    -0.0115                  5.004164859891324E-6
0.0055                    -0.0105                  5.168536408334471E-6
0.0055                    -0.0095                  5.366371890360654E-6
0.0055                    -0.0085                  5.578683858473603E-6
0.0055                    -0.0075                  5.772046699437728E-6
0.0055                    -0.0065                  5.905225106006799E-6
0.0055                    -0.0055                  5.945451440895641E-6
0.0055                    -0.0045                  5.889954072900547E-6
0.0055                    -0.0035                  5.784303674613287E-6
0.0055                    -0.0025                  5.73021814358901E-6
0.0055                    -0.0015                  5.895354044126897E-6
0.0055                    -5.0E-4                  6.553635149101553E-6
0.0055                    5.0E-4                   8.201147855970467E-6
0.0055                    0.0015                   1.1722307992390457E-5
0.0055                    0.0025                   1.8838732472512417E-5
0.0055                    0.0035                   3.472428092013768E-5
0.0055                    0.0045                   7.532500838732412E-5
0.0055                    0.0055                   2.028461426833522E-4
0.0055                    0.0065                   5.929843709216501E-4
0.0055                    0.0075                   0.001500683781685793
0.0055                    0.0085                   0.0040903810220637
0.0055                    0.0095                   0.009640132053897042
0.0055                    0.0105                   0.016207258554951146
0.0055                    0.0115                   0.02064405515555605
0.0055                    0.0125                   0.022383117649817718
0.0055                    0.0135                   0.022255195348770948
0.0055                    0.0145                   0.02100003449806416
0.0055                    0.0155                   0.019180353724987113
0.0055                    0.0165                   0.017100069410099682
0.0055                    0.0175                   0.014784884051313238
0.0055                    0.0185                   0.012119130346906244
0.0055                    0.0195                   0.00912547648757489
0.0055                    0.0205                   0.006140293810323211
0.0055                    0.0215                   0.003636301277390893
0.0055                    0.0225                   0.0019021150310770348
0.0055                    0.0235                   8.960677682461518E-4
0.0055                    0.0245                   4.0501092558845996E-4
0.0055                    0.0255                   2.39844030571371E-4
0.0055                    0.0265                   1.971797125542082E-4
0.0055                    0.0275                   1.3208035834490824E-4
0.0055                    0.0285                   6.852653475954745E-5
0.0055                    0.0295                   3.5665847022783806E-5
0.0055                    0.0305                   2.5358523843793088E-5
0.0055                    0.0315                   1.3185380067744695E-5
0.0065                    -0.0315                  3.2009224624997436E-6
0.0065                    -0.0305                  5.167307990257625E-6
0.0065                    -0.0295                  4.256019101114012E-6
0.0065                    -0.0285                  4.537676571948285E-6
0.0065                    -0.0275                  4.751896663571264E-6
0.0065                    -0.0265                  4.964385889591085E-6
0.0065                    -0.0255                  5.086144491182913E-6
0.0065                    -0.0245                  5.137054383808652E-6
0.0065                    -0.0235                  5.135513170990853E-6
0.0065                    -0.0225                  5.103367809330696E-6
0.0065                    -0.0215                  5.056068216806778E-6
0.0065                    -0.0205                  5.004877293449624E-6
0.0065                    -0.0195                  4.957997851649687E-6
0.0065                    -0.0185                  4.921441005671394E-6
0.0065                    -0.0175                  4.899007387109336E-6
0.0065                    -0.0165                  4.892234080978503E-6
0.0065                    -0.0155                  4.9010597725748065E-6
0.0065                    -0.0145                  4.9256659652886225E-6
0.0065                    -0.0135                  4.969112757038436E-6
0.0065                    -0.0125                  5.039349000816638E-6
0.0065                    -0.0115                  5.148832173817378E-6
0.0065                    -0.0105                  5.31088561774912E-6
0.0065                    -0.0095                  5.533256652045897E-6
0.0065                    -0.0085                  5.810106001861551E-6
0.0065                    -0.0075                  6.114755148063997E-6
0.0065                    -0.0065                  6.399171537499199E-6
0.0065                    -0.0055                  6.610030943283361E-6