% Model:              Benchmark260518.mph
% Version:            COMSOL 6.2.0.339
% Date:               May 21 2026, 01:33
% Dimension:          2
% Nodes:              4096
% Expressions:        1
% Description:        速度大小
% Length unit:        m
% x                       y                        spf.U (m/s)
5.0E-4                    -0.0315                  1.3698539386911835E-6
5.0E-4                    -0.0305                  2.6821077179263534E-6
5.0E-4                    -0.0295                  2.9196991961861264E-6
5.0E-4                    -0.0285                  3.19949482760371E-6
5.0E-4                    -0.0275                  3.3097745998844976E-6
5.0E-4                    -0.0265                  3.4153083365504184E-6
5.0E-4                    -0.0255                  3.493547114867321E-6
5.0E-4                    -0.0245                  3.5723060866343285E-6
5.0E-4                    -0.0235                  3.6606318366791265E-6
5.0E-4                    -0.0225                  3.770287872425131E-6
5.0E-4                    -0.0215                  3.897859195307273E-6
5.0E-4                    -0.0205                  4.020957885036754E-6
5.0E-4                    -0.0195                  4.130035250864319E-6
5.0E-4                    -0.0185                  4.2218597131796185E-6
5.0E-4                    -0.0175                  4.2997495420210336E-6
5.0E-4                    -0.0165                  4.371852083786822E-6
5.0E-4                    -0.0155                  4.439566406721306E-6
5.0E-4                    -0.0145                  4.505465411181459E-6
5.0E-4                    -0.0135                  4.5782126948765505E-6
5.0E-4                    -0.0125                  4.671293918847571E-6
5.0E-4                    -0.0115                  4.802042783533266E-6
5.0E-4                    -0.0105                  4.986085458360512E-6
5.0E-4                    -0.0095                  5.248794675919866E-6
5.0E-4                    -0.0085                  5.6270752586600865E-6
5.0E-4                    -0.0075                  6.180317409415509E-6
5.0E-4                    -0.0065                  7.144886776700196E-6
5.0E-4                    -0.0055                  8.976424281051612E-6
5.0E-4                    -0.0045                  1.4545470468026245E-5
5.0E-4                    -0.0035                  3.4077526372353046E-5
5.0E-4                    -0.0025                  9.776120212419238E-5
5.0E-4                    -0.0015                  1.8915589082281876E-4
5.0E-4                    -5.0E-4                  2.3377376308666723E-4
5.0E-4                    5.0E-4                   1.9833048575229256E-4
5.0E-4                    0.0015                   2.3440487893288845E-4
5.0E-4                    0.0025                   2.4311437696327188E-4
5.0E-4                    0.0035                   0.001752849203206327
5.0E-4                    0.0045                   0.009459424786036605
5.0E-4                    0.0055                   0.016163042882827706
5.0E-4                    0.0065                   0.016473472587670956
5.0E-4                    0.0075                   0.014532796338560593
5.0E-4                    0.0085                   0.010953696385670873
5.0E-4                    0.0095                   0.006739554550470849
5.0E-4                    0.0105                   0.003053948091950955
5.0E-4                    0.0115                   8.788246853227323E-4
5.0E-4                    0.0125                   2.0136134437955336E-4
5.0E-4                    0.0135                   1.0514382949950467E-4
5.0E-4                    0.0145                   3.583957986260555E-5
5.0E-4                    0.0155                   1.4847301464174703E-5
5.0E-4                    0.0165                   9.079666478436627E-6
5.0E-4                    0.0175                   7.504933347651843E-6
5.0E-4                    0.0185                   6.735127769496997E-6
5.0E-4                    0.0195                   6.36175532785821E-6
5.0E-4                    0.0205                   6.040968334377855E-6
5.0E-4                    0.0215                   5.733959630954287E-6
5.0E-4                    0.0225                   5.4632427897205605E-6
5.0E-4                    0.0235                   5.236241526571367E-6
5.0E-4                    0.0245                   5.039603317378319E-6
5.0E-4                    0.0255                   4.885199276815644E-6
5.0E-4                    0.0265                   4.817186011922867E-6
5.0E-4                    0.0275                   4.706568441132513E-6
5.0E-4                    0.0285                   4.522577158043936E-6
5.0E-4                    0.0295                   4.1121347197299555E-6
5.0E-4                    0.0305                   3.829679320474796E-6
5.0E-4                    0.0315                   1.9769188737510428E-6
0.0015                    -0.0315                  2.6478132438373757E-6
0.0015                    -0.0305                  5.108239998048822E-6
0.0015                    -0.0295                  5.30000117286492E-6
0.0015                    -0.0285                  5.563847535509055E-6
0.0015                    -0.0275                  5.598039117142989E-6
0.0015                    -0.0265                  5.647186586217447E-6
0.0015                    -0.0255                  5.686255180040009E-6
0.0015                    -0.0245                  5.742767186871121E-6
0.0015                    -0.0235                  5.825116014890131E-6
0.0015                    -0.0225                  5.943489991838685E-6
0.0015                    -0.0215                  6.091677090802327E-6
0.0015                    -0.0205                  6.244871399873838E-6
0.0015                    -0.0195                  6.390160963472159E-6
0.0015                    -0.0185                  6.521986192705267E-6
0.0015                    -0.0175                  6.6413358148605354E-6
0.0015                    -0.0165                  6.753259133205926E-6
0.0015                    -0.0155                  6.856544434957967E-6
0.0015                    -0.0145                  6.952513473985359E-6
0.0015                    -0.0135                  7.052339573431344E-6
0.0015                    -0.0125                  7.178013430357958E-6
0.0015                    -0.0115                  7.3620836662362655E-6
0.0015                    -0.0105                  7.642265784862783E-6
0.0015                    -0.0095                  8.07025633286297E-6
0.0015                    -0.0085                  8.716326241967087E-6
0.0015                    -0.0075                  9.709332095761494E-6
0.0015                    -0.0065                  1.1468375241039988E-5
0.0015                    -0.0055                  1.516833113866853E-5
0.0015                    -0.0045                  2.576381341965484E-5
0.0015                    -0.0035                  5.970095007222276E-5
0.0015                    -0.0025                  1.602990387706041E-4
0.0015                    -0.0015                  2.992148728558627E-4
0.0015                    -5.0E-4                  3.908334280055865E-4
0.0015                    5.0E-4                   4.666897932212597E-4
0.0015                    0.0015                   5.599043313272642E-4
0.0015                    0.0025                   5.63615763441709E-4
0.0015                    0.0035                   0.005130061093263645
0.0015                    0.0045                   0.012423121328865805
0.0015                    0.0055                   0.01656646726650398
0.0015                    0.0065                   0.0162994195931027
0.0015                    0.0075                   0.013872531966912207
0.0015                    0.0085                   0.00984933177317043
0.0015                    0.0095                   0.005462296532406499
0.0015                    0.0105                   0.0021432866776725287
0.0015                    0.0115                   6.292668915505334E-4
0.0015                    0.0125                   2.805063476164909E-4
0.0015                    0.0135                   1.5128775951386085E-4
0.0015                    0.0145                   5.731067913837046E-5
0.0015                    0.0155                   2.4604796514120987E-5
0.0015                    0.0165                   1.4656790707724016E-5
0.0015                    0.0175                   1.1607296302109832E-5
0.0015                    0.0185                   1.0327197539957346E-5
0.0015                    0.0195                   9.726146972049502E-6
0.0015                    0.0205                   9.293908736149807E-6
0.0015                    0.0215                   8.922176340268702E-6
0.0015                    0.0225                   8.614474446359913E-6
0.0015                    0.0235                   8.372587809258533E-6
0.0015                    0.0245                   8.182962619982066E-6
0.0015                    0.0255                   8.062366422232281E-6
0.0015                    0.0265                   8.053359584527568E-6
0.0015                    0.0275                   8.027191559825041E-6
0.0015                    0.0285                   7.951225555990629E-6
0.0015                    0.0295                   7.553582784820411E-6
0.0015                    0.0305                   7.316006169553572E-6
0.0015                    0.0315                   3.8064412820147597E-6
0.0025                    -0.0315                  2.8318257331686208E-6
0.0025                    -0.0305                  5.207284876761991E-6
0.0025                    -0.0295                  5.027214862046877E-6
0.0025                    -0.0285                  5.110890045383712E-6
0.0025                    -0.0275                  4.987753304163107E-6
0.0025                    -0.0265                  4.871746625361681E-6
0.0025                    -0.0255                  4.769468433265267E-6
0.0025                    -0.0245                  4.698322353667924E-6
0.0025                    -0.0235                  4.6602763703939336E-6
0.0025                    -0.0225                  4.655667088682076E-6
0.0025                    -0.0215                  4.681180338677368E-6
0.0025                    -0.0205                  4.732322828210444E-6
0.0025                    -0.0195                  4.803244827473853E-6
0.0025                    -0.0185                  4.888584923762789E-6
0.0025                    -0.0175                  4.982072737597138E-6
0.0025                    -0.0165                  5.075661904174306E-6
0.0025                    -0.0155                  5.161077166977732E-6
0.0025                    -0.0145                  5.232667518840989E-6
0.0025                    -0.0135                  5.292906004968548E-6
0.0025                    -0.0125                  5.35816148364486E-6
0.0025                    -0.0115                  5.462428907549544E-6
0.0025                    -0.0105                  5.658010228674821E-6
0.0025                    -0.0095                  6.011570359825179E-6
0.0025                    -0.0085                  6.612696120145882E-6
0.0025                    -0.0075                  7.637593815244862E-6
0.0025                    -0.0065                  9.562994958628403E-6
0.0025                    -0.0055                  1.3926734531714436E-5
0.0025                    -0.0045                  2.511827929089304E-5
0.0025                    -0.0035                  5.4329749060123696E-5
0.0025                    -0.0025                  1.2268846396485043E-4
0.0025                    -0.0015                  2.2982363575936208E-4
0.0025                    -5.0E-4                  3.430107199787297E-4
0.0025                    5.0E-4                   5.963052526129823E-4
0.0025                    0.0015                   9.858409548546118E-4
0.0025                    0.0025                   0.0029817156853733017
0.0025                    0.0035                   0.008264729319953465
0.0025                    0.0045                   0.013926081322704637
0.0025                    0.0055                   0.016418194977176965
0.0025                    0.0065                   0.01562206935472077
0.0025                    0.0075                   0.012735772539077792
0.0025                    0.0085                   0.008406666817083968
0.0025                    0.0095                   0.0041918312189353135
0.0025                    0.0105                   0.0015003660720450008
0.0025                    0.0115                   4.412360160258989E-4
0.0025                    0.0125                   1.5657618522468903E-4
0.0025                    0.0135                   8.143673477836668E-5
0.0025                    0.0145                   3.935156605665292E-5
0.0025                    0.0155                   1.9353879572080795E-5
0.0025                    0.0165                   1.1437129633760289E-5
0.0025                    0.0175                   8.517330923309295E-6
0.0025                    0.0185                   7.4528962506175615E-6
0.0025                    0.0195                   7.010477523742656E-6
0.0025                    0.0205                   6.8154491981444665E-6
0.0025                    0.0215                   6.731190931142266E-6
0.0025                    0.0225                   6.711054867912763E-6
0.0025                    0.0235                   6.7378662658059995E-6
0.0025                    0.0245                   6.808065380931471E-6
0.0025                    0.0255                   6.925830095744675E-6
0.0025                    0.0265                   7.087896269663697E-6
0.0025                    0.0275                   7.264321754409105E-6
0.0025                    0.0285                   7.433315700187577E-6
0.0025                    0.0295                   7.277516326953704E-6
0.0025                    0.0305                   7.439468231971555E-6
0.0025                    0.0315                   4.013293597945348E-6
0.0035                    -0.0315                  3.1152308895092277E-6
0.0035                    -0.0305                  5.471161463629E-6
0.0035                    -0.0295                  5.099575304091899E-6
0.0035                    -0.0285                  5.31952945095194E-6
0.0035                    -0.0275                  5.27802200228907E-6
0.0035                    -0.0265                  5.1919794518746315E-6
0.0035                    -0.0255                  5.076016255206288E-6
0.0035                    -0.0245                  4.9733674778056945E-6
0.0035                    -0.0235                  4.8955213630102335E-6
0.0035                    -0.0225                  4.849962738467525E-6
0.0035                    -0.0215                  4.839047143638244E-6
0.0035                    -0.0205                  4.862688897478612E-6
0.0035                    -0.0195                  4.918822209262027E-6
0.0035                    -0.0185                  5.0030769208353826E-6
0.0035                    -0.0175                  5.107964635188483E-6
0.0035                    -0.0165                  5.222300220046865E-6
0.0035                    -0.0155                  5.33192254792868E-6
0.0035                    -0.0145                  5.422916391071007E-6
0.0035                    -0.0135                  5.4877726642421135E-6
0.0035                    -0.0125                  5.534440086013025E-6
0.0035                    -0.0115                  5.596778980546696E-6
0.0035                    -0.0105                  5.743214242355656E-6
0.0035                    -0.0095                  6.0827415920112E-6
0.0035                    -0.0085                  6.7789415681224585E-6
0.0035                    -0.0075                  8.120701840715062E-6
0.0035                    -0.0065                  1.077419167571215E-5
0.0035                    -0.0055                  1.6456156922126978E-5
0.0035                    -0.0045                  2.954820359570714E-5
0.0035                    -0.0035                  5.9934658354121286E-5
0.0035                    -0.0025                  1.2786158174812423E-4
0.0035                    -0.0015                  2.966455175500271E-4
0.0035                    -5.0E-4                  5.583570015902569E-4
0.0035                    5.0E-4                   0.0010455717712944518
0.0035                    0.0015                   0.0024729358671411517
0.0035                    0.0025                   0.005882398646689723
0.0035                    0.0035                   0.010722056489630183
0.0035                    0.0045                   0.014520406622781408
0.0035                    0.0055                   0.015670606867663535
0.0035                    0.0065                   0.014393566281765096
0.0035                    0.0075                   0.011187505436879165
0.0035                    0.0085                   0.0068536821545935435
0.0035                    0.0095                   0.003113171680020369
0.0035                    0.0105                   0.0010815516129974547
0.0035                    0.0115                   3.6456476396118506E-4
0.0035                    0.0125                   1.4183446226652882E-4
0.0035                    0.0135                   6.421816866163852E-5
0.0035                    0.0145                   3.343932366818062E-5
0.0035                    0.0155                   1.819943605594045E-5
0.0035                    0.0165                   1.1400867359970587E-5
0.0035                    0.0175                   8.667537253222969E-6
0.0035                    0.0185                   7.589431751168627E-6
0.0035                    0.0195                   7.158617945071191E-6
0.0035                    0.0205                   7.0018161639642436E-6
0.0035                    0.0215                   6.981153170529325E-6
0.0035                    0.0225                   7.036205860468374E-6
0.0035                    0.0235                   7.139185380475269E-6
0.0035                    0.0245                   7.2788025120176E-6
0.0035                    0.0255                   7.445808245413734E-6
0.0035                    0.0265                   7.6249669812415325E-6
0.0035                    0.0275                   7.75010626410585E-6
0.0035                    0.0285                   7.784855336545852E-6
0.0035                    0.0295                   7.3993708376930015E-6
0.0035                    0.0305                   7.721856702905564E-6
0.0035                    0.0315                   4.3246701648663945E-6
0.0045                    -0.0315                  3.2766038968863224E-6
0.0045                    -0.0305                  5.566843661577993E-6
0.0045                    -0.0295                  4.990856254168996E-6
0.0045                    -0.0285                  5.28476616448195E-6
0.0045                    -0.0275                  5.361191013883606E-6
0.0045                    -0.0265                  5.36356098984254E-6
0.0045                    -0.0255                  5.286619684713916E-6
0.0045                    -0.0245                  5.188267076609069E-6
0.0045                    -0.0235                  5.095337640344069E-6
0.0045                    -0.0225                  5.026071992155625E-6
0.0045                    -0.0215                  4.990497354087828E-6
0.0045                    -0.0205                  4.994593539144198E-6
0.0045                    -0.0195                  5.040704707514764E-6
0.0045                    -0.0185                  5.127336644038552E-6
0.0045                    -0.0175                  5.248211829445377E-6
0.0045                    -0.0165                  5.39136302904936E-6
0.0045                    -0.0155                  5.53915123164188E-6
0.0045                    -0.0145                  5.6704196471174316E-6
0.0045                    -0.0135                  5.766508313463925E-6
0.0045                    -0.0125                  5.822954136733625E-6
0.0045                    -0.0115                  5.867823844505437E-6
0.0045                    -0.0105                  5.985680443826722E-6
0.0045                    -0.0095                  6.346307342252273E-6
0.0045                    -0.0085                  7.248183749943489E-6
0.0045                    -0.0075                  9.210010947084808E-6
0.0045                    -0.0065                  1.3220027810108663E-5
0.0045                    -0.0055                  2.1557792408837678E-5
0.0045                    -0.0045                  3.9104876296622224E-5
0.0045                    -0.0035                  7.746298276215964E-5
0.0045                    -0.0025                  1.721549958202245E-4
0.0045                    -0.0015                  4.7783424182272494E-4
0.0045                    -5.0E-4                  0.0011337345660528862
0.0045                    5.0E-4                   0.002456860303363656
0.0045                    0.0015                   0.00507779353206682
0.0045                    0.0025                   0.008737538999080741
0.0045                    0.0035                   0.012112579567287077
0.0045                    0.0045                   0.014047229640850626
0.0045                    0.0055                   0.014186178343845435
0.0045                    0.0065                   0.012608064717348925
0.0045                    0.0075                   0.009446987023282226
0.0045                    0.0085                   0.005494408121959668
0.0045                    0.0095                   0.002383881779193091
0.0045                    0.0105                   8.772417886577178E-4
0.0045                    0.0115                   3.6096245946017064E-4
0.0045                    0.0125                   1.588397208212838E-4
0.0045                    0.0135                   6.485170726472422E-5
0.0045                    0.0145                   3.0890152741665626E-5
0.0045                    0.0155                   1.7081975643724466E-5
0.0045                    0.0165                   1.1186674801388095E-5
0.0045                    0.0175                   8.734356207562507E-6
0.0045                    0.0185                   7.736419932836238E-6
0.0045                    0.0195                   7.346885315670408E-6
0.0045                    0.0205                   7.234309904542408E-6
0.0045                    0.0215                   7.2582281242608965E-6
0.0045                    0.0225                   7.353762389648342E-6
0.0045                    0.0235                   7.4894177070209825E-6
0.0045                    0.0245                   7.6468818002737E-6
0.0045                    0.0255                   7.802571118437787E-6
0.0045                    0.0265                   7.918714604510663E-6
0.0045                    0.0275                   7.908855564093844E-6
0.0045                    0.0285                   7.76006466502724E-6
0.0045                    0.0295                   7.245731693247381E-6
0.0045                    0.0305                   7.772062104137003E-6
0.0045                    0.0315                   4.4744421233088955E-6
0.0055                    -0.0315                  3.440808675161126E-6
0.0055                    -0.0305                  5.688961818532115E-6
0.0055                    -0.0295                  4.896760208276008E-6
0.0055                    -0.0285                  5.2119998851511045E-6
0.0055                    -0.0275                  5.374184694354129E-6
0.0055                    -0.0265                  5.479307732436734E-6
0.0055                    -0.0255                  5.476365893161484E-6
0.0055                    -0.0245                  5.416723326875056E-6
0.0055                    -0.0235                  5.335178992620225E-6
0.0055                    -0.0225                  5.260653198622446E-6
0.0055                    -0.0215                  5.211903621503126E-6
0.0055                    -0.0205                  5.201885210261489E-6
0.0055                    -0.0195                  5.238754614423705E-6
0.0055                    -0.0185                  5.3259107069538444E-6
0.0055                    -0.0175                  5.460967273106413E-6
0.0055                    -0.0165                  5.63442710834711E-6
0.0055                    -0.0155                  5.8287597634766905E-6
0.0055                    -0.0145                  6.019225632146666E-6
0.0055                    -0.0135                  6.17881521374045E-6
0.0055                    -0.0125                  6.291380718741273E-6
0.0055                    -0.0115                  6.3785119663445395E-6
0.0055                    -0.0105                  6.546390096711934E-6
0.0055                    -0.0095                  7.059347445546713E-6
0.0055                    -0.0085                  8.459217923078991E-6
0.0055                    -0.0075                  1.1821898698317617E-5
0.0055                    -0.0065                  1.9121515333081437E-5
0.0055                    -0.0055                  3.407139370871242E-5
0.0055                    -0.0045                  6.635477355000288E-5
0.0055                    -0.0035                  1.372037216728712E-4
0.0055                    -0.0025                  2.9845742910261197E-4
0.0055                    -0.0015                  8.555039809512311E-4
0.0055                    -5.0E-4                  0.0024202654839613575
0.0055                    5.0E-4                   0.005191519639170246
0.0055                    0.0015                   0.008457153533477594
0.0055                    0.0025                   0.011032275913219175
0.0055                    0.0035                   0.012269092197590266
0.0055                    0.0045                   0.012412892698292826
0.0055                    0.0055                   0.011808341212712343
0.0055                    0.0065                   0.010398223761880583
0.0055                    0.0075                   0.007934160795072802
0.0055                    0.0085                   0.004787259714309444
0.0055                    0.0095                   0.002228151190262227
0.0055                    0.0105                   9.0370636248127E-4
0.0055                    0.0115                   3.81243902460608E-4
0.0055                    0.0125                   1.619271692058865E-4
0.0055                    0.0135                   6.74272074615254E-5
0.0055                    0.0145                   3.1137079267999916E-5
0.0055                    0.0155                   1.71226672808464E-5
0.0055                    0.0165                   1.14264094118168E-5
0.0055                    0.0175                   9.064272682223777E-6
0.0055                    0.0185                   8.102775638248987E-6
0.0055                    0.0195                   7.749437361965525E-6
0.0055                    0.0205                   7.665173881920266E-6
0.0055                    0.0215                   7.701566800722803E-6
0.0055                    0.0225                   7.794640345291139E-6
0.0055                    0.0235                   7.913824755676793E-6
0.0055                    0.0245                   8.034817174527523E-6
0.0055                    0.0255                   8.120832919004447E-6
0.0055                    0.0265                   8.121715943559424E-6
0.0055                    0.0275                   7.957583845038818E-6
0.0055                    0.0285                   7.676985155722063E-6
0.0055                    0.0295                   7.122161015998493E-6
0.0055                    0.0305                   7.911892564577722E-6
0.0055                    0.0315                   4.673055713839948E-6
0.0065                    -0.0315                  3.5742988303490763E-6
0.0065                    -0.0305                  5.795094138947155E-6
0.0065                    -0.0295                  4.810928664558183E-6
0.0065                    -0.0285                  5.107139585732678E-6
0.0065                    -0.0275                  5.308293946462048E-6
0.0065                    -0.0265                  5.490306864179259E-6
0.0065                    -0.0255                  5.563436419474147E-6
0.0065                    -0.0245                  5.558692855572225E-6
0.0065                    -0.0235                  5.506210168016893E-6
0.0065                    -0.0225                  5.4396511173736205E-6
0.0065                    -0.0215                  5.384866124613246E-6
0.0065                    -0.0205                  5.3618441512340875E-6
0.0065                    -0.0195                  5.3853512914092395E-6
0.0065                    -0.0185                  5.465143374249426E-6
0.0065                    -0.0175                  5.6049391719332645E-6
0.0065                    -0.0165                  5.800836035288589E-6
0.0065                    -0.0155                  6.03981932289244E-6
0.0065                    -0.0145                  6.299598458291683E-6
0.0065                    -0.0135                  6.5525075755726845E-6
0.0065                    -0.0125                  6.779549398251963E-6
0.0065                    -0.0115                  7.00714931465709E-6
0.0065                    -0.0105                  7.38703037806921E-6
0.0065                    -0.0095                  8.354375754164408E-6
0.0065                    -0.0085                  1.0911988980986778E-5
0.0065                    -0.0075                  1.7245297254644586E-5
0.0065                    -0.0065                  3.245648186789193E-5
0.0065                    -0.0055                  6.665644203001057E-5