% Model:              Benchmark260518.mph
% Version:            COMSOL 6.2.0.339
% Date:               May 20 2026, 12:45
% Dimension:          2
% Nodes:              4096
% Expressions:        1
% Description:        速度大小
% Length unit:        m
% x                       y                        spf.U (m/s)
5.0E-4                    -0.0315                  1.0985200680215814E-6
5.0E-4                    -0.0305                  2.164231229242336E-6
5.0E-4                    -0.0295                  2.2709724854064483E-6
5.0E-4                    -0.0285                  2.452556476054129E-6
5.0E-4                    -0.0275                  2.6293050847601924E-6
5.0E-4                    -0.0265                  2.7608882916506442E-6
5.0E-4                    -0.0255                  2.8576725302612528E-6
5.0E-4                    -0.0245                  2.955527257441934E-6
5.0E-4                    -0.0235                  3.0242657091332023E-6
5.0E-4                    -0.0225                  3.077306590358506E-6
5.0E-4                    -0.0215                  3.1318217257252255E-6
5.0E-4                    -0.0205                  3.176920899526981E-6
5.0E-4                    -0.0195                  3.2189217232334947E-6
5.0E-4                    -0.0185                  3.2601903981538655E-6
5.0E-4                    -0.0175                  3.3027985927810134E-6
5.0E-4                    -0.0165                  3.345359993587713E-6
5.0E-4                    -0.0155                  3.384653822409819E-6
5.0E-4                    -0.0145                  3.436167875570379E-6
5.0E-4                    -0.0135                  3.4891493961192087E-6
5.0E-4                    -0.0125                  3.5229784723899043E-6
5.0E-4                    -0.0115                  3.5437126529728917E-6
5.0E-4                    -0.0105                  3.548389198629189E-6
5.0E-4                    -0.0095                  3.5026748852467646E-6
5.0E-4                    -0.0085                  3.418526643327525E-6
5.0E-4                    -0.0075                  3.340125281924346E-6
5.0E-4                    -0.0065                  3.266960541033256E-6
5.0E-4                    -0.0055                  3.1844552003713963E-6
5.0E-4                    -0.0045                  3.176289734720425E-6
5.0E-4                    -0.0035                  3.3582067382501123E-6
5.0E-4                    -0.0025                  3.73403017052757E-6
5.0E-4                    -0.0015                  4.277505029253794E-6
5.0E-4                    -5.0E-4                  4.956296636170566E-6
5.0E-4                    5.0E-4                   5.701786410206538E-6
5.0E-4                    0.0015                   6.405077752890218E-6
5.0E-4                    0.0025                   6.978091298598014E-6
5.0E-4                    0.0035                   7.525349127730733E-6
5.0E-4                    0.0045                   8.647588062698179E-6
5.0E-4                    0.0055                   1.2052807727200345E-5
5.0E-4                    0.0065                   2.222361362002954E-5
5.0E-4                    0.0075                   5.3418757902861383E-5
5.0E-4                    0.0085                   1.5260591044990863E-4
5.0E-4                    0.0095                   3.016057668241385E-4
5.0E-4                    0.0105                   4.2063178526759057E-4
5.0E-4                    0.0115                   5.3743032811418E-4
5.0E-4                    0.0125                   0.0021443110337133154
5.0E-4                    0.0135                   0.004162561442561887
5.0E-4                    0.0145                   0.05862889492780857
5.0E-4                    0.0155                   0.10807308512017982
5.0E-4                    0.0165                   0.0910120489475162
5.0E-4                    0.0175                   0.036668180753396964
5.0E-4                    0.0185                   9.611512879213302E-4
5.0E-4                    0.0195                   8.250570726927953E-4
5.0E-4                    0.0205                   2.4123363255447786E-4
5.0E-4                    0.0215                   8.267203963586617E-5
5.0E-4                    0.0225                   2.8289507613030856E-5
5.0E-4                    0.0235                   8.581039548484458E-6
5.0E-4                    0.0245                   3.365402359962713E-6
5.0E-4                    0.0255                   1.6838237499698527E-6
5.0E-4                    0.0265                   1.098125093481124E-6
5.0E-4                    0.0275                   8.959421533782744E-7
5.0E-4                    0.0285                   8.266356714955729E-7
5.0E-4                    0.0295                   7.885265533976102E-7
5.0E-4                    0.0305                   7.658202175447131E-7
5.0E-4                    0.0315                   3.913856916318471E-7
0.0015                    -0.0315                  2.154589907098548E-6
0.0015                    -0.0305                  4.2587739479617486E-6
0.0015                    -0.0295                  4.464573201938327E-6
0.0015                    -0.0285                  4.691612060221519E-6
0.0015                    -0.0275                  4.827002204768597E-6
0.0015                    -0.0265                  4.9238703238957945E-6
0.0015                    -0.0255                  4.9868285124822E-6
0.0015                    -0.0245                  5.055939048872911E-6
0.0015                    -0.0235                  5.102527331720952E-6
0.0015                    -0.0225                  5.137415621123682E-6
0.0015                    -0.0215                  5.176663013550461E-6
0.0015                    -0.0205                  5.2105439616708595E-6
0.0015                    -0.0195                  5.2450186590513325E-6
0.0015                    -0.0185                  5.284534417513811E-6
0.0015                    -0.0175                  5.333307413947253E-6
0.0015                    -0.0165                  5.392272520559025E-6
0.0015                    -0.0155                  5.461378979103375E-6
0.0015                    -0.0145                  5.555690083826058E-6
0.0015                    -0.0135                  5.6634037596695885E-6
0.0015                    -0.0125                  5.7617253243697445E-6
0.0015                    -0.0115                  5.852951192291875E-6
0.0015                    -0.0105                  5.933292425371238E-6
0.0015                    -0.0095                  5.979058193518441E-6
0.0015                    -0.0085                  6.026563810069666E-6
0.0015                    -0.0075                  6.160742067295383E-6
0.0015                    -0.0065                  6.431140484107804E-6
0.0015                    -0.0055                  6.875644302441129E-6
0.0015                    -0.0045                  7.646662291693946E-6
0.0015                    -0.0035                  8.963223847499658E-6
0.0015                    -0.0025                  1.094777794386477E-5
0.0015                    -0.0015                  1.357366881376683E-5
0.0015                    -5.0E-4                  1.6589244272595878E-5
0.0015                    5.0E-4                   1.9438636831841258E-5
0.0015                    0.0015                   2.142891855856865E-5
0.0015                    0.0025                   2.2190279633461497E-5
0.0015                    0.0035                   2.215569428377008E-5
0.0015                    0.0045                   2.3097649249148173E-5
0.0015                    0.0055                   2.9020348563377627E-5
0.0015                    0.0065                   4.899813835277346E-5
0.0015                    0.0075                   1.0881541924813716E-4
0.0015                    0.0085                   2.8427972031663297E-4
0.0015                    0.0095                   5.376456101328629E-4
0.0015                    0.0105                   8.185057734262915E-4
0.0015                    0.0115                   0.001535761016025069
0.0015                    0.0125                   0.005145480281155072
0.0015                    0.0135                   0.011851592609694402
0.0015                    0.0145                   0.06896888632487491
0.0015                    0.0155                   0.10740598171468618
0.0015                    0.0165                   0.08658833466465446
0.0015                    0.0175                   0.03426148010347497
0.0015                    0.0185                   0.0017096051174131184
0.0015                    0.0195                   0.001904524340775083
0.0015                    0.0205                   5.838620221149437E-4
0.0015                    0.0215                   1.707831848906903E-4
0.0015                    0.0225                   5.073517485184608E-5
0.0015                    0.0235                   1.4887138790653871E-5
0.0015                    0.0245                   5.978287637470318E-6
0.0015                    0.0255                   3.0775803481038346E-6
0.0015                    0.0265                   2.0613421462270767E-6
0.0015                    0.0275                   1.7230132324515609E-6
0.0015                    0.0285                   1.6298070230874555E-6
0.0015                    0.0295                   1.5750635893180216E-6
0.0015                    0.0305                   1.5193268823845622E-6
0.0015                    0.0315                   7.718906585224426E-7
0.0025                    -0.0315                  2.218130296742083E-6
0.0025                    -0.0305                  4.3982050840223455E-6
0.0025                    -0.0295                  4.714851808283989E-6
0.0025                    -0.0285                  4.954127981809097E-6
0.0025                    -0.0275                  4.914308615887851E-6
0.0025                    -0.0265                  4.836107889953633E-6
0.0025                    -0.0255                  4.738029083097414E-6
0.0025                    -0.0245                  4.644923615990354E-6
0.0025                    -0.0235                  4.562463845662519E-6
0.0025                    -0.0225                  4.489609360552228E-6
0.0025                    -0.0215                  4.425583577385248E-6
0.0025                    -0.0205                  4.371465796513256E-6
0.0025                    -0.0195                  4.328073287681744E-6
0.0025                    -0.0185                  4.299991736480306E-6
0.0025                    -0.0175                  4.293191386993499E-6
0.0025                    -0.0165                  4.314388412023978E-6
0.0025                    -0.0155                  4.370604988813388E-6
0.0025                    -0.0145                  4.464544414841344E-6
0.0025                    -0.0135                  4.595792381493367E-6
0.0025                    -0.0125                  4.76129188154126E-6
0.0025                    -0.0115                  4.957683084424292E-6
0.0025                    -0.0105                  5.188906477148723E-6
0.0025                    -0.0095                  5.480027330017172E-6
0.0025                    -0.0085                  5.887773207553068E-6
0.0025                    -0.0075                  6.510389853936723E-6
0.0025                    -0.0065                  7.491537675337721E-6
0.0025                    -0.0055                  9.039409904547794E-6
0.0025                    -0.0045                  1.1461549794772013E-5
0.0025                    -0.0035                  1.5179605919999648E-5
0.0025                    -0.0025                  2.0749311762566112E-5
0.0025                    -0.0015                  2.854556175710437E-5
0.0025                    -5.0E-4                  3.766765698538514E-5
0.0025                    5.0E-4                   4.599611996836413E-5
0.0025                    0.0015                   5.1153920508973804E-5
0.0025                    0.0025                   5.165160576974123E-5
0.0025                    0.0035                   4.847760486326532E-5
0.0025                    0.0045                   4.522863717739593E-5
0.0025                    0.0055                   4.8585836166186025E-5
0.0025                    0.0065                   7.05967762231555E-5
0.0025                    0.0075                   1.392579056249571E-4
0.0025                    0.0085                   3.2576798478251267E-4
0.0025                    0.0095                   5.941881790186582E-4
0.0025                    0.0105                   0.0010248298592747604
0.0025                    0.0115                   0.002800000792341316
0.0025                    0.0125                   0.005873447534818539
0.0025                    0.0135                   0.02066291108472226
0.0025                    0.0145                   0.0778668088413698
0.0025                    0.0155                   0.10589364306392605
0.0025                    0.0165                   0.08080936876712304
0.0025                    0.0175                   0.03022127615997227
0.0025                    0.0185                   0.0014012737130147993
0.0025                    0.0195                   0.002584858195811571
0.0025                    0.0205                   8.628603065449496E-4
0.0025                    0.0215                   2.2806041799648092E-4
0.0025                    0.0225                   5.650546085132896E-5
0.0025                    0.0235                   1.4706001531090775E-5
0.0025                    0.0245                   5.965478213345959E-6
0.0025                    0.0255                   3.1765223478396107E-6
0.0025                    0.0265                   2.218229579062645E-6
0.0025                    0.0275                   1.9077310354933975E-6
0.0025                    0.0285                   1.8253528734708493E-6
0.0025                    0.0295                   1.7222523473628573E-6
0.0025                    0.0305                   1.597356592950811E-6
0.0025                    0.0315                   8.031321835434293E-7
0.0035                    -0.0315                  2.2971801362941218E-6
0.0035                    -0.0305                  4.499605852196216E-6
0.0035                    -0.0295                  4.909220141267333E-6
0.0035                    -0.0285                  5.365825920203837E-6
0.0035                    -0.0275                  5.437805885837714E-6
0.0035                    -0.0265                  5.387876688977347E-6
0.0035                    -0.0255                  5.2735619466716815E-6
0.0035                    -0.0245                  5.145199741278728E-6
0.0035                    -0.0235                  5.017959253258904E-6
0.0035                    -0.0225                  4.897914096157809E-6
0.0035                    -0.0215                  4.785780415546965E-6
0.0035                    -0.0205                  4.6819535273650745E-6
0.0035                    -0.0195                  4.588995066684374E-6
0.0035                    -0.0185                  4.512820112700416E-6
0.0035                    -0.0175                  4.463150305981983E-6
0.0035                    -0.0165                  4.452408208313452E-6
0.0035                    -0.0155                  4.493913419377239E-6
0.0035                    -0.0145                  4.600189313607672E-6
0.0035                    -0.0135                  4.780729453409842E-6
0.0035                    -0.0125                  5.0428639008275075E-6
0.0035                    -0.0115                  5.395159931763385E-6
0.0035                    -0.0105                  5.8506159998591824E-6
0.0035                    -0.0095                  6.4367549672241424E-6
0.0035                    -0.0085                  7.218559004978509E-6
0.0035                    -0.0075                  8.335693188931053E-6
0.0035                    -0.0065                  1.007942905326428E-5
0.0035                    -0.0055                  1.302908525119E-5
0.0035                    -0.0045                  1.8208147509900835E-5
0.0035                    -0.0035                  2.682688461199611E-5
0.0035                    -0.0025                  3.9861887513649896E-5
0.0035                    -0.0015                  5.94859555899471E-5
0.0035                    -5.0E-4                  8.659127643638131E-5
0.0035                    5.0E-4                   1.1175916133913183E-4
0.0035                    0.0015                   1.26029757533954E-4
0.0035                    0.0025                   1.2789629150512251E-4
0.0035                    0.0035                   1.1513209207949103E-4
0.0035                    0.0045                   9.84579069108341E-5
0.0035                    0.0055                   9.430325494567211E-5
0.0035                    0.0065                   1.1529862745343478E-4
0.0035                    0.0075                   1.977422439279797E-4
0.0035                    0.0085                   4.4073297960009814E-4
0.0035                    0.0095                   8.322610941440254E-4
0.0035                    0.0105                   0.0016335392995237496
0.0035                    0.0115                   0.004764793060964125
0.0035                    0.0125                   0.0032389115973577407
0.0035                    0.0135                   0.03326238738534998
0.0035                    0.0145                   0.08604623724444514
0.0035                    0.0155                   0.10322220844442971
0.0035                    0.0165                   0.07344638444487192
0.0035                    0.0175                   0.025013634676606424
0.0035                    0.0185                   0.0014065525256971613
0.0035                    0.0195                   0.003173327991488907
0.0035                    0.0205                   0.0010737606702484344
0.0035                    0.0215                   2.822453331589524E-4
0.0035                    0.0225                   6.995956754557739E-5
0.0035                    0.0235                   1.7796519962626778E-5
0.0035                    0.0245                   7.091385013605212E-6
0.0035                    0.0255                   3.7678416477299757E-6
0.0035                    0.0265                   2.6548498273230185E-6
0.0035                    0.0275                   2.262569657289296E-6
0.0035                    0.0285                   2.0924322194922665E-6
0.0035                    0.0295                   1.866277056154305E-6
0.0035                    0.0305                   1.670052426899535E-6
0.0035                    0.0315                   8.413036725397282E-7
0.0045                    -0.0315                  2.338644310283694E-6
0.0045                    -0.0305                  4.4864012345835845E-6
0.0045                    -0.0295                  4.848992001583886E-6
0.0045                    -0.0285                  5.4320421830096656E-6
0.0045                    -0.0275                  5.64831344406173E-6
0.0045                    -0.0265                  5.696257847263876E-6
0.0045                    -0.0255                  5.626924091673131E-6
0.0045                    -0.0245                  5.508391073112127E-6
0.0045                    -0.0235                  5.3701197841741655E-6
0.0045                    -0.0225                  5.226872294139565E-6
0.0045                    -0.0215                  5.083282033900994E-6
0.0045                    -0.0205                  4.9412020623693295E-6
0.0045                    -0.0195                  4.803795291281613E-6
0.0045                    -0.0185                  4.678547632533103E-6
0.0045                    -0.0175                  4.578735383828811E-6
0.0045                    -0.0165                  4.52330724200842E-6
0.0045                    -0.0155                  4.5353701375422944E-6
0.0045                    -0.0145                  4.6401080406673495E-6
0.0045                    -0.0135                  4.863694518197517E-6
0.0045                    -0.0125                  5.233299657009253E-6
0.0045                    -0.0115                  5.7809900916744686E-6
0.0045                    -0.0105                  6.551740130554621E-6
0.0045                    -0.0095                  7.610822213367482E-6
0.0045                    -0.0085                  9.077976724163498E-6
0.0045                    -0.0075                  1.1217022478471007E-5
0.0045                    -0.0065                  1.4641444143326181E-5
0.0045                    -0.0055                  2.067737282625924E-5
0.0045                    -0.0045                  3.172017029953467E-5
0.0045                    -0.0035                  5.1746279881044626E-5
0.0045                    -0.0025                  8.257698414757747E-5
0.0045                    -0.0015                  1.223316795196326E-4
0.0045                    -5.0E-4                  1.909312178715804E-4
0.0045                    5.0E-4                   2.666712119415101E-4
0.0045                    0.0015                   3.112811691193553E-4
0.0045                    0.0025                   3.2572736770514324E-4
0.0045                    0.0035                   2.8199596408786754E-4
0.0045                    0.0045                   2.2821263186961023E-4
0.0045                    0.0055                   2.170431250709691E-4
0.0045                    0.0065                   2.2261950393857622E-4
0.0045                    0.0075                   2.901970957990476E-4
0.0045                    0.0085                   5.47948264846404E-4
0.0045                    0.0095                   0.001083957737958396
0.0045                    0.0105                   0.002784905483166232
0.0045                    0.0115                   0.0069642902747313875
0.0045                    0.0125                   0.004279028785562933
0.0045                    0.0135                   0.04850114971804818
0.0045                    0.0145                   0.09226080703395922
0.0045                    0.0155                   0.09893961676199786
0.0045                    0.0165                   0.06427893822118882
0.0045                    0.0175                   0.018875686271296026
0.0045                    0.0185                   0.0017447569173013803
0.0045                    0.0195                   0.0034145765703814507
0.0045                    0.0205                   0.0011104684683485534
0.0045                    0.0215                   2.858728853510555E-4
0.0045                    0.0225                   7.585570951919445E-5
0.0045                    0.0235                   2.0223380913026042E-5
0.0045                    0.0245                   8.03898747701417E-6
0.0045                    0.0255                   4.291801009868847E-6
0.0045                    0.0265                   3.0223979314500712E-6
0.0045                    0.0275                   2.51998500957241E-6
0.0045                    0.0285                   2.2373048604603806E-6
0.0045                    0.0295                   1.9094503644172455E-6
0.0045                    0.0305                   1.6922590541297244E-6
0.0045                    0.0315                   8.61746594274812E-7
0.0055                    -0.0315                  2.377588328616095E-6
0.0055                    -0.0305                  4.4874431715085785E-6
0.0055                    -0.0295                  4.776012890331663E-6
0.0055                    -0.0285                  5.4081176757259706E-6
0.0055                    -0.0275                  5.730720600746639E-6
0.0055                    -0.0265                  5.893486255483619E-6
0.0055                    -0.0255                  5.909094421656937E-6
0.0055                    -0.0245                  5.8417022535491915E-6
0.0055                    -0.0235                  5.728553689884855E-6
0.0055                    -0.0225                  5.592586738269394E-6
0.0055                    -0.0215                  5.4435775378388515E-6
0.0055                    -0.0205                  5.2851409491278975E-6
0.0055                    -0.0195                  5.120356571310355E-6
0.0055                    -0.0185                  4.956868902455373E-6
0.0055                    -0.0175                  4.810485044437336E-6
0.0055                    -0.0165                  4.706812206493713E-6
0.0055                    -0.0155                  4.681038677142259E-6
0.0055                    -0.0145                  4.776818170012966E-6
0.0055                    -0.0135                  5.046293153008808E-6
0.0055                    -0.0125                  5.554220762564038E-6
0.0055                    -0.0115                  6.385452396981929E-6
0.0055                    -0.0105                  7.667063894320224E-6
0.0055                    -0.0095                  9.615267608727411E-6
0.0055                    -0.0085                  1.2580237016168129E-5
0.0055                    -0.0075                  1.7214483280482387E-5
0.0055                    -0.0065                  2.4837537025344275E-5
0.0055                    -0.0055                  3.8252550076539995E-5
0.0055                    -0.0045                  6.375588718638019E-5
0.0055                    -0.0035                  1.1087961894202417E-4
0.0055                    -0.0025                  1.8994624323331698E-4
0.0055                    -0.0015                  2.650015627760083E-4
0.0055                    -5.0E-4                  3.52151587001877E-4
0.0055                    5.0E-4                   4.803815659362008E-4
0.0055                    0.0015                   6.083671149467367E-4
0.0055                    0.0025                   6.867282310507281E-4
0.0055                    0.0035                   6.587313808828721E-4
0.0055                    0.0045                   6.240967849799957E-4
0.0055                    0.0055                   6.331750060832389E-4
0.0055                    0.0065                   5.529988909349333E-4
0.0055                    0.0075                   5.157219560802337E-4
0.0055                    0.0085                   8.050357947968355E-4
0.0055                    0.0095                   0.0016316733834615222
0.0055                    0.0105                   0.004625723243218473
0.0055                    0.0115                   0.007096054860290954
0.0055                    0.0125                   0.015564884266840533
0.0055                    0.0135                   0.06362151705822609
0.0055                    0.0145                   0.09587391978587033
0.0055                    0.0155                   0.09271374162555121
0.0055                    0.0165                   0.05331771217872284
0.0055                    0.0175                   0.012032282219960036
0.0055                    0.0185                   0.0023861848711908876
0.0055                    0.0195                   0.003103285226410705
0.0055                    0.0205                   9.431456786259746E-4
0.0055                    0.0215                   2.3276313516221338E-4
0.0055                    0.0225                   6.367313281702319E-5
0.0055                    0.0235                   2.0383648913902872E-5
0.0055                    0.0245                   8.638314426292656E-6
0.0055                    0.0255                   4.787855560428979E-6
0.0055                    0.0265                   3.3755383032490123E-6
0.0055                    0.0275                   2.745807070609463E-6
0.0055                    0.0285                   2.34385310975676E-6
0.0055                    0.0295                   1.9296865048024177E-6
0.0055                    0.0305                   1.7041357316717963E-6
0.0055                    0.0315                   8.747178208531736E-7
0.0065                    -0.0315                  2.4127755796552524E-6
0.0065                    -0.0305                  4.494128380178354E-6
0.0065                    -0.0295                  4.703603824004549E-6
0.0065                    -0.0285                  5.339629222198752E-6
0.0065                    -0.0275                  5.715897137576574E-6
0.0065                    -0.0265                  5.964951687671312E-6
0.0065                    -0.0255                  6.0672373839364024E-6
0.0065                    -0.0245                  6.068558094411586E-6
0.0065                    -0.0235                  6.002992744401419E-6
0.0065                    -0.0225                  5.897494160524664E-6
0.0065                    -0.0215                  5.7661073554780834E-6
0.0065                    -0.0205                  5.614334169969504E-6
0.0065                    -0.0195                  5.4443713868618764E-6
0.0065                    -0.0185                  5.261907443559095E-6
0.0065                    -0.0175                  5.082830029108552E-6
0.0065                    -0.0165                  4.93845181541864E-6
0.0065                    -0.0155                  4.878470934205364E-6
0.0065                    -0.0145                  4.97365677242026E-6
0.0065                    -0.0135                  5.3209192220479385E-6
0.0065                    -0.0125                  6.057909795891982E-6
0.0065                    -0.0115                  7.402494600419992E-6
0.0065                    -0.0105                  9.705017365957552E-6
0.0065                    -0.0095                  1.3573133581506825E-5
0.0065                    -0.0085                  2.019560621598166E-5
0.0065                    -0.0075                  3.136755713037133E-5
0.0065                    -0.0065                  5.0524589061094796E-5
0.0065                    -0.0055                  8.609039776478615E-5