% Model:              Benchmark260518.mph
% Version:            COMSOL 6.2.0.339
% Date:               May 19 2026, 00:39
% Dimension:          2
% Nodes:              4096
% Expressions:        1
% Description:        速度大小
% Length unit:        m
% x                       y                        spf.U (m/s)
5.0E-4                    -0.0315                  1.4214252698108216E-6
5.0E-4                    -0.0305                  2.8393989632265606E-6
5.0E-4                    -0.0295                  3.189320437491628E-6
5.0E-4                    -0.0285                  3.574467090762522E-6
5.0E-4                    -0.0275                  3.778453837043443E-6
5.0E-4                    -0.0265                  3.9764508346994156E-6
5.0E-4                    -0.0255                  4.1356145271403175E-6
5.0E-4                    -0.0245                  4.271932892566496E-6
5.0E-4                    -0.0235                  4.393337290764921E-6
5.0E-4                    -0.0225                  4.495793225451511E-6
5.0E-4                    -0.0215                  4.585339299936294E-6
5.0E-4                    -0.0205                  4.6691409421794765E-6
5.0E-4                    -0.0195                  4.758646966557656E-6
5.0E-4                    -0.0185                  4.868351492942075E-6
5.0E-4                    -0.0175                  5.0233250636176494E-6
5.0E-4                    -0.0165                  5.274217686661959E-6
5.0E-4                    -0.0155                  5.739157695371385E-6
5.0E-4                    -0.0145                  6.617804389191279E-6
5.0E-4                    -0.0135                  8.54361929970106E-6
5.0E-4                    -0.0125                  1.4444123328660589E-5
5.0E-4                    -0.0115                  3.3362393732849984E-5
5.0E-4                    -0.0105                  9.58517875721221E-5
5.0E-4                    -0.0095                  1.9907697169946142E-4
5.0E-4                    -0.0085                  2.956061440389726E-4
5.0E-4                    -0.0075                  3.9813977145056596E-4
5.0E-4                    -0.0065                  6.21094389779386E-4
5.0E-4                    -0.0055                  0.0010853114167334132
5.0E-4                    -0.0045                  0.001787518612253939
5.0E-4                    -0.0035                  0.002628737005243681
5.0E-4                    -0.0025                  0.003494597393407509
5.0E-4                    -0.0015                  0.004300237364981128
5.0E-4                    -5.0E-4                  0.004994235408537816
5.0E-4                    5.0E-4                   0.0055657994746501965
5.0E-4                    0.0015                   0.006031772171924672
5.0E-4                    0.0025                   0.006410051956523229
5.0E-4                    0.0035                   0.006710760540570195
5.0E-4                    0.0045                   0.006934028412088514
5.0E-4                    0.0055                   0.007053225373534294
5.0E-4                    0.0065                   0.007010873475324051
5.0E-4                    0.0075                   0.006730717764473256
5.0E-4                    0.0085                   0.006141208261424653
5.0E-4                    0.0095                   0.00520274566978187
5.0E-4                    0.0105                   0.003952685080423306
5.0E-4                    0.0115                   0.002528909098666965
5.0E-4                    0.0125                   0.0012116136216105086
5.0E-4                    0.0135                   0.0011433543478237686
5.0E-4                    0.0145                   0.0018835364811714903
5.0E-4                    0.0155                   0.0020305116530211663
5.0E-4                    0.0165                   0.0016466999097061426
5.0E-4                    0.0175                   0.001328332022301786
5.0E-4                    0.0185                   0.0012651224562077845
5.0E-4                    0.0195                   0.0012718043276446667
5.0E-4                    0.0205                   0.0015440760978826873
5.0E-4                    0.0215                   0.003965665422782294
5.0E-4                    0.0225                   0.02554048388395818
5.0E-4                    0.0235                   0.04144276381833144
5.0E-4                    0.0245                   0.03180108419032337
5.0E-4                    0.0255                   0.011893754377551078
5.0E-4                    0.0265                   4.500584308528811E-4
5.0E-4                    0.0275                   3.74885981902531E-4
5.0E-4                    0.0285                   7.901840762572543E-5
5.0E-4                    0.0295                   1.31361599574043E-5
5.0E-4                    0.0305                   2.675920786328243E-6
5.0E-4                    0.0315                   7.468827404483262E-7
0.0015                    -0.0315                  2.7578945099122026E-6
0.0015                    -0.0305                  5.434004089825216E-6
0.0015                    -0.0295                  5.826069368447201E-6
0.0015                    -0.0285                  6.236055273819634E-6
0.0015                    -0.0275                  6.378937606708903E-6
0.0015                    -0.0265                  6.53008486621516E-6
0.0015                    -0.0255                  6.657475435486261E-6
0.0015                    -0.0245                  6.7738959150755276E-6
0.0015                    -0.0235                  6.880615338352534E-6
0.0015                    -0.0225                  6.970079115263693E-6
0.0015                    -0.0215                  7.0471975824138975E-6
0.0015                    -0.0205                  7.123082739371832E-6
0.0015                    -0.0195                  7.216657076776413E-6
0.0015                    -0.0185                  7.355114851406332E-6
0.0015                    -0.0175                  7.5883230258983215E-6
0.0015                    -0.0165                  8.02367753176897E-6
0.0015                    -0.0155                  8.903774380465472E-6
0.0015                    -0.0145                  1.0730604001528164E-5
0.0015                    -0.0135                  1.4970192451813267E-5
0.0015                    -0.0125                  2.6488256994777277E-5
0.0015                    -0.0115                  6.058065103315861E-5
0.0015                    -0.0105                  1.7281461342739187E-4
0.0015                    -0.0095                  3.881954052963911E-4
0.0015                    -0.0085                  7.338143929245759E-4
0.0015                    -0.0075                  0.0014150608323803364
0.0015                    -0.0065                  0.0026859962480233297
0.0015                    -0.0055                  0.004514337720902726
0.0015                    -0.0045                  0.00663730207393837
0.0015                    -0.0035                  0.008776302716281518
0.0015                    -0.0025                  0.010705695962528862
0.0015                    -0.0015                  0.01231120236092573
0.0015                    -5.0E-4                  0.013579343279146262
0.0015                    5.0E-4                   0.01454688928321276
0.0015                    0.0015                   0.015274695112239488
0.0015                    0.0025                   0.015833193420442773
0.0015                    0.0035                   0.01627039189167314
0.0015                    0.0045                   0.016590867639878916
0.0015                    0.0055                   0.016755533700149282
0.0015                    0.0065                   0.016688451918824673
0.0015                    0.0075                   0.016276554908705426
0.0015                    0.0085                   0.015398012152643241
0.0015                    0.0095                   0.013983496760737216
0.0015                    0.0105                   0.012035263910550481
0.0015                    0.0115                   0.009600003550231256
0.0015                    0.0125                   0.006728238271395717
0.0015                    0.0135                   0.003658665498323201
0.0015                    0.0145                   0.0019095928988838772
0.0015                    0.0155                   0.0030048835891736706
0.0015                    0.0165                   0.0036439435387667115
0.0015                    0.0175                   0.003607669645554702
0.0015                    0.0185                   0.003399256495465977
0.0015                    0.0195                   0.0031432190716644028
0.0015                    0.0205                   0.002130448065885004
0.0015                    0.0215                   0.012399555207057981
0.0015                    0.0225                   0.03245332832145694
0.0015                    0.0235                   0.039913853597946816
0.0015                    0.0245                   0.02785113819107594
0.0015                    0.0255                   0.009707488955179156
0.0015                    0.0265                   5.157719692732658E-4
0.0015                    0.0275                   7.278042713719037E-4
0.0015                    0.0285                   1.8099827516511113E-4
0.0015                    0.0295                   3.212007804756811E-5
0.0015                    0.0305                   8.348540612340449E-6
0.0015                    0.0315                   2.2904534942171894E-6
0.0025                    -0.0315                  2.8974745702463524E-6
0.0025                    -0.0305                  5.50227272990266E-6
0.0025                    -0.0295                  5.570270255071148E-6
0.0025                    -0.0285                  5.749301250876032E-6
0.0025                    -0.0275                  5.651923571360053E-6
0.0025                    -0.0265                  5.542548243949923E-6
0.0025                    -0.0255                  5.4430508121048274E-6
0.0025                    -0.0245                  5.366942362030703E-6
0.0025                    -0.0235                  5.303745758043298E-6
0.0025                    -0.0225                  5.245407646062516E-6
0.0025                    -0.0215                  5.1902697771570645E-6
0.0025                    -0.0205                  5.149831869181219E-6
0.0025                    -0.0195                  5.1480349163696195E-6
0.0025                    -0.0185                  5.224619138691606E-6
0.0025                    -0.0175                  5.453319654368012E-6
0.0025                    -0.0165                  5.992308796966197E-6
0.0025                    -0.0155                  7.1912652666389145E-6
0.0025                    -0.0145                  9.872175568028365E-6
0.0025                    -0.0135                  1.601165477482375E-5
0.0025                    -0.0125                  3.097827258268088E-5
0.0025                    -0.0115                  7.087117865488964E-5
0.0025                    -0.0105                  2.1449418610934638E-4
0.0025                    -0.0095                  6.114085285391765E-4
0.0025                    -0.0085                  0.0015710674373379235
0.0025                    -0.0075                  0.0035065847713585427
0.0025                    -0.0065                  0.006337758677923683
0.0025                    -0.0055                  0.00942400527311719
0.0025                    -0.0045                  0.0121810411986187
0.0025                    -0.0035                  0.014348632220319858
0.0025                    -0.0025                  0.0159391660337012
0.0025                    -0.0015                  0.017058507239035455
0.0025                    -5.0E-4                  0.017799358268451543
0.0025                    5.0E-4                   0.01826397775145991
0.0025                    0.0015                   0.018560747274365134
0.0025                    0.0025                   0.018772139345263436
0.0025                    0.0035                   0.018942933139230504
0.0025                    0.0045                   0.019091440327955757
0.0025                    0.0055                   0.01921566396063133
0.0025                    0.0065                   0.019296849075863487
0.0025                    0.0075                   0.019309441630798473
0.0025                    0.0085                   0.01921394516348284
0.0025                    0.0095                   0.01894980549843612
0.0025                    0.0105                   0.018405797820594715
0.0025                    0.0115                   0.01735899346825403
0.0025                    0.0125                   0.01545590620056537
0.0025                    0.0135                   0.012338182184052303
0.0025                    0.0145                   0.008025657885859593
0.0025                    0.0155                   0.003510447585790128
0.0025                    0.0165                   0.0014475095274475605
0.0025                    0.0175                   0.002813641339841429
0.0025                    0.0185                   0.003092108712056837
0.0025                    0.0195                   0.0020431689853268
0.0025                    0.0205                   0.00685851195001217
0.0025                    0.0215                   0.021942600695831815
0.0025                    0.0225                   0.03596438628007825
0.0025                    0.0235                   0.03676261124381259
0.0025                    0.0245                   0.022608841744787948
0.0025                    0.0255                   0.006513158561500694
0.0025                    0.0265                   1.8240089117922535E-4
0.0025                    0.0275                   7.51782062224953E-4
0.0025                    0.0285                   2.168262776557575E-4
0.0025                    0.0295                   4.4958114654894925E-5
0.0025                    0.0305                   1.4810070028331831E-5
0.0025                    0.0315                   4.003782752227627E-6
0.0035                    -0.0315                  3.1348059135431965E-6
0.0035                    -0.0305                  5.723455770043776E-6
0.0035                    -0.0295                  5.666570108564542E-6
0.0035                    -0.0285                  6.001049180095668E-6
0.0035                    -0.0275                  5.982639430942589E-6
0.0035                    -0.0265                  5.890616883079236E-6
0.0035                    -0.0255                  5.773190055053375E-6
0.0035                    -0.0245                  5.6792730872633115E-6
0.0035                    -0.0235                  5.608715139158698E-6
0.0035                    -0.0225                  5.552556594047345E-6
0.0035                    -0.0215                  5.507720807329447E-6
0.0035                    -0.0205                  5.492372693585609E-6
0.0035                    -0.0195                  5.552767765459395E-6
0.0035                    -0.0185                  5.76887112021834E-6
0.0035                    -0.0175                  6.279182612618025E-6
0.0035                    -0.0165                  7.3658835830822566E-6
0.0035                    -0.0155                  9.648128917387236E-6
0.0035                    -0.0145                  1.4468072446905389E-5
0.0035                    -0.0135                  2.534381695247977E-5
0.0035                    -0.0125                  5.2734341752253355E-5
0.0035                    -0.0115                  1.4114150273642623E-4
0.0035                    -0.0105                  4.3838590863550794E-4
0.0035                    -0.0095                  0.0013422990400603087
0.0035                    -0.0085                  0.0035125512812109482
0.0035                    -0.0075                  0.006940267085991295
0.0035                    -0.0065                  0.010625045378807966
0.0035                    -0.0055                  0.013579932444183304
0.0035                    -0.0045                  0.015477033153044117
0.0035                    -0.0035                  0.016479650463930937
0.0035                    -0.0025                  0.01684173914197778
0.0035                    -0.0015                  0.01680380128048843
0.0035                    -5.0E-4                  0.016585254950679768
0.0035                    5.0E-4                   0.016340649709872156
0.0035                    0.0015                   0.016150599491673627
0.0035                    0.0025                   0.01604479104014785
0.0035                    0.0035                   0.016036366560788613
0.0035                    0.0045                   0.016146294930451256
0.0035                    0.0055                   0.016394382502640626
0.0035                    0.0065                   0.016790926787567082
0.0035                    0.0075                   0.01735877587697058
0.0035                    0.0085                   0.018131726449774833
0.0035                    0.0095                   0.019103208086336986
0.0035                    0.0105                   0.02015297587517054
0.0035                    0.0115                   0.021009804032288144
0.0035                    0.0125                   0.02122275433801525
0.0035                    0.0135                   0.020209612001752007
0.0035                    0.0145                   0.01748747780931546
0.0035                    0.0155                   0.013205586765609284
0.0035                    0.0165                   0.008376871215445619
0.0035                    0.0175                   0.0045524813732205965
0.0035                    0.0185                   0.003644615567945789
0.0035                    0.0195                   0.007639032040399199
0.0035                    0.0205                   0.017516252526406227
0.0035                    0.0215                   0.029830501467246348
0.0035                    0.0225                   0.036528076794417656
0.0035                    0.0235                   0.03170678737750342
0.0035                    0.0245                   0.01636806785882022
0.0035                    0.0255                   0.0032877316181790053
0.0035                    0.0265                   5.88164800870374E-4
0.0035                    0.0275                   6.18171042399157E-4
0.0035                    0.0285                   1.8462517218523352E-4
0.0035                    0.0295                   4.870509534633194E-5
0.0035                    0.0305                   1.7897960932079993E-5
0.0035                    0.0315                   5.204545950384135E-6
0.0045                    -0.0315                  3.29621800158518E-6
0.0045                    -0.0305                  5.821806096409883E-6
0.0045                    -0.0295                  5.575677012303284E-6
0.0045                    -0.0285                  5.998132607866948E-6
0.0045                    -0.0275                  6.102794889067709E-6
0.0045                    -0.0265                  6.094870009111436E-6
0.0045                    -0.0255                  6.019889176817556E-6
0.0045                    -0.0245                  5.961385538472086E-6
0.0045                    -0.0235                  5.945621965867493E-6
0.0045                    -0.0225                  5.974050527162005E-6
0.0045                    -0.0215                  6.048636572147677E-6
0.0045                    -0.0205                  6.206219621869136E-6
0.0045                    -0.0195                  6.54594235498095E-6
0.0045                    -0.0185                  7.234750823612204E-6
0.0045                    -0.0175                  8.536424526377974E-6
0.0045                    -0.0165                  1.094573841156743E-5
0.0045                    -0.0155                  1.5544660393342013E-5
0.0045                    -0.0145                  2.517165355510081E-5
0.0045                    -0.0135                  4.748905022974232E-5
0.0045                    -0.0125                  1.1543959971834794E-4
0.0045                    -0.0115                  3.346201367209409E-4
0.0045                    -0.0105                  9.757359952812668E-4
0.0045                    -0.0095                  0.0028540899651982358
0.0045                    -0.0085                  0.006545592556339819
0.0045                    -0.0075                  0.01085033826853588
0.0045                    -0.0065                  0.01402688682917322
0.0045                    -0.0055                  0.015533929055622155
0.0045                    -0.0045                  0.015683787505468557
0.0045                    -0.0035                  0.014942078516977904
0.0045                    -0.0025                  0.01374265100154223
0.0045                    -0.0015                  0.012480097977699502
0.0045                    -5.0E-4                  0.0114166027154121
0.0045                    5.0E-4                   0.010629026416388907
0.0045                    0.0015                   0.010085184226190716
0.0045                    0.0025                   0.009746897901668354
0.0045                    0.0035                   0.009601631075277103
0.0045                    0.0045                   0.009661572311864175
0.0045                    0.0055                   0.009951840342472715
0.0045                    0.0065                   0.010495953593944589
0.0045                    0.0075                   0.01132916828011568
0.0045                    0.0085                   0.012530927404617769
0.0045                    0.0095                   0.014220144870533566
0.0045                    0.0105                   0.016436072043567722
0.0045                    0.0115                   0.01902871422261823
0.0045                    0.0125                   0.021553586174697815
0.0045                    0.0135                   0.02331257608927763
0.0045                    0.0145                   0.02356113554918323
0.0045                    0.0155                   0.021908734677416313
0.0045                    0.0165                   0.01879751497269491
0.0045                    0.0175                   0.015655999677501652
0.0045                    0.0185                   0.014892618809268298
0.0045                    0.0195                   0.018825935595439807
0.0045                    0.0205                   0.02645217025557021
0.0045                    0.0215                   0.03304538249852994
0.0045                    0.0225                   0.033625432911486376
0.0045                    0.0235                   0.02463006787361785
0.0045                    0.0245                   0.009926942867196767
0.0045                    0.0255                   8.641997846914907E-4
0.0045                    0.0265                   7.253358224938328E-4
0.0045                    0.0275                   4.222911411571998E-4
0.0045                    0.0285                   1.3474358463539657E-4
0.0045                    0.0295                   4.758896515310005E-5
0.0045                    0.0305                   1.7882812870120755E-5
0.0045                    0.0315                   5.516618008527353E-6
0.0055                    -0.0315                  3.4472279197484806E-6
0.0055                    -0.0305                  5.943837446952959E-6
0.0055                    -0.0295                  5.523342244320176E-6
0.0055                    -0.0285                  5.987638047936208E-6
0.0055                    -0.0275                  6.191891560086694E-6
0.0055                    -0.0265                  6.2883042650544135E-6
0.0055                    -0.0255                  6.293665765026581E-6
0.0055                    -0.0245                  6.319367184035116E-6
0.0055                    -0.0235                  6.437863584236355E-6
0.0055                    -0.0225                  6.68870607120576E-6
0.0055                    -0.0215                  7.1051039938609086E-6
0.0055                    -0.0205                  7.78591097378375E-6
0.0055                    -0.0195                  8.972342880771136E-6
0.0055                    -0.0185                  1.1121339976773922E-5
0.0055                    -0.0175                  1.4771091613896251E-5
0.0055                    -0.0165                  2.072901407670667E-5
0.0055                    -0.0155                  3.145591187416146E-5
0.0055                    -0.0145                  5.319023149741338E-5
0.0055                    -0.0135                  1.1154928250681212E-4
0.0055                    -0.0125                  2.8074536073381993E-4
0.0055                    -0.0115                  7.352049869957201E-4
0.0055                    -0.0105                  0.002053596634899981
0.0055                    -0.0095                  0.005313118831068745
0.0055                    -0.0085                  0.010132449317376222
0.0055                    -0.0075                  0.0141196260729228
0.0055                    -0.0065                  0.015716747341183928
0.0055                    -0.0055                  0.015164419543138519
0.0055                    -0.0045                  0.01324567140741812
0.0055                    -0.0035                  0.010740127996313575
0.0055                    -0.0025                  0.008400642321510993
0.0055                    -0.0015                  0.006636077409875403
0.0055                    -5.0E-4                  0.005449313173163624
0.0055                    5.0E-4                   0.004677765635303747
0.0055                    0.0015                   0.004169036961522137
0.0055                    0.0025                   0.0038249156242851773
0.0055                    0.0035                   0.003601159521274612
0.0055                    0.0045                   0.0035148858188165976
0.0055                    0.0055                   0.003622202224038525
0.0055                    0.0065                   0.0039555043188578155
0.0055                    0.0075                   0.004534604100369714
0.0055                    0.0085                   0.005462838747289708
0.0055                    0.0095                   0.006924801003614088
0.0055                    0.0105                   0.009115672595846447
0.0055                    0.0115                   0.012192850531345396
0.0055                    0.0125                   0.016035063754922745
0.0055                    0.0135                   0.020063341853584396
0.0055                    0.0145                   0.02333903569214366
0.0055                    0.0155                   0.024939536705896263
0.0055                    0.0165                   0.024595929539875556
0.0055                    0.0175                   0.023198163348362253
0.0055                    0.0185                   0.02281989484091756
0.0055                    0.0195                   0.02521689583872056
0.0055                    0.0205                   0.02921131775096741
0.0055                    0.0215                   0.031266764750521536
0.0055                    0.0225                   0.027557181152145373
0.0055                    0.0235                   0.016321716553297658
0.0055                    0.0245                   0.0044128282283830865
0.0055                    0.0255                   4.965907573065911E-4
0.0055                    0.0265                   6.726692782419825E-4
0.0055                    0.0275                   2.706620541881127E-4
0.0055                    0.0285                   1.0101815776346882E-4
0.0055                    0.0295                   4.595223559019359E-5
0.0055                    0.0305                   1.8142467628419064E-5
0.0055                    0.0315                   5.552287249795219E-6
0.0065                    -0.0315                  3.5592886675258364E-6
0.0065                    -0.0305                  6.042784011141265E-6
0.0065                    -0.0295                  5.4900202978357295E-6
0.0065                    -0.0285                  5.975754306743391E-6
0.0065                    -0.0275                  6.252709867826983E-6
0.0065                    -0.0265                  6.443902528351846E-6
0.0065                    -0.0255                  6.542907174883033E-6
0.0065                    -0.0245                  6.693520782818785E-6
0.0065                    -0.0235                  7.050583645883842E-6
0.0065                    -0.0225                  7.757768390123993E-6
0.0065                    -0.0215                  8.963764199638702E-6
0.0065                    -0.0205                  1.0955996255392657E-5
0.0065                    -0.0195                  1.4424537770379444E-5
0.0065                    -0.0185                  2.0659418019715586E-5
0.0065                    -0.0175                  3.216853840147681E-5
0.0065                    -0.0165                  5.0604411622099875E-5
0.0065                    -0.0155                  7.780407132177125E-5
0.0065                    -0.0145                  1.4183337285178814E-4
0.0065                    -0.0135                  2.9610975615089306E-4
0.0065                    -0.0125                  6.360723759049483E-4
0.0065                    -0.0115                  0.0015137591815304887
0.0065                    -0.0105                  0.003929369713064523
0.0065                    -0.0095                  0.008470682057974997
0.0065                    -0.0085                  0.013385067756662363
0.0065                    -0.0075                  0.015994604380379498
0.0065                    -0.0065                  0.01552385473354594
0.0065                    -0.0055                  0.012839890673057849
0.0065                    -0.0045                  0.009228091964462577