% Model:              Benchmark260518.mph
% Version:            COMSOL 6.2.0.339
% Date:               May 20 2026, 05:28
% Dimension:          2
% Nodes:              4096
% Expressions:        1
% Description:        速度大小
% Length unit:        m
% x                       y                        spf.U (m/s)
5.0E-4                    -0.0315                  1.9707249131955775E-6
5.0E-4                    -0.0305                  3.935499985958868E-6
5.0E-4                    -0.0295                  4.410569299983424E-6
5.0E-4                    -0.0285                  4.938902043298734E-6
5.0E-4                    -0.0275                  5.240816566783571E-6
5.0E-4                    -0.0265                  5.551540137381433E-6
5.0E-4                    -0.0255                  5.843316768826639E-6
5.0E-4                    -0.0245                  6.1480576282240915E-6
5.0E-4                    -0.0235                  6.464043592970798E-6
5.0E-4                    -0.0225                  6.777850451688561E-6
5.0E-4                    -0.0215                  7.068351835044417E-6
5.0E-4                    -0.0205                  7.32522278047642E-6
5.0E-4                    -0.0195                  7.551111801571554E-6
5.0E-4                    -0.0185                  7.775134486636673E-6
5.0E-4                    -0.0175                  8.033258497578278E-6
5.0E-4                    -0.0165                  8.355604209592466E-6
5.0E-4                    -0.0155                  8.749572139517246E-6
5.0E-4                    -0.0145                  9.206973314557143E-6
5.0E-4                    -0.0135                  9.759241191851828E-6
5.0E-4                    -0.0125                  1.0519404998150253E-5
5.0E-4                    -0.0115                  1.199264417074551E-5
5.0E-4                    -0.0105                  1.4847410306436395E-5
5.0E-4                    -0.0095                  2.3619760860467E-5
5.0E-4                    -0.0085                  5.302496520050013E-5
5.0E-4                    -0.0075                  1.4927439557805783E-4
5.0E-4                    -0.0065                  2.989328999006766E-4
5.0E-4                    -0.0055                  4.200934872662698E-4
5.0E-4                    -0.0045                  5.516552746439945E-4
5.0E-4                    -0.0035                  9.073525660364818E-4
5.0E-4                    -0.0025                  0.0016574068693956951
5.0E-4                    -0.0015                  0.0027432790934809126
5.0E-4                    -5.0E-4                  0.003983658479342177
5.0E-4                    5.0E-4                   0.005161292379647355
5.0E-4                    0.0015                   0.006073897853242243
5.0E-4                    0.0025                   0.00657626653399266
5.0E-4                    0.0035                   0.006577762344026109
5.0E-4                    0.0045                   0.006038995990259372
5.0E-4                    0.0055                   0.004996731069296514
5.0E-4                    0.0065                   0.003598134737965829
5.0E-4                    0.0075                   0.002106759573154005
5.0E-4                    0.0085                   0.0012521298501702615
5.0E-4                    0.0095                   0.0021075020086104485
5.0E-4                    0.0105                   0.0029238459662840797
5.0E-4                    0.0115                   0.0029420410409058827
5.0E-4                    0.0125                   0.002440462514323023
5.0E-4                    0.0135                   0.003562184961584437
5.0E-4                    0.0145                   0.024197840286054952
5.0E-4                    0.0155                   0.041136914709048074
5.0E-4                    0.0165                   0.03331671939876429
5.0E-4                    0.0175                   0.01314106851906914
5.0E-4                    0.0185                   5.023543717230496E-4
5.0E-4                    0.0195                   3.9186118666813464E-4
5.0E-4                    0.0205                   9.225690410524064E-5
5.0E-4                    0.0215                   5.0947267888895933E-5
5.0E-4                    0.0225                   2.826520880624131E-5
5.0E-4                    0.0235                   1.2211051911303293E-5
5.0E-4                    0.0245                   5.52869755734999E-6
5.0E-4                    0.0255                   3.0269222932883652E-6
5.0E-4                    0.0265                   2.0841008487725074E-6
5.0E-4                    0.0275                   1.7438628576667595E-6
5.0E-4                    0.0285                   1.6012377480596406E-6
5.0E-4                    0.0295                   1.4934297003720682E-6
5.0E-4                    0.0305                   1.4277945957827043E-6
5.0E-4                    0.0315                   7.270640962675309E-7
0.0015                    -0.0315                  3.829108734398066E-6
0.0015                    -0.0305                  7.534774005943518E-6
0.0015                    -0.0295                  8.054287437570081E-6
0.0015                    -0.0285                  8.615828247087073E-6
0.0015                    -0.0275                  8.839982981427063E-6
0.0015                    -0.0265                  9.107263067468214E-6
0.0015                    -0.0255                  9.396972540907271E-6
0.0015                    -0.0245                  9.746516417969009E-6
0.0015                    -0.0235                  1.0150184098305683E-5
0.0015                    -0.0225                  1.0581586557711753E-5
0.0015                    -0.0215                  1.099738974357994E-5
0.0015                    -0.0205                  1.1362382849471391E-5
0.0015                    -0.0195                  1.1667047502860857E-5
0.0015                    -0.0185                  1.195511516458059E-5
0.0015                    -0.0175                  1.2306067162750673E-5
0.0015                    -0.0165                  1.2802799473403722E-5
0.0015                    -0.0155                  1.3490716845721896E-5
0.0015                    -0.0145                  1.4379784155872111E-5
0.0015                    -0.0135                  1.551340902773514E-5
0.0015                    -0.0125                  1.712865296610762E-5
0.0015                    -0.0115                  2.0148391961255148E-5
0.0015                    -0.0105                  2.659917935714678E-5
0.0015                    -0.0095                  4.400011363154999E-5
0.0015                    -0.0085                  9.60306634572818E-5
0.0015                    -0.0075                  2.603565010771471E-4
0.0015                    -0.0065                  5.474859179369216E-4
0.0015                    -0.0055                  9.905305130453452E-4
0.0015                    -0.0045                  0.0019470187074709876
0.0015                    -0.0035                  0.0037678466545914982
0.0015                    -0.0025                  0.006285247878314998
0.0015                    -0.0015                  0.009046544611224436
0.0015                    -5.0E-4                  0.011625258916144302
0.0015                    5.0E-4                   0.013710829245655915
0.0015                    0.0015                   0.015151261703688265
0.0015                    0.0025                   0.015895232368991638
0.0015                    0.0035                   0.01591778315346831
0.0015                    0.0045                   0.015215742808795427
0.0015                    0.0055                   0.013816364677596591
0.0015                    0.0065                   0.0118001540124735
0.0015                    0.0075                   0.0092548147355468
0.0015                    0.0085                   0.006193631531293199
0.0015                    0.0095                   0.0030745205635243963
0.0015                    0.0105                   0.0020595653056832675
0.0015                    0.0115                   0.0029965958243871084
0.0015                    0.0125                   0.0025985473982630012
0.0015                    0.0135                   0.010876783306899037
0.0015                    0.0145                   0.02994721016996981
0.0015                    0.0155                   0.03960687818713467
0.0015                    0.0165                   0.030076911386717073
0.0015                    0.0175                   0.01165354461017755
0.0015                    0.0185                   8.222965539845799E-4
0.0015                    0.0195                   9.291458875539854E-4
0.0015                    0.0205                   3.032564601729118E-4
0.0015                    0.0215                   1.1511233379980712E-4
0.0015                    0.0225                   5.8908361024051914E-5
0.0015                    0.0235                   2.4647898088940976E-5
0.0015                    0.0245                   1.109825724203801E-5
0.0015                    0.0255                   6.030883092853334E-6
0.0015                    0.0265                   4.094229940859326E-6
0.0015                    0.0275                   3.3892772365376367E-6
0.0015                    0.0285                   3.1420672678756575E-6
0.0015                    0.0295                   2.979444938934012E-6
0.0015                    0.0305                   2.835035359554037E-6
0.0015                    0.0315                   1.436008755628953E-6
0.0025                    -0.0315                  4.049213665698711E-6
0.0025                    -0.0305                  7.655906612317756E-6
0.0025                    -0.0295                  7.698205585721483E-6
0.0025                    -0.0285                  7.939904878104312E-6
0.0025                    -0.0275                  7.818800817245188E-6
0.0025                    -0.0265                  7.710984900010334E-6
0.0025                    -0.0255                  7.660602989393246E-6
0.0025                    -0.0245                  7.712622222578859E-6
0.0025                    -0.0235                  7.871390498122934E-6
0.0025                    -0.0225                  8.119683625642135E-6
0.0025                    -0.0215                  8.41476321886506E-6
0.0025                    -0.0205                  8.702302130308818E-6
0.0025                    -0.0195                  8.95018798571584E-6
0.0025                    -0.0185                  9.195458059047587E-6
0.0025                    -0.0175                  9.575858175491121E-6
0.0025                    -0.0165                  1.0282534875956264E-5
0.0025                    -0.0155                  1.1454635039722697E-5
0.0025                    -0.0145                  1.3081875405099522E-5
0.0025                    -0.0135                  1.5093772642719001E-5
0.0025                    -0.0125                  1.7730895335340814E-5
0.0025                    -0.0115                  2.2132937493322997E-5
0.0025                    -0.0105                  3.155282159625329E-5
0.0025                    -0.0095                  5.3739391686286204E-5
0.0025                    -0.0085                  1.0830421947067933E-4
0.0025                    -0.0075                  2.863893257717469E-4
0.0025                    -0.0065                  7.607407123914622E-4
0.0025                    -0.0055                  0.001995154889329842
0.0025                    -0.0045                  0.0045403475964527025
0.0025                    -0.0035                  0.008080320073685482
0.0025                    -0.0025                  0.01160129460003947
0.0025                    -0.0015                  0.014401791405142923
0.0025                    -5.0E-4                  0.016334615922553024
0.0025                    5.0E-4                   0.01752945039146573
0.0025                    0.0015                   0.018165348352860964
0.0025                    0.0025                   0.01844269026443901
0.0025                    0.0035                   0.01854218196661609
0.0025                    0.0045                   0.018589351040104046
0.0025                    0.0055                   0.018599967947309098
0.0025                    0.0065                   0.01840860518148568
0.0025                    0.0075                   0.017670361473917352
0.0025                    0.0085                   0.01591233502223563
0.0025                    0.0095                   0.012841965216117942
0.0025                    0.0105                   0.008913105971344435
0.0025                    0.0115                   0.006032309628730938
0.0025                    0.0125                   0.008279380598583595
0.0025                    0.0135                   0.018823203873840327
0.0025                    0.0145                   0.03214806090204134
0.0025                    0.0155                   0.0364300318936063
0.0025                    0.0165                   0.025991422601952325
0.0025                    0.0175                   0.009513005876236234
0.0025                    0.0185                   5.620548117957287E-4
0.0025                    0.0195                   0.0012689675454313665
0.0025                    0.0205                   5.486089672030771E-4
0.0025                    0.0215                   1.5605589845502137E-4
0.0025                    0.0225                   6.516992793188751E-5
0.0025                    0.0235                   2.782030436674173E-5
0.0025                    0.0245                   1.336404699682635E-5
0.0025                    0.0255                   7.402017583997722E-6
0.0025                    0.0265                   4.8817140415257015E-6
0.0025                    0.0275                   3.899155366716667E-6
0.0025                    0.0285                   3.544760175211879E-6
0.0025                    0.0295                   3.277061089917811E-6
0.0025                    0.0305                   2.9944569063261475E-6
0.0025                    0.0315                   1.5008430411789184E-6
0.0035                    -0.0315                  4.41546535747893E-6
0.0035                    -0.0305                  7.995226607258164E-6
0.0035                    -0.0295                  7.810461502273898E-6
0.0035                    -0.0285                  8.246641926693637E-6
0.0035                    -0.0275                  8.207846480624484E-6
0.0035                    -0.0265                  8.085044555950854E-6
0.0035                    -0.0255                  7.957500131975781E-6
0.0035                    -0.0245                  7.931398305055333E-6
0.0035                    -0.0235                  8.052440512470289E-6
0.0035                    -0.0225                  8.341937736780173E-6
0.0035                    -0.0215                  8.78917065658152E-6
0.0035                    -0.0205                  9.360039469628234E-6
0.0035                    -0.0195                  1.0035717103752323E-5
0.0035                    -0.0185                  1.0900088954771653E-5
0.0035                    -0.0175                  1.2243155960123925E-5
0.0035                    -0.0165                  1.4602919086414825E-5
0.0035                    -0.0155                  1.8421349894983418E-5
0.0035                    -0.0145                  2.3629973367791205E-5
0.0035                    -0.0135                  2.9641601139953648E-5
0.0035                    -0.0125                  3.5870462914222797E-5
0.0035                    -0.0115                  4.385819354900134E-5
0.0035                    -0.0105                  6.0028943218191725E-5
0.0035                    -0.0095                  9.802870941963368E-5
0.0035                    -0.0085                  2.056273293102671E-4
0.0035                    -0.0075                  5.420047722521166E-4
0.0035                    -0.0065                  0.0016039874088896813
0.0035                    -0.0055                  0.004236376018105406
0.0035                    -0.0045                  0.008271172799931408
0.0035                    -0.0035                  0.012213854553489873
0.0035                    -0.0025                  0.01490535516008658
0.0035                    -0.0015                  0.016226187178129944
0.0035                    -5.0E-4                  0.016546083432361438
0.0035                    5.0E-4                   0.016267789904880463
0.0035                    0.0015                   0.015794346872542112
0.0035                    0.0025                   0.01546589415040795
0.0035                    0.0035                   0.015528662715964153
0.0035                    0.0045                   0.01614948933630017
0.0035                    0.0055                   0.017386413240237753
0.0035                    0.0065                   0.01906925761575524
0.0035                    0.0075                   0.020698198362227773
0.0035                    0.0085                   0.021587564168862965
0.0035                    0.0095                   0.02110695915396669
0.0035                    0.0105                   0.01920976287917615
0.0035                    0.0115                   0.01717103983995849
0.0035                    0.0125                   0.01794486548342344
0.0035                    0.0135                   0.023706041849517644
0.0035                    0.0145                   0.030570892302568965
0.0035                    0.0155                   0.031255287019985575
0.0035                    0.0165                   0.02132100632630282
0.0035                    0.0175                   0.007801540599413037
0.0035                    0.0185                   3.657036913864937E-4
0.0035                    0.0195                   0.001421897175524511
0.0035                    0.0205                   7.626040433297186E-4
0.0035                    0.0215                   1.9684665742024436E-4
0.0035                    0.0225                   8.027965436652865E-5
0.0035                    0.0235                   3.811626603048812E-5
0.0035                    0.0245                   1.962492704314098E-5
0.0035                    0.0255                   1.0710802198255639E-5
0.0035                    0.0265                   6.722967777013622E-6
0.0035                    0.0275                   5.0335437202652504E-6
0.0035                    0.0285                   4.269366604452556E-6
0.0035                    0.0295                   3.6773258517914907E-6
0.0035                    0.0305                   3.1977815917107724E-6
0.0035                    0.0315                   1.5966470589467555E-6
0.0045                    -0.0315                  4.648049007064383E-6
0.0045                    -0.0305                  8.130804364627083E-6
0.0045                    -0.0295                  7.652266540416131E-6
0.0045                    -0.0285                  8.192167799244242E-6
0.0045                    -0.0275                  8.299619979776598E-6
0.0045                    -0.0265                  8.256220721072184E-6
0.0045                    -0.0255                  8.12837759273067E-6
0.0045                    -0.0245                  8.074506656737107E-6
0.0045                    -0.0235                  8.204061792954098E-6
0.0045                    -0.0225                  8.60913473083512E-6
0.0045                    -0.0215                  9.363192258868244E-6
0.0045                    -0.0205                  1.052858877557657E-5
0.0045                    -0.0195                  1.2199720573456087E-5
0.0045                    -0.0185                  1.469759818827565E-5
0.0045                    -0.0175                  1.891010742393847E-5
0.0045                    -0.0165                  2.648990367203755E-5
0.0045                    -0.0155                  4.0296249925502814E-5
0.0045                    -0.0145                  6.0955922885076765E-5
0.0045                    -0.0135                  8.195765401887132E-5
0.0045                    -0.0125                  9.873042199927126E-5
0.0045                    -0.0115                  1.1473326481519294E-4
0.0045                    -0.0105                  1.42962496404842E-4
0.0045                    -0.0095                  2.3345882165222003E-4
0.0045                    -0.0085                  4.802186509788805E-4
0.0045                    -0.0075                  0.001168636653659803
0.0045                    -0.0065                  0.003282034411229851
0.0045                    -0.0055                  0.007430632639666727
0.0045                    -0.0045                  0.011999008463031239
0.0045                    -0.0035                  0.014889042839663335
0.0045                    -0.0025                  0.015697188035278774
0.0045                    -0.0015                  0.014989971128528422
0.0045                    -5.0E-4                  0.013404647183894275
0.0045                    5.0E-4                   0.011591033629616701
0.0045                    0.0015                   0.010089795163755553
0.0045                    0.0025                   0.009184944398979556
0.0045                    0.0035                   0.008988456377678415
0.0045                    0.0045                   0.009579126716143097
0.0045                    0.0055                   0.011074889749704877
0.0045                    0.0065                   0.013521087741813417
0.0045                    0.0075                   0.016657290380473602
0.0045                    0.0085                   0.019885367115560448
0.0045                    0.0095                   0.022346900807323142
0.0045                    0.0105                   0.023287324371151337
0.0045                    0.0115                   0.022734360714086504
0.0045                    0.0125                   0.021936218076329957
0.0045                    0.0135                   0.022828909980272788
0.0045                    0.0145                   0.024906503673597973
0.0045                    0.0155                   0.023798310413857573
0.0045                    0.0165                   0.016615610646591217
0.0045                    0.0175                   0.008157619886106564
0.0045                    0.0185                   0.0034196122511945307
0.0045                    0.0195                   0.001795302397509192
0.0045                    0.0205                   9.20614618165314E-4
0.0045                    0.0215                   3.3897995410259516E-4
0.0045                    0.0225                   1.7814652058108753E-4
0.0045                    0.0235                   7.710806709736932E-5
0.0045                    0.0245                   3.22925340996137E-5
0.0045                    0.0255                   1.5869533092935836E-5
0.0045                    0.0265                   9.240297978324515E-6
0.0045                    0.0275                   6.295651837556013E-6
0.0045                    0.0285                   4.9140218047578325E-6
0.0045                    0.0295                   3.9861586434354995E-6
0.0045                    0.0305                   3.367652387891084E-6
0.0045                    0.0315                   1.6839615237933926E-6
0.0055                    -0.0315                  4.851445784364513E-6
0.0055                    -0.0305                  8.278246186660089E-6
0.0055                    -0.0295                  7.5321518965669205E-6
0.0055                    -0.0285                  8.109605228011862E-6
0.0055                    -0.0275                  8.335697697523884E-6
0.0055                    -0.0265                  8.411175748707921E-6
0.0055                    -0.0255                  8.347040083675599E-6
0.0055                    -0.0245                  8.331845262458446E-6
0.0055                    -0.0235                  8.55739102429278E-6
0.0055                    -0.0225                  9.23425038232875E-6
0.0055                    -0.0215                  1.0615206962879964E-5
0.0055                    -0.0205                  1.3037486145101916E-5
0.0055                    -0.0195                  1.696262855758084E-5
0.0055                    -0.0185                  2.325922266600443E-5
0.0055                    -0.0175                  3.4609298661368586E-5
0.0055                    -0.0165                  5.794966810188712E-5
0.0055                    -0.0155                  1.0585147545420495E-4
0.0055                    -0.0145                  2.0540274919557093E-4
0.0055                    -0.0135                  3.2101113594482333E-4
0.0055                    -0.0125                  3.963402102231047E-4
0.0055                    -0.0115                  4.435969349540139E-4
0.0055                    -0.0105                  5.033948213398809E-4
0.0055                    -0.0095                  6.775816899551209E-4
0.0055                    -0.0085                  0.0011008519329219848
0.0055                    -0.0075                  0.0024092602366533123
0.0055                    -0.0065                  0.005842821878340243
0.0055                    -0.0055                  0.01087130681893821
0.0055                    -0.0045                  0.01474529766049909
0.0055                    -0.0035                  0.01580130480107902
0.0055                    -0.0025                  0.01443524974440422
0.0055                    -0.0015                  0.011663325116108132
0.0055                    -5.0E-4                  0.008581876170720884
0.0055                    5.0E-4                   0.006098021082762596
0.0055                    0.0015                   0.004507879497243625
0.0055                    0.0025                   0.0036750062348703595
0.0055                    0.0035                   0.0034156308437733327
0.0055                    0.0045                   0.0036637061156276607
0.0055                    0.0055                   0.004501795477134277
0.0055                    0.0065                   0.006094797504851745
0.0055                    0.0075                   0.008560100629541453
0.0055                    0.0085                   0.01179746820013927
0.0055                    0.0095                   0.015275807810874363
0.0055                    0.0105                   0.01808683126188127
0.0055                    0.0115                   0.019311092386706117
0.0055                    0.0125                   0.01861922976639955
0.0055                    0.0135                   0.017007406562159703
0.0055                    0.0145                   0.016205218817314584
0.0055                    0.0155                   0.015383333574262303
0.0055                    0.0165                   0.013548416035508139
0.0055                    0.0175                   0.011660444527174811
0.0055                    0.0185                   0.009069536665618258
0.0055                    0.0195                   0.005706000093456617
0.0055                    0.0205                   0.0027903432621453404
0.0055                    0.0215                   0.0011566214703789572
0.0055                    0.0225                   4.7576021760890045E-4
0.0055                    0.0235                   1.7017487063463878E-4
0.0055                    0.0245                   5.687852954893387E-5
0.0055                    0.0255                   2.5141331690429695E-5
0.0055                    0.0265                   1.29821692763101E-5
0.0055                    0.0275                   7.956400159232774E-6
0.0055                    0.0285                   5.697426582254671E-6
0.0055                    0.0295                   4.378636535421645E-6
0.0055                    0.0305                   3.602984595724443E-6
0.0055                    0.0315                   1.7934606456603258E-6
0.0065                    -0.0315                  5.01951955109887E-6
0.0065                    -0.0305                  8.408133317649917E-6
0.0065                    -0.0295                  7.428265338296207E-6
0.0065                    -0.0285                  8.007799118368176E-6
0.0065                    -0.0275                  8.317081415389387E-6
0.0065                    -0.0265                  8.517497684273135E-6
0.0065                    -0.0255                  8.574078189017145E-6
0.0065                    -0.0245                  8.69896067010336E-6
0.0065                    -0.0235                  9.206097136926505E-6
0.0065                    -0.0225                  1.0528783222596974E-5
0.0065                    -0.0215                  1.3265515953973725E-5
0.0065                    -0.0205                  1.8464914451452943E-5
0.0065                    -0.0195                  2.780202107932177E-5
0.0065                    -0.0185                  4.361511636709043E-5
0.0065                    -0.0175                  7.133165420399813E-5
0.0065                    -0.0165                  1.3604492342742157E-4
0.0065                    -0.0155                  3.195784286153149E-4
0.0065                    -0.0145                  6.84160164358232E-4
0.0065                    -0.0135                  0.0011394625375767227
0.0065                    -0.0125                  0.0015433294563053617
0.0065                    -0.0115                  0.001818750060179255
0.0065                    -0.0105                  0.0019423078904103764
0.0065                    -0.0095                  0.002017085118698065
0.0065                    -0.0085                  0.0024421557370912315
0.0065                    -0.0075                  0.004469442930614165
0.0065                    -0.0065                  0.008855742976857674
0.0065                    -0.0055                  0.013653439447458853