% Model:              Benchmark260518.mph
% Version:            COMSOL 6.2.0.339
% Date:               May 20 2026, 00:35
% Dimension:          2
% Nodes:              4096
% Expressions:        1
% Description:        速度大小
% Length unit:        m
% x                       y                        spf.U (m/s)
5.0E-4                    -0.0315                  1.9818592706323824E-6
5.0E-4                    -0.0305                  3.960759414115641E-6
5.0E-4                    -0.0295                  4.43522557733406E-6
5.0E-4                    -0.0285                  4.948353953984656E-6
5.0E-4                    -0.0275                  5.227787553238217E-6
5.0E-4                    -0.0265                  5.513527935902715E-6
5.0E-4                    -0.0255                  5.802969347035474E-6
5.0E-4                    -0.0245                  6.169819856743114E-6
5.0E-4                    -0.0235                  6.6857315949451925E-6
5.0E-4                    -0.0225                  7.507496963977523E-6
5.0E-4                    -0.0215                  8.984266163801412E-6
5.0E-4                    -0.0205                  1.2045003316538019E-5
5.0E-4                    -0.0195                  2.1641546896593958E-5
5.0E-4                    -0.0185                  5.3385453668527656E-5
5.0E-4                    -0.0175                  1.6024572714122873E-4
5.0E-4                    -0.0165                  3.406394484525663E-4
5.0E-4                    -0.0155                  4.709756649942456E-4
5.0E-4                    -0.0145                  5.69847942018158E-4
5.0E-4                    -0.0135                  0.001224687228011687
5.0E-4                    -0.0125                  0.0028407893319477334
5.0E-4                    -0.0115                  0.004970990986678503
5.0E-4                    -0.0105                  0.006890756498492846
5.0E-4                    -0.0095                  0.007930387928225566
5.0E-4                    -0.0085                  0.0078310372090871
5.0E-4                    -0.0075                  0.006776429845666998
5.0E-4                    -0.0065                  0.005039928071920516
5.0E-4                    -0.0055                  0.002750390096531843
5.0E-4                    -0.0045                  0.0019029545135472463
5.0E-4                    -0.0035                  0.0035476980974256784
5.0E-4                    -0.0025                  0.003514904819931189
5.0E-4                    -0.0015                  0.041306356520203806
5.0E-4                    -5.0E-4                  0.08398387901680829
5.0E-4                    5.0E-4                   0.08844993823161494
5.0E-4                    0.0015                   0.048044056500439504
5.0E-4                    0.0025                   0.005096850616588807
5.0E-4                    0.0035                   0.0028546905319265987
5.0E-4                    0.0045                   0.001347188095060284
5.0E-4                    0.0055                   0.0036442348768295665
5.0E-4                    0.0065                   0.006060468523512004
5.0E-4                    0.0075                   0.007605249771420985
5.0E-4                    0.0085                   0.00813786954805995
5.0E-4                    0.0095                   0.007424210747694146
5.0E-4                    0.0105                   0.005528417865956418
5.0E-4                    0.0115                   0.0031592268711655535
5.0E-4                    0.0125                   0.00127524750251181
5.0E-4                    0.0135                   5.920317516525848E-4
5.0E-4                    0.0145                   5.948367366684873E-4
5.0E-4                    0.0155                   4.7225817796273155E-4
5.0E-4                    0.0165                   2.3830725345085497E-4
5.0E-4                    0.0175                   8.226555597037704E-5
5.0E-4                    0.0185                   3.424087758556272E-5
5.0E-4                    0.0195                   1.988452438983209E-5
5.0E-4                    0.0205                   1.550294630954264E-5
5.0E-4                    0.0215                   1.3330401233368256E-5
5.0E-4                    0.0225                   1.2105653928346214E-5
5.0E-4                    0.0235                   1.128498589713815E-5
5.0E-4                    0.0245                   1.0660505587444546E-5
5.0E-4                    0.0255                   1.0155524105222992E-5
5.0E-4                    0.0265                   9.702738501862285E-6
5.0E-4                    0.0275                   9.208202144042999E-6
5.0E-4                    0.0285                   8.69842523035692E-6
5.0E-4                    0.0295                   7.779939677817816E-6
5.0E-4                    0.0305                   6.953568701657325E-6
5.0E-4                    0.0315                   3.48257882977207E-6
0.0015                    -0.0315                  3.855917974889304E-6
0.0015                    -0.0305                  7.59450281464606E-6
0.0015                    -0.0295                  8.116428596702028E-6
0.0015                    -0.0285                  8.64627709638578E-6
0.0015                    -0.0275                  8.82019472910533E-6
0.0015                    -0.0265                  9.028716808241556E-6
0.0015                    -0.0255                  9.290632226269871E-6
0.0015                    -0.0245                  9.72015574750613E-6
0.0015                    -0.0235                  1.0470259946637103E-5
0.0015                    -0.0225                  1.1879016790325421E-5
0.0015                    -0.0215                  1.47636456822632E-5
0.0015                    -0.0205                  2.1489279764546345E-5
0.0015                    -0.0195                  4.129737228034928E-5
0.0015                    -0.0185                  1.0435958236051275E-4
0.0015                    -0.0175                  3.2137045328351063E-4
0.0015                    -0.0165                  7.278648039965193E-4
0.0015                    -0.0155                  0.0013845012351273041
0.0015                    -0.0145                  0.0033074450683443714
0.0015                    -0.0135                  0.007413541615712665
0.0015                    -0.0125                  0.012713358402894727
0.0015                    -0.0115                  0.01777844695119541
0.0015                    -0.0105                  0.02163649287759277
0.0015                    -0.0095                  0.023840859086958578
0.0015                    -0.0085                  0.02438320952969427
0.0015                    -0.0075                  0.02350792780933612
0.0015                    -0.0065                  0.021251767380372683
0.0015                    -0.0055                  0.017079114752816194
0.0015                    -0.0045                  0.0106884013961497
0.0015                    -0.0035                  0.004747607546161768
0.0015                    -0.0025                  0.011719330350511837
0.0015                    -0.0015                  0.044973334453893773
0.0015                    -5.0E-4                  0.0764906128231399
0.0015                    5.0E-4                   0.0808242370368245
0.0015                    0.0015                   0.05438072275456067
0.0015                    0.0025                   0.01811514693579528
0.0015                    0.0035                   0.007839412697309409
0.0015                    0.0045                   0.013800704594414083
0.0015                    0.0055                   0.02058797538512251
0.0015                    0.0065                   0.02466830053794202
0.0015                    0.0075                   0.026357076169530713
0.0015                    0.0085                   0.026205639836999115
0.0015                    0.0095                   0.024190683292298686
0.0015                    0.0105                   0.020183336966383105
0.0015                    0.0115                   0.01456868933252646
0.0015                    0.0125                   0.00843803677919226
0.0015                    0.0135                   0.0036118273671601918
0.0015                    0.0145                   0.0015409803784838833
0.0015                    0.0155                   9.009679112833974E-4
0.0015                    0.0165                   4.3806375219892477E-4
0.0015                    0.0175                   1.5292730693676005E-4
0.0015                    0.0185                   6.315244839413643E-5
0.0015                    0.0195                   3.457769832012846E-5
0.0015                    0.0205                   2.505779749443712E-5
0.0015                    0.0215                   2.0878173432469963E-5
0.0015                    0.0225                   1.8715425050676215E-5
0.0015                    0.0235                   1.745129039291613E-5
0.0015                    0.0245                   1.6657759430720326E-5
0.0015                    0.0255                   1.6143994270702426E-5
0.0015                    0.0265                   1.577331936533685E-5
0.0015                    0.0275                   1.5405129136432585E-5
0.0015                    0.0285                   1.504999186355713E-5
0.0015                    0.0295                   1.4085398698012054E-5
0.0015                    0.0305                   1.3217412597280847E-5
0.0015                    0.0315                   6.733232717359334E-6
0.0025                    -0.0315                  4.0785269487363375E-6
0.0025                    -0.0305                  7.731662719977667E-6
0.0025                    -0.0295                  7.79776741808418E-6
0.0025                    -0.0285                  8.012461397409919E-6
0.0025                    -0.0275                  7.83386277936811E-6
0.0025                    -0.0265                  7.65068331301337E-6
0.0025                    -0.0255                  7.545627921110966E-6
0.0025                    -0.0245                  7.656705741405004E-6
0.0025                    -0.0235                  8.21488965478659E-6
0.0025                    -0.0225                  9.727645208040677E-6
0.0025                    -0.0215                  1.3503076275411312E-5
0.0025                    -0.0205                  2.3202807123830603E-5
0.0025                    -0.0195                  5.008264214094105E-5
0.0025                    -0.0185                  1.3147601527898907E-4
0.0025                    -0.0175                  4.5929994621919087E-4
0.0025                    -0.0165                  0.0012656969612734488
0.0025                    -0.0155                  0.003715785937502148
0.0025                    -0.0145                  0.009428387617365733
0.0025                    -0.0135                  0.017059257434639322
0.0025                    -0.0125                  0.023671099952099726
0.0025                    -0.0115                  0.028152235950598674
0.0025                    -0.0105                  0.030886812351151472
0.0025                    -0.0095                  0.03267154732597397
0.0025                    -0.0085                  0.03414254541307057
0.0025                    -0.0075                  0.0355669780727051
0.0025                    -0.0065                  0.03663160691539183
0.0025                    -0.0055                  0.03633070788505028
0.0025                    -0.0045                  0.033418687707828125
0.0025                    -0.0035                  0.028389094121895646
0.0025                    -0.0025                  0.027961209208896717
0.0025                    -0.0015                  0.04422919172549278
0.0025                    -5.0E-4                  0.0632371113389064
0.0025                    5.0E-4                   0.06730593141015849
0.0025                    0.0015                   0.05318719241393246
0.0025                    0.0025                   0.034750926526321974
0.0025                    0.0035                   0.032883329861434364
0.0025                    0.0045                   0.03823573416154622
0.0025                    0.0055                   0.04135392742188708
0.0025                    0.0065                   0.04116641009642622
0.0025                    0.0075                   0.039366423594985114
0.0025                    0.0085                   0.03725099406205826
0.0025                    0.0095                   0.034994717695499
0.0025                    0.0105                   0.031912006897553136
0.0025                    0.0115                   0.026923415119438604
0.0025                    0.0125                   0.01937320593976432
0.0025                    0.0135                   0.010434924498941369
0.0025                    0.0145                   0.0038554748991510594
0.0025                    0.0155                   0.0013018351624866631
0.0025                    0.0165                   5.345811519588969E-4
0.0025                    0.0175                   1.706295323602403E-4
0.0025                    0.0185                   6.930861978184341E-5
0.0025                    0.0195                   3.483998141273258E-5
0.0025                    0.0205                   2.213003177296942E-5
0.0025                    0.0215                   1.6860300786199263E-5
0.0025                    0.0225                   1.4420207374851174E-5
0.0025                    0.0235                   1.3301702424307369E-5
0.0025                    0.0245                   1.2925469734351289E-5
0.0025                    0.0255                   1.296123338114567E-5
0.0025                    0.0265                   1.3196326084403844E-5
0.0025                    0.0275                   1.3465419958096976E-5
0.0025                    0.0285                   1.3693157473420203E-5
0.0025                    0.0295                   1.3288337192646576E-5
0.0025                    0.0305                   1.3326858048200525E-5
0.0025                    0.0315                   7.101735059560342E-6
0.0035                    -0.0315                  4.4448318328305984E-6
0.0035                    -0.0305                  8.09304563590514E-6
0.0035                    -0.0295                  7.975808704003609E-6
0.0035                    -0.0285                  8.41898431270475E-6
0.0035                    -0.0275                  8.35019133202583E-6
0.0035                    -0.0265                  8.172688999293285E-6
0.0035                    -0.0255                  8.017611275260476E-6
0.0035                    -0.0245                  8.127001642075356E-6
0.0035                    -0.0235                  8.893706058942338E-6
0.0035                    -0.0225                  1.1182627310712833E-5
0.0035                    -0.0215                  1.7193224824699374E-5
0.0035                    -0.0205                  3.2745190497457536E-5
0.0035                    -0.0195                  7.673228562649886E-5
0.0035                    -0.0185                  2.0845788141354155E-4
0.0035                    -0.0175                  7.553150724250679E-4
0.0035                    -0.0165                  0.0027199028197287855
0.0035                    -0.0155                  0.008274947013644339
0.0035                    -0.0145                  0.01688787718569835
0.0035                    -0.0135                  0.024354196469885802
0.0035                    -0.0125                  0.028480562705262977
0.0035                    -0.0115                  0.0299433312142569
0.0035                    -0.0105                  0.02996657001024342
0.0035                    -0.0095                  0.0297210140278566
0.0035                    -0.0085                  0.03034371140193928
0.0035                    -0.0075                  0.03258221567107781
0.0035                    -0.0065                  0.03634937255462447
0.0035                    -0.0055                  0.040588195017826435
0.0035                    -0.0045                  0.043497127223249464
0.0035                    -0.0035                  0.04282522406655186
0.0035                    -0.0025                  0.03866643441841441
0.0035                    -0.0015                  0.03841142048313092
0.0035                    -5.0E-4                  0.04513903736160214
0.0035                    5.0E-4                   0.04874336181911286
0.0035                    0.0015                   0.04467208531716448
0.0035                    0.0025                   0.041932120519042826
0.0035                    0.0035                   0.04590865523372644
0.0035                    0.0045                   0.047644828908585915
0.0035                    0.0055                   0.044516465598267954
0.0035                    0.0065                   0.03948544612498171
0.0035                    0.0075                   0.03552826849404088
0.0035                    0.0085                   0.03369992897218934
0.0035                    0.0095                   0.03346011241784655
0.0035                    0.0105                   0.03337571038541068
0.0035                    0.0115                   0.031765936004153186
0.0035                    0.0125                   0.02704770856672415
0.0035                    0.0135                   0.01832272462462362
0.0035                    0.0145                   0.008409677630117062
0.0035                    0.0155                   0.002571290995075465
0.0035                    0.0165                   7.938493842618744E-4
0.0035                    0.0175                   2.3360523657703074E-4
0.0035                    0.0185                   9.471758396419282E-5
0.0035                    0.0195                   4.769245666077087E-5
0.0035                    0.0205                   2.9166396322349398E-5
0.0035                    0.0215                   2.069573151625565E-5
0.0035                    0.0225                   1.6551804899091725E-5
0.0035                    0.0235                   1.4642074253560313E-5
0.0035                    0.0245                   1.3980884330034282E-5
0.0035                    0.0255                   1.3938055643998655E-5
0.0035                    0.0265                   1.4123651217260776E-5
0.0035                    0.0275                   1.4259164540897375E-5
0.0035                    0.0285                   1.4230737868229725E-5
0.0035                    0.0295                   1.344144477431385E-5
0.0035                    0.0305                   1.3878021305111504E-5
0.0035                    0.0315                   7.726695462762371E-6
0.0045                    -0.0315                  4.674768365124487E-6
0.0045                    -0.0305                  8.24614402394122E-6
0.0045                    -0.0295                  7.88339915054176E-6
0.0045                    -0.0285                  8.479925541590493E-6
0.0045                    -0.0275                  8.615072027061435E-6
0.0045                    -0.0265                  8.586925004676863E-6
0.0045                    -0.0255                  8.537741047379484E-6
0.0045                    -0.0245                  8.832608363089676E-6
0.0045                    -0.0235                  1.0125874972748147E-5
0.0045                    -0.0225                  1.3935843736354964E-5
0.0045                    -0.0215                  2.4019305619360072E-5
0.0045                    -0.0205                  5.176797844561293E-5
0.0045                    -0.0195                  1.319132690799368E-4
0.0045                    -0.0185                  4.219900599406717E-4
0.0045                    -0.0175                  0.0014355749308600295
0.0045                    -0.0165                  0.005412901118825762
0.0045                    -0.0155                  0.01406496291204649
0.0045                    -0.0145                  0.023184466863577544
0.0045                    -0.0135                  0.027914705084232216
0.0045                    -0.0125                  0.02829280498474887
0.0045                    -0.0115                  0.025827611755692648
0.0045                    -0.0105                  0.022046090852843547
0.0045                    -0.0095                  0.018751745245074843
0.0045                    -0.0085                  0.017268816468919927
0.0045                    -0.0075                  0.01807506794609534
0.0045                    -0.0065                  0.02110754912820252
0.0045                    -0.0055                  0.02589607351262133
0.0045                    -0.0045                  0.03125203284245294
0.0045                    -0.0035                  0.03493057409495418
0.0045                    -0.0025                  0.034063334964674535
0.0045                    -0.0015                  0.028994897950769868
0.0045                    -5.0E-4                  0.026519340624001835
0.0045                    5.0E-4                   0.028915244966928676
0.0045                    0.0015                   0.03159437631863956
0.0045                    0.0025                   0.03511338857526955
0.0045                    0.0035                   0.036610598660876334
0.0045                    0.0045                   0.033062642936980594
0.0045                    0.0055                   0.027176084993648108
0.0045                    0.0065                   0.022184341541985744
0.0045                    0.0075                   0.019814336302114335
0.0045                    0.0085                   0.02054401663136798
0.0045                    0.0095                   0.023959228193015637
0.0045                    0.0105                   0.028373214874018025
0.0045                    0.0115                   0.03127966967962336
0.0045                    0.0125                   0.030650123013269512
0.0045                    0.0135                   0.024727317097525455
0.0045                    0.0145                   0.013916010407382636
0.0045                    0.0155                   0.004713686048632088
0.0045                    0.0165                   0.0011593620351359303
0.0045                    0.0175                   3.5100578704173467E-4
0.0045                    0.0185                   1.4763825063719723E-4
0.0045                    0.0195                   7.756790397604259E-5
0.0045                    0.0205                   4.7054812277465234E-5
0.0045                    0.0215                   3.092279638309372E-5
0.0045                    0.0225                   2.2201386412179313E-5
0.0045                    0.0235                   1.7909644104377748E-5
0.0045                    0.0245                   1.603386888621526E-5
0.0045                    0.0255                   1.5281340579743107E-5
0.0045                    0.0265                   1.4954718736622774E-5
0.0045                    0.0275                   1.4623378561313517E-5
0.0045                    0.0285                   1.4167470328256547E-5
0.0045                    0.0295                   1.3141719291020224E-5
0.0045                    0.0305                   1.4077939351048242E-5
0.0045                    0.0315                   8.115350137580206E-6
0.0055                    -0.0315                  4.872867824201003E-6
0.0055                    -0.0305                  8.406101542262383E-6
0.0055                    -0.0295                  7.828728233023495E-6
0.0055                    -0.0285                  8.53041576818648E-6
0.0055                    -0.0275                  8.877624059766204E-6
0.0055                    -0.0265                  9.105385751236616E-6
0.0055                    -0.0255                  9.347478494360302E-6
0.0055                    -0.0245                  1.0117400496823142E-5
0.0055                    -0.0235                  1.2458090006101296E-5
0.0055                    -0.0225                  1.8953093414551525E-5
0.0055                    -0.0215                  3.71307689434236E-5
0.0055                    -0.0205                  8.990338701199123E-5
0.0055                    -0.0195                  2.6946851988783713E-4
0.0055                    -0.0185                  8.784198769950065E-4
0.0055                    -0.0175                  0.0028621196126393574
0.0055                    -0.0165                  0.009276737264886639
0.0055                    -0.0155                  0.019822533530177756
0.0055                    -0.0145                  0.027452460730718723
0.0055                    -0.0135                  0.02862087697479195
0.0055                    -0.0125                  0.02484597420065273
0.0055                    -0.0115                  0.01820904844501267
0.0055                    -0.0105                  0.011652034734204536
0.0055                    -0.0095                  0.007468248393732643
0.0055                    -0.0085                  0.005841903574778884
0.0055                    -0.0075                  0.005854940082297437
0.0055                    -0.0065                  0.007000334927946534
0.0055                    -0.0055                  0.009148635277157967
0.0055                    -0.0045                  0.012061394570183692
0.0055                    -0.0035                  0.015005643815462776
0.0055                    -0.0025                  0.016542333189196783
0.0055                    -0.0015                  0.014830713377669951
0.0055                    -5.0E-4                  0.011632320820881968
0.0055                    5.0E-4                   0.012692805438929073
0.0055                    0.0015                   0.01650134619926615
0.0055                    0.0025                   0.018233283681157512
0.0055                    0.0035                   0.015879180792299406
0.0055                    0.0045                   0.011962185821643096
0.0055                    0.0055                   0.009192735207613233
0.0055                    0.0065                   0.00741285878852207
0.0055                    0.0075                   0.006719733146116557
0.0055                    0.0085                   0.007916266133837266
0.0055                    0.0095                   0.01246209944019665
0.0055                    0.0105                   0.02024910259394568
0.0055                    0.0115                   0.0279299060553455
0.0055                    0.0125                   0.03161148254521462
0.0055                    0.0135                   0.029141959192120186
0.0055                    0.0145                   0.019309352280416105
0.0055                    0.0155                   0.007709242386156533
0.0055                    0.0165                   0.002032769042600708
0.0055                    0.0175                   6.742777928477872E-4
0.0055                    0.0185                   2.8242829933231706E-4
0.0055                    0.0195                   1.6486783570423134E-4
0.0055                    0.0205                   9.997433884922806E-5
0.0055                    0.0215                   5.863236814143015E-5
0.0055                    0.0225                   3.649428432103666E-5
0.0055                    0.0235                   2.5668071199212347E-5
0.0055                    0.0245                   2.0286306558002425E-5
0.0055                    0.0255                   1.7587248328187633E-5
0.0055                    0.0265                   1.6071624108498828E-5
0.0055                    0.0275                   1.4965705764962051E-5
0.0055                    0.0285                   1.4071636499439223E-5
0.0055                    0.0295                   1.2932432422425432E-5
0.0055                    0.0305                   1.4352059880053904E-5
0.0055                    0.0315                   8.49347566717345E-6
0.0065                    -0.0315                  5.026267557733416E-6
0.0065                    -0.0305                  8.536261444768417E-6
0.0065                    -0.0295                  7.792078315726533E-6
0.0065                    -0.0285                  8.590674801799261E-6
0.0065                    -0.0275                  9.165044076297822E-6
0.0065                    -0.0265                  9.746632354039159E-6
0.0065                    -0.0255                  1.0505642435420315E-5
0.0065                    -0.0245                  1.2181679781858395E-5
0.0065                    -0.0235                  1.6415020802748465E-5
0.0065                    -0.0225                  2.719966195657258E-5
0.0065                    -0.0215                  5.8820014547205E-5
0.0065                    -0.0205                  1.679528948784062E-4
0.0065                    -0.0195                  5.367386755213744E-4
0.0065                    -0.0185                  0.0015801928903295325
0.0065                    -0.0175                  0.005062893958212706
0.0065                    -0.0165                  0.01377063602062261
0.0065                    -0.0155                  0.0245134544263836
0.0065                    -0.0145                  0.0295885029912238
0.0065                    -0.0135                  0.027108529401126995
0.0065                    -0.0125                  0.019540650108852593
0.0065                    -0.0115                  0.010675176421280469
0.0065                    -0.0105                  0.004625406807605573
0.0065                    -0.0095                  0.0022737490427671477
0.0065                    -0.0085                  0.0019145250132892456
0.0065                    -0.0075                  0.002183255521737877
0.0065                    -0.0065                  0.0026774344276293757
0.0065                    -0.0055                  0.0030398902559216835
0.0065                    -0.0045                  0.0032397515553990106