% Model:              Benchmark260518.mph
% Version:            COMSOL 6.2.0.339
% Date:               May 20 2026, 19:25
% Dimension:          2
% Nodes:              4096
% Expressions:        1
% Description:        速度大小
% Length unit:        m
% x                       y                        spf.U (m/s)
5.0E-4                    -0.0315                  1.63700667089625E-6
5.0E-4                    -0.0305                  3.294444608857009E-6
5.0E-4                    -0.0295                  3.652958943768847E-6
5.0E-4                    -0.0285                  4.078457028262273E-6
5.0E-4                    -0.0275                  4.373128385468767E-6
5.0E-4                    -0.0265                  4.611654659808936E-6
5.0E-4                    -0.0255                  4.827682107442578E-6
5.0E-4                    -0.0245                  5.0435409310051834E-6
5.0E-4                    -0.0235                  5.249160022464344E-6
5.0E-4                    -0.0225                  5.449111129403196E-6
5.0E-4                    -0.0215                  5.6342619408507235E-6
5.0E-4                    -0.0205                  5.797604196571821E-6
5.0E-4                    -0.0195                  5.948997758159585E-6
5.0E-4                    -0.0185                  6.101424477402392E-6
5.0E-4                    -0.0175                  6.275893248514408E-6
5.0E-4                    -0.0165                  6.497366380976794E-6
5.0E-4                    -0.0155                  6.795482255670048E-6
5.0E-4                    -0.0145                  7.229073428000986E-6
5.0E-4                    -0.0135                  7.868775953943038E-6
5.0E-4                    -0.0125                  8.943273286547317E-6
5.0E-4                    -0.0115                  1.077481514063361E-5
5.0E-4                    -0.0105                  1.4866428984891964E-5
5.0E-4                    -0.0095                  2.7285329353370945E-5
5.0E-4                    -0.0085                  6.700483631116909E-5
5.0E-4                    -0.0075                  2.0459178400971642E-4
5.0E-4                    -0.0065                  4.538823447297419E-4
5.0E-4                    -0.0055                  7.202681597992895E-4
5.0E-4                    -0.0045                  0.0011185694398055102
5.0E-4                    -0.0035                  0.001993798243722736
5.0E-4                    -0.0025                  0.0033173845280458428
5.0E-4                    -0.0015                  0.004684100797363093
5.0E-4                    -5.0E-4                  0.005633612314334104
5.0E-4                    5.0E-4                   0.005833829471844901
5.0E-4                    0.0015                   0.005211905280140632
5.0E-4                    0.0025                   0.003940130465133691
5.0E-4                    0.0035                   0.00230662370462907
5.0E-4                    0.0045                   0.0014025918492804486
5.0E-4                    0.0055                   0.0025946973791336164
5.0E-4                    0.0065                   0.0030734997420899606
5.0E-4                    0.0075                   0.002271391567874801
5.0E-4                    0.0085                   0.0011825868901969758
5.0E-4                    0.0095                   8.570199992561626E-4
5.0E-4                    0.0105                   0.0010290524649037383
5.0E-4                    0.0115                   0.001052242613585437
5.0E-4                    0.0125                   0.0018565461778491422
5.0E-4                    0.0135                   0.003659243059755672
5.0E-4                    0.0145                   0.048146990534553784
5.0E-4                    0.0155                   0.08956904762541493
5.0E-4                    0.0165                   0.07654230857032128
5.0E-4                    0.0175                   0.031221302764690866
5.0E-4                    0.0185                   7.627950961420323E-4
5.0E-4                    0.0195                   6.483824886438427E-4
5.0E-4                    0.0205                   1.5331631602457835E-4
5.0E-4                    0.0215                   5.885334382767814E-5
5.0E-4                    0.0225                   2.796834351133335E-5
5.0E-4                    0.0235                   9.908657995039706E-6
5.0E-4                    0.0245                   3.89775694396048E-6
5.0E-4                    0.0255                   1.930165490959015E-6
5.0E-4                    0.0265                   1.257600964145947E-6
5.0E-4                    0.0275                   1.017599640560229E-6
5.0E-4                    0.0285                   9.282943907956235E-7
5.0E-4                    0.0295                   8.906713165801432E-7
5.0E-4                    0.0305                   8.716989123055404E-7
5.0E-4                    0.0315                   4.507329651904415E-7
0.0015                    -0.0315                  3.2023618089369624E-6
0.0015                    -0.0305                  6.409321837360399E-6
0.0015                    -0.0295                  6.930440647223837E-6
0.0015                    -0.0285                  7.423393601663003E-6
0.0015                    -0.0275                  7.647882242617074E-6
0.0015                    -0.0265                  7.828942074001464E-6
0.0015                    -0.0255                  8.006418260346458E-6
0.0015                    -0.0245                  8.21433988029746E-6
0.0015                    -0.0235                  8.441210038515197E-6
0.0015                    -0.0225                  8.684056629451703E-6
0.0015                    -0.0215                  8.923086119325893E-6
0.0015                    -0.0205                  9.139702296047351E-6
0.0015                    -0.0195                  9.337817624121315E-6
0.0015                    -0.0185                  9.537708524157287E-6
0.0015                    -0.0175                  9.780208876886483E-6
0.0015                    -0.0165                  1.01185931298968E-5
0.0015                    -0.0155                  1.0619126417266403E-5
0.0015                    -0.0145                  1.1393563497883936E-5
0.0015                    -0.0135                  1.2629619194356606E-5
0.0015                    -0.0125                  1.4801768270118783E-5
0.0015                    -0.0115                  1.8910589771860093E-5
0.0015                    -0.0105                  2.841957871265575E-5
0.0015                    -0.0095                  5.45767366736618E-5
0.0015                    -0.0085                  1.3386615108400092E-4
0.0015                    -0.0075                  4.1743557527654186E-4
0.0015                    -0.0065                  0.001001643159052053
0.0015                    -0.0055                  0.0020992792145198822
0.0015                    -0.0045                  0.004352470870043534
0.0015                    -0.0035                  0.007834771018687807
0.0015                    -0.0025                  0.011667431615136559
0.0015                    -0.0015                  0.014937488884530014
0.0015                    -5.0E-4                  0.01704491776962136
0.0015                    5.0E-4                   0.01771781972422674
0.0015                    0.0015                   0.016955330255828894
0.0015                    0.0025                   0.014914758494166225
0.0015                    0.0035                   0.011687470018219822
0.0015                    0.0045                   0.007315428345905487
0.0015                    0.0055                   0.00317627809332553
0.0015                    0.0065                   0.004190073774763068
0.0015                    0.0075                   0.005128417052173721
0.0015                    0.0085                   0.003887238634741028
0.0015                    0.0095                   0.002940311059005145
0.0015                    0.0105                   0.0027584096147936616
0.0015                    0.0115                   0.0027045363724565253
0.0015                    0.0125                   0.0040284250787195495
0.0015                    0.0135                   0.010249054043717497
0.0015                    0.0145                   0.056620798079234966
0.0015                    0.0155                   0.08895114795948983
0.0015                    0.0165                   0.07271649305674124
0.0015                    0.0175                   0.029328105732679903
0.0015                    0.0185                   0.0012348210470072998
0.0015                    0.0195                   0.0015000048192638045
0.0015                    0.0205                   4.144771812674155E-4
0.0015                    0.0215                   1.3904062589688987E-4
0.0015                    0.0225                   5.4748116519173655E-5
0.0015                    0.0235                   1.9250277225711002E-5
0.0015                    0.0245                   7.868230887830898E-6
0.0015                    0.0255                   3.998278015713799E-6
0.0015                    0.0265                   2.6149586864502008E-6
0.0015                    0.0275                   2.0964140104385354E-6
0.0015                    0.0285                   1.9072590379155974E-6
0.0015                    0.0295                   1.8402666692937388E-6
0.0015                    0.0305                   1.7726876797944443E-6
0.0015                    0.0315                   9.082215104589637E-7
0.0025                    -0.0315                  3.2839646436282515E-6
0.0025                    -0.0305                  6.517986004091614E-6
0.0025                    -0.0295                  6.9892513079863316E-6
0.0025                    -0.0285                  7.31744439218854E-6
0.0025                    -0.0275                  7.2147588979608626E-6
0.0025                    -0.0265                  7.064169733462614E-6
0.0025                    -0.0255                  6.926013813619085E-6
0.0025                    -0.0245                  6.852705128552249E-6
0.0025                    -0.0235                  6.854437845907161E-6
0.0025                    -0.0225                  6.9243878538017396E-6
0.0025                    -0.0215                  7.041424791139793E-6
0.0025                    -0.0205                  7.176298333636234E-6
0.0025                    -0.0195                  7.308150438552816E-6
0.0025                    -0.0185                  7.448777471974937E-6
0.0025                    -0.0175                  7.652318918483094E-6
0.0025                    -0.0165                  8.004568771026692E-6
0.0025                    -0.0155                  8.611456959222844E-6
0.0025                    -0.0145                  9.638221540185116E-6
0.0025                    -0.0135                  1.1424781006007021E-5
0.0025                    -0.0125                  1.471181227169784E-5
0.0025                    -0.0115                  2.148167483637343E-5
0.0025                    -0.0105                  3.698132931151859E-5
0.0025                    -0.0095                  7.774024456248079E-5
0.0025                    -0.0085                  1.9177925349545374E-4
0.0025                    -0.0075                  6.271589240055967E-4
0.0025                    -0.0065                  0.0018921701630565373
0.0025                    -0.0055                  0.0049721228584116
0.0025                    -0.0045                  0.01015881342029077
0.0025                    -0.0035                  0.01592668484662749
0.0025                    -0.0025                  0.020640108330736245
0.0025                    -0.0015                  0.023842825517252336
0.0025                    -5.0E-4                  0.025775739670746776
0.0025                    5.0E-4                   0.026773581914745014
0.0025                    0.0015                   0.027040547225151857
0.0025                    0.0025                   0.026511969252458537
0.0025                    0.0035                   0.024766823653258305
0.0025                    0.0045                   0.02108899565146796
0.0025                    0.0055                   0.01477934724812826
0.0025                    0.0065                   0.006680871148560034
0.0025                    0.0075                   0.0032644315117874257
0.0025                    0.0085                   0.0064650564241672225
0.0025                    0.0095                   0.007104461567669624
0.0025                    0.0105                   0.006232874531307344
0.0025                    0.0115                   0.004989928714959286
0.0025                    0.0125                   0.0038801212372022503
0.0025                    0.0135                   0.017822977805384478
0.0025                    0.0145                   0.06370853668129599
0.0025                    0.0155                   0.08758469778172355
0.0025                    0.0165                   0.06775803367201018
0.0025                    0.0175                   0.025904284360956698
0.0025                    0.0185                   7.168668362450023E-4
0.0025                    0.0195                   0.0019797882999013066
0.0025                    0.0205                   5.76298662300693E-4
0.0025                    0.0215                   1.6273099704798138E-4
0.0025                    0.0225                   5.3890308086947834E-5
0.0025                    0.0235                   2.0126527741924702E-5
0.0025                    0.0245                   8.92498040794E-6
0.0025                    0.0255                   4.8566758308880186E-6
0.0025                    0.0265                   3.286675748051654E-6
0.0025                    0.0275                   2.653201149834588E-6
0.0025                    0.0285                   2.393223295207858E-6
0.0025                    0.0295                   2.2353997431663135E-6
0.0025                    0.0305                   2.007155035596329E-6
0.0025                    0.0315                   9.98258829049265E-7
0.0035                    -0.0315                  3.418412209875647E-6
0.0035                    -0.0305                  6.668732184819165E-6
0.0035                    -0.0295                  7.2149862355667765E-6
0.0035                    -0.0285                  7.80192954720616E-6
0.0035                    -0.0275                  7.806835301504363E-6
0.0035                    -0.0265                  7.639492727889952E-6
0.0035                    -0.0255                  7.419899577152681E-6
0.0035                    -0.0245                  7.254451118490205E-6
0.0035                    -0.0235                  7.189702673558665E-6
0.0035                    -0.0225                  7.246878423481658E-6
0.0035                    -0.0215                  7.420967452783198E-6
0.0035                    -0.0205                  7.685321847507799E-6
0.0035                    -0.0195                  8.005800505088019E-6
0.0035                    -0.0185                  8.379411885485265E-6
0.0035                    -0.0175                  8.887314622678784E-6
0.0035                    -0.0165                  9.700803273073861E-6
0.0035                    -0.0155                  1.102728948649233E-5
0.0035                    -0.0145                  1.3114143915784372E-5
0.0035                    -0.0135                  1.6583328317352767E-5
0.0035                    -0.0125                  2.299678718245265E-5
0.0035                    -0.0115                  3.587349285192672E-5
0.0035                    -0.0105                  6.615947406347177E-5
0.0035                    -0.0095                  1.4622937149722588E-4
0.0035                    -0.0085                  4.194209673851753E-4
0.0035                    -0.0075                  0.0013310668187859636
0.0035                    -0.0065                  0.004316052869462412
0.0035                    -0.0055                  0.01033794011641604
0.0035                    -0.0045                  0.01742988867094347
0.0035                    -0.0035                  0.022897814525103373
0.0035                    -0.0025                  0.026092849486497396
0.0035                    -0.0015                  0.02774956995938806
0.0035                    -5.0E-4                  0.028702187385607283
0.0035                    5.0E-4                   0.029526077403996317
0.0035                    0.0015                   0.030539737419039016
0.0035                    0.0025                   0.03169916618899532
0.0035                    0.0035                   0.03247081988384915
0.0035                    0.0045                   0.031846133047304534
0.0035                    0.0055                   0.028539772917324364
0.0035                    0.0065                   0.021596273381512838
0.0035                    0.0075                   0.01164480566978761
0.0035                    0.0085                   0.004096098296578965
0.0035                    0.0095                   0.007195876228223827
0.0035                    0.0105                   0.008767154130178546
0.0035                    0.0115                   0.007393401630502187
0.0035                    0.0125                   0.004483259810805616
0.0035                    0.0135                   0.028398690442711424
0.0035                    0.0145                   0.07009314693693101
0.0035                    0.0155                   0.08515500624907836
0.0035                    0.0165                   0.06155412722653175
0.0035                    0.0175                   0.02147227428102292
0.0035                    0.0185                   6.604136600055503E-4
0.0035                    0.0195                   0.002263945028541326
0.0035                    0.0205                   6.441350349297368E-4
0.0035                    0.0215                   1.6925881378257752E-4
0.0035                    0.0225                   5.151897678903202E-5
0.0035                    0.0235                   2.1094583848002695E-5
0.0035                    0.0245                   1.0219532048567433E-5
0.0035                    0.0255                   6.053426884458962E-6
0.0035                    0.0265                   4.3576118469919E-6
0.0035                    0.0275                   3.6393351988381993E-6
0.0035                    0.0285                   3.2670600735020063E-6
0.0035                    0.0295                   2.9038624510590057E-6
0.0035                    0.0305                   2.4122027259354335E-6
0.0035                    0.0315                   1.1546652842944814E-6
0.0045                    -0.0315                  3.5410205353618005E-6
0.0045                    -0.0305                  6.724523946759574E-6
0.0045                    -0.0295                  7.147211666854672E-6
0.0045                    -0.0285                  7.886758908359075E-6
0.0045                    -0.0275                  8.057855158911217E-6
0.0045                    -0.0265                  7.971802901522942E-6
0.0045                    -0.0255                  7.746899193346994E-6
0.0045                    -0.0245                  7.540726259644026E-6
0.0045                    -0.0235                  7.455650942501638E-6
0.0045                    -0.0225                  7.5675682195229965E-6
0.0045                    -0.0215                  7.924576377056286E-6
0.0045                    -0.0205                  8.543453251138005E-6
0.0045                    -0.0195                  9.411149894724205E-6
0.0045                    -0.0185                  1.0534109342843027E-5
0.0045                    -0.0175                  1.2057362833953581E-5
0.0045                    -0.0165                  1.4387791956086493E-5
0.0045                    -0.0155                  1.7988557843489132E-5
0.0045                    -0.0145                  2.314519010924587E-5
0.0045                    -0.0135                  3.0621758359438415E-5
0.0045                    -0.0125                  4.411975340145189E-5
0.0045                    -0.0115                  7.265053179737147E-5
0.0045                    -0.0105                  1.34559488175627E-4
0.0045                    -0.0095                  3.36023878155705E-4
0.0045                    -0.0085                  9.778159246560494E-4
0.0045                    -0.0075                  0.003053449466159261
0.0045                    -0.0065                  0.008676482392622474
0.0045                    -0.0055                  0.017016349631802243
0.0045                    -0.0045                  0.023689611502026652
0.0045                    -0.0035                  0.02677735340524674
0.0045                    -0.0025                  0.02738027280402325
0.0045                    -0.0015                  0.02678574225563758
0.0045                    -5.0E-4                  0.02590645441571317
0.0045                    5.0E-4                   0.02562903425221177
0.0045                    0.0015                   0.026648501498225532
0.0045                    0.0025                   0.02909509516623982
0.0045                    0.0035                   0.032401764233662124
0.0045                    0.0045                   0.03541634363003643
0.0045                    0.0055                   0.03666160653848241
0.0045                    0.0065                   0.03461221798978791
0.0045                    0.0075                   0.028162174003604008
0.0045                    0.0085                   0.017603579270427317
0.0045                    0.0095                   0.006105767156484096
0.0045                    0.0105                   0.002784045669546764
0.0045                    0.0115                   0.0050605154263243
0.0045                    0.0125                   0.010575635090667616
0.0045                    0.0135                   0.04096572702596643
0.0045                    0.0145                   0.07437299057474345
0.0045                    0.0155                   0.08113474330575317
0.0045                    0.0165                   0.054156135858003544
0.0045                    0.0175                   0.016440877096972315
0.0045                    0.0185                   0.0010820798196478595
0.0045                    0.0195                   0.002295467130906413
0.0045                    0.0205                   6.914003625537015E-4
0.0045                    0.0215                   1.9567417955328891E-4
0.0045                    0.0225                   5.9567608753389576E-5
0.0045                    0.0235                   2.4645620088623514E-5
0.0045                    0.0245                   1.2440773942635932E-5
0.0045                    0.0255                   7.699459878607797E-6
0.0045                    0.0265                   5.702881294273766E-6
0.0045                    0.0275                   4.802614108159232E-6
0.0045                    0.0285                   4.250244378215198E-6
0.0045                    0.0295                   3.6543692099417678E-6
0.0045                    0.0305                   2.893539862517969E-6
0.0045                    0.0315                   1.3410032423398286E-6
0.0055                    -0.0315                  3.660742884839271E-6
0.0055                    -0.0305                  6.813602907046203E-6
0.0055                    -0.0295                  7.104935892857123E-6
0.0055                    -0.0285                  7.922010034766908E-6
0.0055                    -0.0275                  8.234702226207246E-6
0.0055                    -0.0265                  8.275617467157479E-6
0.0055                    -0.0255                  8.115842704586947E-6
0.0055                    -0.0245                  7.941619796819513E-6
0.0055                    -0.0235                  7.927375410754121E-6
0.0055                    -0.0225                  8.243187441455397E-6
0.0055                    -0.0215                  9.062853469767763E-6
0.0055                    -0.0205                  1.0563221757843939E-5
0.0055                    -0.0195                  1.2875312745353438E-5
0.0055                    -0.0185                  1.6080912873441845E-5
0.0055                    -0.0175                  2.0498665944828656E-5
0.0055                    -0.0165                  2.7227524115651455E-5
0.0055                    -0.0155                  3.8759577116512876E-5
0.0055                    -0.0145                  5.577190321885595E-5
0.0055                    -0.0135                  7.449068696809435E-5
0.0055                    -0.0125                  1.0114086688125495E-4
0.0055                    -0.0115                  1.7793276628451254E-4
0.0055                    -0.0105                  3.471268595684006E-4
0.0055                    -0.0095                  8.002625978475593E-4
0.0055                    -0.0085                  0.0021295472888374738
0.0055                    -0.0075                  0.006277219239036567
0.0055                    -0.0065                  0.01451518148781246
0.0055                    -0.0055                  0.023172914529489275
0.0055                    -0.0045                  0.027585658618383534
0.0055                    -0.0035                  0.02766477808085078
0.0055                    -0.0025                  0.025223680091707147
0.0055                    -0.0015                  0.02153975113188848
0.0055                    -5.0E-4                  0.01804318429912164
0.0055                    5.0E-4                   0.0160524183671473
0.0055                    0.0015                   0.016314361186597404
0.0055                    0.0025                   0.019038594645593203
0.0055                    0.0035                   0.02398068610787051
0.0055                    0.0045                   0.0302724070069254
0.0055                    0.0055                   0.03627354485722533
0.0055                    0.0065                   0.04003661536958977
0.0055                    0.0075                   0.03973563305195383
0.0055                    0.0085                   0.03410109158588383
0.0055                    0.0095                   0.02378108017492301
0.0055                    0.0105                   0.012884756847942547
0.0055                    0.0115                   0.009597782047621137
0.0055                    0.0125                   0.023173672726838856
0.0055                    0.0135                   0.05192796107173666
0.0055                    0.0145                   0.07488611808449445
0.0055                    0.0155                   0.0750710373600466
0.0055                    0.0165                   0.0460822714141404
0.0055                    0.0175                   0.01161010298600807
0.0055                    0.0185                   0.0015084049479964848
0.0055                    0.0195                   0.0022344167275550044
0.0055                    0.0205                   8.31982487914113E-4
0.0055                    0.0215                   2.669782666165831E-4
0.0055                    0.0225                   8.35090265396285E-5
0.0055                    0.0235                   3.5110380344845694E-5
0.0055                    0.0245                   1.7614806460468173E-5
0.0055                    0.0255                   1.0804396147778186E-5
0.0055                    0.0265                   7.793050737732171E-6
0.0055                    0.0275                   6.3456511224210326E-6
0.0055                    0.0285                   5.444978383080607E-6
0.0055                    0.0295                   4.552834798091958E-6
0.0055                    0.0305                   3.488645409430184E-6
0.0055                    0.0315                   1.570861067328072E-6
0.0065                    -0.0315                  3.7346711770513966E-6
0.0065                    -0.0305                  6.8673149401779945E-6
0.0065                    -0.0295                  7.070664684602573E-6
0.0065                    -0.0285                  7.93602685706729E-6
0.0065                    -0.0275                  8.359456274658995E-6
0.0065                    -0.0265                  8.539921013052393E-6
0.0065                    -0.0255                  8.511162196416775E-6
0.0065                    -0.0245                  8.480735488663169E-6
0.0065                    -0.0235                  8.729513249068236E-6
0.0065                    -0.0225                  9.608256684346364E-6
0.0065                    -0.0215                  1.1544317584333467E-5
0.0065                    -0.0205                  1.5199322380563203E-5
0.0065                    -0.0195                  2.1388181833094594E-5
0.0065                    -0.0185                  3.06438962171881E-5
0.0065                    -0.0175                  4.3736969819385744E-5
0.0065                    -0.0165                  6.448719083664707E-5
0.0065                    -0.0155                  1.0245484364944252E-4
0.0065                    -0.0145                  1.7781704292463656E-4
0.0065                    -0.0135                  2.5939773409862046E-4
0.0065                    -0.0125                  3.287355578702442E-4
0.0065                    -0.0115                  4.886011259273817E-4
0.0065                    -0.0105                  8.420873242598064E-4
0.0065                    -0.0095                  0.001698514781265151
0.0065                    -0.0085                  0.004417100476757511
0.0065                    -0.0075                  0.011111900317450718
0.0065                    -0.0065                  0.020518242541080076
0.0065                    -0.0055                  0.02741451043340537
0.0065                    -0.0045                  0.028842831046546162