% Model:              Benchmark260518.mph
% Version:            COMSOL 6.2.0.339
% Date:               May 21 2026, 02:32
% Dimension:          2
% Nodes:              4096
% Expressions:        1
% Description:        速度大小
% Length unit:        m
% x                       y                        spf.U (m/s)
5.0E-4                    -0.0315                  1.6899149278072065E-6
5.0E-4                    -0.0305                  3.337127460552967E-6
5.0E-4                    -0.0295                  3.6867675643800595E-6
5.0E-4                    -0.0285                  4.097778545057645E-6
5.0E-4                    -0.0275                  4.296870952564676E-6
5.0E-4                    -0.0265                  4.479641997957432E-6
5.0E-4                    -0.0255                  4.6182952604E-6
5.0E-4                    -0.0245                  4.743216251264443E-6
5.0E-4                    -0.0235                  4.867654131898514E-6
5.0E-4                    -0.0225                  4.987717639267479E-6
5.0E-4                    -0.0215                  5.098944887651664E-6
5.0E-4                    -0.0205                  5.211624315984641E-6
5.0E-4                    -0.0195                  5.325388401496589E-6
5.0E-4                    -0.0185                  5.439449035635937E-6
5.0E-4                    -0.0175                  5.5595313787551E-6
5.0E-4                    -0.0165                  5.6747010257899555E-6
5.0E-4                    -0.0155                  5.775597626226659E-6
5.0E-4                    -0.0145                  5.880599111204309E-6
5.0E-4                    -0.0135                  6.00282300167816E-6
5.0E-4                    -0.0125                  6.155228619549631E-6
5.0E-4                    -0.0115                  6.394001553445286E-6
5.0E-4                    -0.0105                  6.789023755847073E-6
5.0E-4                    -0.0095                  7.432502878035849E-6
5.0E-4                    -0.0085                  8.638152175183336E-6
5.0E-4                    -0.0075                  1.1187535044115634E-5
5.0E-4                    -0.0065                  1.9807219275160057E-5
5.0E-4                    -0.0055                  5.029517349226476E-5
5.0E-4                    -0.0045                  1.5648277671587982E-4
5.0E-4                    -0.0035                  3.460738103087013E-4
5.0E-4                    -0.0025                  5.394732538770836E-4
5.0E-4                    -0.0015                  9.110453172203851E-4
5.0E-4                    -5.0E-4                  0.00285608777338322
5.0E-4                    5.0E-4                   0.009034334046061073
5.0E-4                    0.0015                   0.013301634579722893
5.0E-4                    0.0025                   0.012322805845608149
5.0E-4                    0.0035                   0.010609483565410945
5.0E-4                    0.0045                   0.008537488411621623
5.0E-4                    0.0055                   0.006753335378381949
5.0E-4                    0.0065                   0.005848275580346782
5.0E-4                    0.0075                   0.006143539710438945
5.0E-4                    0.0085                   0.007422614229329684
5.0E-4                    0.0095                   0.009195785579918054
5.0E-4                    0.0105                   0.011013700325791666
5.0E-4                    0.0115                   0.012285256996437809
5.0E-4                    0.0125                   0.012063583738420196
5.0E-4                    0.0135                   0.00894885655320422
5.0E-4                    0.0145                   0.004261863757416292
5.0E-4                    0.0155                   0.0012037101029607786
5.0E-4                    0.0165                   1.7979661612091194E-4
5.0E-4                    0.0175                   5.876872791341618E-5
5.0E-4                    0.0185                   2.3463034159249233E-5
5.0E-4                    0.0195                   1.095691703514687E-5
5.0E-4                    0.0205                   6.263468833116449E-6
5.0E-4                    0.0215                   4.486418279096693E-6
5.0E-4                    0.0225                   3.6652975278973343E-6
5.0E-4                    0.0235                   3.1390245646976795E-6
5.0E-4                    0.0245                   2.844823130985649E-6
5.0E-4                    0.0255                   2.682523239574751E-6
5.0E-4                    0.0265                   2.714858496947434E-6
5.0E-4                    0.0275                   2.8057555439594847E-6
5.0E-4                    0.0285                   2.8111279078357003E-6
5.0E-4                    0.0295                   2.6262870220172192E-6
5.0E-4                    0.0305                   2.4220458727550903E-6
5.0E-4                    0.0315                   1.2219560989767299E-6
0.0015                    -0.0315                  3.2826693466930774E-6
0.0015                    -0.0305                  6.394541224493533E-6
0.0015                    -0.0295                  6.741567645554999E-6
0.0015                    -0.0285                  7.164693924976966E-6
0.0015                    -0.0275                  7.287057483459895E-6
0.0015                    -0.0265                  7.4118220387744046E-6
0.0015                    -0.0255                  7.509913419647681E-6
0.0015                    -0.0245                  7.61263955430538E-6
0.0015                    -0.0235                  7.730840698971575E-6
0.0015                    -0.0225                  7.859369581002562E-6
0.0015                    -0.0215                  7.992930454496808E-6
0.0015                    -0.0205                  8.140676072769811E-6
0.0015                    -0.0195                  8.30181143920708E-6
0.0015                    -0.0185                  8.473724973307649E-6
0.0015                    -0.0175                  8.657305258275717E-6
0.0015                    -0.0165                  8.835988653162627E-6
0.0015                    -0.0155                  8.995650506576632E-6
0.0015                    -0.0145                  9.152081297534373E-6
0.0015                    -0.0135                  9.324441363701925E-6
0.0015                    -0.0125                  9.546256671244037E-6
0.0015                    -0.0115                  9.911125088148753E-6
0.0015                    -0.0105                  1.055523966882435E-5
0.0015                    -0.0095                  1.1705848186686514E-5
0.0015                    -0.0085                  1.401128404602346E-5
0.0015                    -0.0075                  1.9431607581437165E-5
0.0015                    -0.0065                  3.629187992477698E-5
0.0015                    -0.0055                  9.2837617935141E-5
0.0015                    -0.0045                  2.8426273948375095E-4
0.0015                    -0.0035                  6.491423630029391E-4
0.0015                    -0.0025                  0.0011905518644507772
0.0015                    -0.0015                  0.002867086217731496
0.0015                    -5.0E-4                  0.007449437290269114
0.0015                    5.0E-4                   0.012664051812512275
0.0015                    0.0015                   0.014032660983820939
0.0015                    0.0025                   0.012305120329945856
0.0015                    0.0035                   0.00986466978023072
0.0015                    0.0045                   0.007238503051566702
0.0015                    0.0055                   0.005062094888354331
0.0015                    0.0065                   0.004071715187237946
0.0015                    0.0075                   0.00479374201107938
0.0015                    0.0085                   0.006766511618066374
0.0015                    0.0095                   0.009354228027599902
0.0015                    0.0105                   0.012042794210269941
0.0015                    0.0115                   0.014077857800435122
0.0015                    0.0125                   0.01408876676108711
0.0015                    0.0135                   0.0102639137571229
0.0015                    0.0145                   0.004685367309308845
0.0015                    0.0155                   0.0015098772561616747
0.0015                    0.0165                   5.226163740473729E-4
0.0015                    0.0175                   1.6647651344155174E-4
0.0015                    0.0185                   6.242598448548891E-5
0.0015                    0.0195                   2.6960790435956803E-5
0.0015                    0.0205                   1.3917484020624993E-5
0.0015                    0.0215                   8.828330833087253E-6
0.0015                    0.0225                   6.642206922764832E-6
0.0015                    0.0235                   5.532397589054122E-6
0.0015                    0.0245                   4.984194202046335E-6
0.0015                    0.0255                   4.73357146343337E-6
0.0015                    0.0265                   4.761718320073578E-6
0.0015                    0.0275                   4.898937708539852E-6
0.0015                    0.0285                   4.985014548925962E-6
0.0015                    0.0295                   4.815172256588937E-6
0.0015                    0.0305                   4.641412368354624E-6
0.0015                    0.0315                   2.3863324500201464E-6
0.0025                    -0.0315                  3.498763244583731E-6
0.0025                    -0.0305                  6.532228073587433E-6
0.0025                    -0.0295                  6.457819610830602E-6
0.0025                    -0.0285                  6.636677797481952E-6
0.0025                    -0.0275                  6.523943452616342E-6
0.0025                    -0.0265                  6.404883766664484E-6
0.0025                    -0.0255                  6.294170717182494E-6
0.0025                    -0.0245                  6.216540879980793E-6
0.0025                    -0.0235                  6.173617558514664E-6
0.0025                    -0.0225                  6.166719969904338E-6
0.0025                    -0.0215                  6.195389021180672E-6
0.0025                    -0.0205                  6.259001313308618E-6
0.0025                    -0.0195                  6.356456297971878E-6
0.0025                    -0.0185                  6.483244960442164E-6
0.0025                    -0.0175                  6.6295063819173E-6
0.0025                    -0.0165                  6.781586421438599E-6
0.0025                    -0.0155                  6.9253480507950506E-6
0.0025                    -0.0145                  7.052331882379223E-6
0.0025                    -0.0135                  7.171982731546657E-6
0.0025                    -0.0125                  7.326810033542836E-6
0.0025                    -0.0115                  7.609228739063767E-6
0.0025                    -0.0105                  8.19406198891315E-6
0.0025                    -0.0095                  9.435575592236934E-6
0.0025                    -0.0085                  1.2219781024705274E-5
0.0025                    -0.0075                  1.9204811263835316E-5
0.0025                    -0.0065                  3.850658275620818E-5
0.0025                    -0.0055                  9.542028805450523E-5
0.0025                    -0.0045                  2.6946163269430816E-4
0.0025                    -0.0035                  7.252227574434449E-4
0.0025                    -0.0025                  0.001909060254677526
0.0025                    -0.0015                  0.0053380683851940065
0.0025                    -5.0E-4                  0.010678841707944284
0.0025                    5.0E-4                   0.014304888307761611
0.0025                    0.0015                   0.014134325683267342
0.0025                    0.0025                   0.01158753492164637
0.0025                    0.0035                   0.008438210306077953
0.0025                    0.0045                   0.005447659714220671
0.0025                    0.0055                   0.0031889078330963987
0.0025                    0.0065                   0.002261195418628368
0.0025                    0.0075                   0.003178114077537346
0.0025                    0.0085                   0.005403871241824656
0.0025                    0.0095                   0.008665515979024476
0.0025                    0.0105                   0.01249821521335103
0.0025                    0.0115                   0.01574523975464913
0.0025                    0.0125                   0.016584675955136328
0.0025                    0.0135                   0.012962200776685525
0.0025                    0.0145                   0.006759010517832105
0.0025                    0.0155                   0.0025707452902752033
0.0025                    0.0165                   9.74804148988963E-4
0.0025                    0.0175                   3.563582280408037E-4
0.0025                    0.0185                   1.2518868133123626E-4
0.0025                    0.0195                   4.963753659042674E-5
0.0025                    0.0205                   2.2297951564776106E-5
0.0025                    0.0215                   1.1762156118368389E-5
0.0025                    0.0225                   7.4580810850520964E-6
0.0025                    0.0235                   5.667371842705311E-6
0.0025                    0.0245                   4.921186141753638E-6
0.0025                    0.0255                   4.6470300196475375E-6
0.0025                    0.0265                   4.598166409919647E-6
0.0025                    0.0275                   4.650000354913111E-6
0.0025                    0.0285                   4.744658837649079E-6
0.0025                    0.0295                   4.641257408049665E-6
0.0025                    0.0305                   4.759452355881161E-6
0.0025                    0.0315                   2.569985544476561E-6
0.0035                    -0.0315                  3.823984299220922E-6
0.0035                    -0.0305                  6.832886520076581E-6
0.0035                    -0.0295                  6.552082772938882E-6
0.0035                    -0.0285                  6.911464222769025E-6
0.0035                    -0.0275                  6.90316081546237E-6
0.0035                    -0.0265                  6.820011550773274E-6
0.0035                    -0.0255                  6.690483917230554E-6
0.0035                    -0.0245                  6.572750748207994E-6
0.0035                    -0.0235                  6.48260421172266E-6
0.0035                    -0.0225                  6.430263615864112E-6
0.0035                    -0.0215                  6.420519542452006E-6
0.0035                    -0.0205                  6.456776504682469E-6
0.0035                    -0.0195                  6.540266875643371E-6
0.0035                    -0.0185                  6.668490815123384E-6
0.0035                    -0.0175                  6.833223021137113E-6
0.0035                    -0.0165                  7.019277803282642E-6
0.0035                    -0.0155                  7.206082510549504E-6
0.0035                    -0.0145                  7.374462080800163E-6
0.0035                    -0.0135                  7.520932909012053E-6
0.0035                    -0.0125                  7.683132829195958E-6
0.0035                    -0.0115                  7.980574922823643E-6
0.0035                    -0.0105                  8.68120428684955E-6
0.0035                    -0.0095                  1.0358817897664167E-5
0.0035                    -0.0085                  1.4350003711160433E-5
0.0035                    -0.0075                  2.4171992289441587E-5
0.0035                    -0.0065                  4.9260881450400116E-5
0.0035                    -0.0055                  1.1749332550792185E-4
0.0035                    -0.0045                  3.0565608899388503E-4
0.0035                    -0.0035                  9.727338603112883E-4
0.0035                    -0.0025                  0.003400109920813252
0.0035                    -0.0015                  0.008460911007141766
0.0035                    -5.0E-4                  0.013541345090754893
0.0035                    5.0E-4                   0.015158287916960918
0.0035                    0.0015                   0.013143169953709418
0.0035                    0.0025                   0.009496254530601253
0.0035                    0.0035                   0.005931574524894053
0.0035                    0.0045                   0.003234324635195841
0.0035                    0.0055                   0.0015972455621258387
0.0035                    0.0065                   0.001039856534644109
0.0035                    0.0075                   0.0015856466280556815
0.0035                    0.0085                   0.0031461145573592904
0.0035                    0.0095                   0.006226778428189195
0.0035                    0.0105                   0.010936392848625671
0.0035                    0.0115                   0.015920970476050525
0.0035                    0.0125                   0.01862745727010281
0.0035                    0.0135                   0.01656186166341745
0.0035                    0.0145                   0.01041352482034237
0.0035                    0.0155                   0.004640547595683053
0.0035                    0.0165                   0.001764542828410082
0.0035                    0.0175                   6.922413219806876E-4
0.0035                    0.0185                   2.540915603083562E-4
0.0035                    0.0195                   9.409677693650398E-5
0.0035                    0.0205                   3.8869571719983804E-5
0.0035                    0.0215                   1.8093158167992048E-5
0.0035                    0.0225                   1.0027844333484093E-5
0.0035                    0.0235                   6.8630334184073755E-6
0.0035                    0.0245                   5.648669469209263E-6
0.0035                    0.0255                   5.1998224058043734E-6
0.0035                    0.0265                   5.058172603039155E-6
0.0035                    0.0275                   5.010677197698369E-6
0.0035                    0.0285                   4.975217988412413E-6
0.0035                    0.0295                   4.709274785697759E-6
0.0035                    0.0305                   4.977359765127379E-6
0.0035                    0.0315                   2.8082381545931037E-6
0.0045                    -0.0315                  4.018677856015203E-6
0.0045                    -0.0305                  6.938484096739567E-6
0.0045                    -0.0295                  6.4018581770724745E-6
0.0045                    -0.0285                  6.8581922927518775E-6
0.0045                    -0.0275                  7.0028932963204806E-6
0.0045                    -0.0265                  7.035304755012861E-6
0.0045                    -0.0255                  6.9587523113509195E-6
0.0045                    -0.0245                  6.850377060955736E-6
0.0045                    -0.0235                  6.745408268166613E-6
0.0045                    -0.0225                  6.667552439637247E-6
0.0045                    -0.0215                  6.6305548372703476E-6
0.0045                    -0.0205                  6.644093806327077E-6
0.0045                    -0.0195                  6.7146377720920465E-6
0.0045                    -0.0185                  6.844669744334509E-6
0.0045                    -0.0175                  7.030372061849182E-6
0.0045                    -0.0165                  7.259276323960686E-6
0.0045                    -0.0155                  7.509638115040642E-6
0.0045                    -0.0145                  7.755126609593775E-6
0.0045                    -0.0135                  7.981230711792778E-6
0.0045                    -0.0125                  8.222837193708413E-6
0.0045                    -0.0115                  8.63754291430077E-6
0.0045                    -0.0105                  9.641774773943787E-6
0.0045                    -0.0095                  1.2186422327669916E-5
0.0045                    -0.0085                  1.849108067228846E-5
0.0045                    -0.0075                  3.403681531319035E-5
0.0045                    -0.0065                  7.415443494837721E-5
0.0045                    -0.0055                  1.8358909068997556E-4
0.0045                    -0.0045                  5.389171538891642E-4
0.0045                    -0.0035                  0.0017826141040293705
0.0045                    -0.0025                  0.005850036093276437
0.0045                    -0.0015                  0.012089528211577794
0.0045                    -5.0E-4                  0.015769538673594537
0.0045                    5.0E-4                   0.014618677439947625
0.0045                    0.0015                   0.010501284553206048
0.0045                    0.0025                   0.006179831796111863
0.0045                    0.0035                   0.0031489349820104317
0.0045                    0.0045                   0.0014616029222926745
0.0045                    0.0055                   6.953622400691742E-4
0.0045                    0.0065                   4.839577807063102E-4
0.0045                    0.0075                   6.192108775924957E-4
0.0045                    0.0085                   0.0012950852218756876
0.0045                    0.0095                   0.0032058493894017246
0.0045                    0.0105                   0.007330430829116942
0.0045                    0.0115                   0.01341725166094431
0.0045                    0.0125                   0.018656543901125276
0.0045                    0.0135                   0.01949528538041072
0.0045                    0.0145                   0.014937772644557134
0.0045                    0.0155                   0.008154724653179605
0.0045                    0.0165                   0.003350024107747661
0.0045                    0.0175                   0.0012740285183972162
0.0045                    0.0185                   4.928170026634713E-4
0.0045                    0.0195                   1.8101466290678782E-4
0.0045                    0.0205                   6.821575565488947E-5
0.0045                    0.0215                   2.8477132954507388E-5
0.0045                    0.0225                   1.3720568199511197E-5
0.0045                    0.0235                   8.348157284019151E-6
0.0045                    0.0245                   6.369617939884286E-6
0.0045                    0.0255                   5.615659471521034E-6
0.0045                    0.0265                   5.305783594916267E-6
0.0045                    0.0275                   5.110928684404527E-6
0.0045                    0.0285                   4.932941207747655E-6
0.0045                    0.0295                   4.580113811397295E-6
0.0045                    0.0305                   5.0263660847456525E-6
0.0045                    0.0315                   2.9304765050848447E-6
0.0055                    -0.0315                  4.209762273724853E-6
0.0055                    -0.0305                  7.0695345455304824E-6
0.0055                    -0.0295                  6.265484401248634E-6
0.0055                    -0.0285                  6.746665975841118E-6
0.0055                    -0.0275                  7.001502091396385E-6
0.0055                    -0.0265                  7.1678011803781425E-6
0.0055                    -0.0255                  7.189991380528406E-6
0.0055                    -0.0245                  7.136137208105196E-6
0.0055                    -0.0235                  7.050927058270186E-6
0.0055                    -0.0225                  6.970791084622212E-6
0.0055                    -0.0215                  6.919616491489321E-6
0.0055                    -0.0205                  6.915177881935335E-6
0.0055                    -0.0195                  6.971027616056347E-6
0.0055                    -0.0185                  7.096798864175029E-6
0.0055                    -0.0175                  7.296421094570088E-6
0.0055                    -0.0165                  7.565183737716713E-6
0.0055                    -0.0155                  7.88753461805473E-6
0.0055                    -0.0145                  8.240035262896846E-6
0.0055                    -0.0135                  8.608967215511826E-6
0.0055                    -0.0125                  9.041786025421531E-6
0.0055                    -0.0115                  9.770139319150901E-6
0.0055                    -0.0105                  1.1471553347164594E-5
0.0055                    -0.0095                  1.583651538063442E-5
0.0055                    -0.0085                  2.6802180935745416E-5
0.0055                    -0.0075                  5.520195273860565E-5
0.0055                    -0.0065                  1.312760351319238E-4
0.0055                    -0.0055                  3.794937553568721E-4
0.0055                    -0.0045                  0.0011375786351945768
0.0055                    -0.0035                  0.0035783817343366837
0.0055                    -0.0025                  0.00933346559356752
0.0055                    -0.0015                  0.015458201331808868
0.0055                    -5.0E-4                  0.01646330828992713
0.0055                    5.0E-4                   0.012245312533946217
0.0055                    0.0015                   0.006813157009813724
0.0055                    0.0025                   0.003124288940846918
0.0055                    0.0035                   0.0013625069034446642
0.0055                    0.0045                   6.053490943679802E-4
0.0055                    0.0055                   3.0955087468869297E-4
0.0055                    0.0065                   2.2893250401294563E-4
0.0055                    0.0075                   2.5327963126022397E-4
0.0055                    0.0085                   4.978914563954386E-4
0.0055                    0.0095                   0.001347427927246296
0.0055                    0.0105                   0.0037902076017540228
0.0055                    0.0115                   0.009011731531725594
0.0055                    0.0125                   0.01582480296960069
0.0055                    0.0135                   0.020124694671651736
0.0055                    0.0145                   0.018772345599350943
0.0055                    0.0155                   0.012736170073982882
0.0055                    0.0165                   0.00623562765190089
0.0055                    0.0175                   0.002412428978097282
0.0055                    0.0185                   9.142307680147662E-4
0.0055                    0.0195                   3.4448993600650436E-4
0.0055                    0.0205                   1.2262194054753436E-4
0.0055                    0.0215                   4.348858249742085E-5
0.0055                    0.0225                   1.8508574666061712E-5
0.0055                    0.0235                   1.0218723021750338E-5
0.0055                    0.0245                   7.177951622353306E-6
0.0055                    0.0255                   5.977217864791973E-6
0.0055                    0.0265                   5.440836378496239E-6
0.0055                    0.0275                   5.092118469039316E-6
0.0055                    0.0285                   4.818366797167919E-6
0.0055                    0.0295                   4.445386152853619E-6
0.0055                    0.0305                   5.091190317568452E-6
0.0055                    0.0315                   3.0517077888900874E-6
0.0065                    -0.0315                  4.3637524607406E-6
0.0065                    -0.0305                  7.180686805980473E-6
0.0065                    -0.0295                  6.136684582103441E-6
0.0065                    -0.0285                  6.5884798586139E-6
0.0065                    -0.0275                  6.889650106865717E-6
0.0065                    -0.0265                  7.153295400423163E-6
0.0065                    -0.0255                  7.274554580430312E-6
0.0065                    -0.0245                  7.294847711584965E-6
0.0065                    -0.0235                  7.252013210557667E-6
0.0065                    -0.0225                  7.187441006850022E-6
0.0065                    -0.0215                  7.132792876551078E-6
0.0065                    -0.0205                  7.113432417916494E-6
0.0065                    -0.0195                  7.150245863555326E-6
0.0065                    -0.0185                  7.260825100841432E-6
0.0065                    -0.0175                  7.458719329059591E-6
0.0065                    -0.0165                  7.751354927788409E-6
0.0065                    -0.0155                  8.137941143513774E-6
0.0065                    -0.0145                  8.612243158099882E-6
0.0065                    -0.0135                  9.183322310358655E-6
0.0065                    -0.0125                  9.946192558379792E-6
0.0065                    -0.0115                  1.1275755557714233E-5
0.0065                    -0.0105                  1.431499163564955E-5
0.0065                    -0.0095                  2.2162779575114446E-5
0.0065                    -0.0085                  4.298743012512819E-5
0.0065                    -0.0075                  9.894410876261913E-5
0.0065                    -0.0065                  2.721755131295254E-4
0.0065                    -0.0055                  8.050509040330914E-4