% Model:              Benchmark260518.mph
% Version:            COMSOL 6.2.0.339
% Date:               May 21 2026, 03:38
% Dimension:          2
% Nodes:              4096
% Expressions:        1
% Description:        速度大小
% Length unit:        m
% x                       y                        spf.U (m/s)
5.0E-4                    -0.0315                  1.10364021659417E-6
5.0E-4                    -0.0305                  2.1831136073105716E-6
5.0E-4                    -0.0295                  2.326912405191359E-6
5.0E-4                    -0.0285                  2.570359885452594E-6
5.0E-4                    -0.0275                  2.7684502416443317E-6
5.0E-4                    -0.0265                  2.8998367694490156E-6
5.0E-4                    -0.0255                  3.0111513741568884E-6
5.0E-4                    -0.0245                  3.1106812017764755E-6
5.0E-4                    -0.0235                  3.1953011642021746E-6
5.0E-4                    -0.0225                  3.2728300028976656E-6
5.0E-4                    -0.0215                  3.345110655776931E-6
5.0E-4                    -0.0205                  3.4126629270095522E-6
5.0E-4                    -0.0195                  3.4782350267156588E-6
5.0E-4                    -0.0185                  3.542623506121836E-6
5.0E-4                    -0.0175                  3.607397569450381E-6
5.0E-4                    -0.0165                  3.67361083914143E-6
5.0E-4                    -0.0155                  3.741733730744728E-6
5.0E-4                    -0.0145                  3.8098912764045436E-6
5.0E-4                    -0.0135                  3.876569637057791E-6
5.0E-4                    -0.0125                  3.938622065758954E-6
5.0E-4                    -0.0115                  3.988303891969883E-6
5.0E-4                    -0.0105                  4.021740783504215E-6
5.0E-4                    -0.0095                  4.03405417236605E-6
5.0E-4                    -0.0085                  4.020433255833469E-6
5.0E-4                    -0.0075                  3.981118790277633E-6
5.0E-4                    -0.0065                  3.92206828335563E-6
5.0E-4                    -0.0055                  3.848376192118266E-6
5.0E-4                    -0.0045                  3.760063132456772E-6
5.0E-4                    -0.0035                  3.665426631035362E-6
5.0E-4                    -0.0025                  3.5807809335311153E-6
5.0E-4                    -0.0015                  3.537210978103541E-6
5.0E-4                    -5.0E-4                  3.4944284783218028E-6
5.0E-4                    5.0E-4                   3.7000492002048557E-6
5.0E-4                    0.0015                   4.8255037376916915E-6
5.0E-4                    0.0025                   7.874267734058386E-6
5.0E-4                    0.0035                   1.482733334658546E-5
5.0E-4                    0.0045                   2.885154624012544E-5
5.0E-4                    0.0055                   5.3676615130845965E-5
5.0E-4                    0.0065                   8.019077591524974E-5
5.0E-4                    0.0075                   1.9965174736866328E-4
5.0E-4                    0.0085                   4.926320500391868E-4
5.0E-4                    0.0095                   7.567461061193894E-4
5.0E-4                    0.0105                   9.948290179172196E-4
5.0E-4                    0.0115                   0.006340779482974521
5.0E-4                    0.0125                   0.028604560530641122
5.0E-4                    0.0135                   0.040911126096944105
5.0E-4                    0.0145                   0.031329223444402685
5.0E-4                    0.0155                   0.01831162662270432
5.0E-4                    0.0165                   0.007013883497320436
5.0E-4                    0.0175                   0.0016303260372498168
5.0E-4                    0.0185                   2.8699763512122795E-4
5.0E-4                    0.0195                   7.921761533092316E-5
5.0E-4                    0.0205                   1.370010794166166E-5
5.0E-4                    0.0215                   5.570620347298641E-6
5.0E-4                    0.0225                   4.201228691161949E-6
5.0E-4                    0.0235                   3.824658321852966E-6
5.0E-4                    0.0245                   3.6649449347503683E-6
5.0E-4                    0.0255                   3.6159414336510306E-6
5.0E-4                    0.0265                   3.5676439175774117E-6
5.0E-4                    0.0275                   3.4924216089845693E-6
5.0E-4                    0.0285                   3.3938444731407183E-6
5.0E-4                    0.0295                   3.1255652698632857E-6
5.0E-4                    0.0305                   2.889086497100495E-6
5.0E-4                    0.0315                   1.4662820225635169E-6
0.0015                    -0.0315                  2.1639383104011726E-6
0.0015                    -0.0305                  4.289480836731969E-6
0.0015                    -0.0295                  4.541347143403464E-6
0.0015                    -0.0285                  4.836184834458831E-6
0.0015                    -0.0275                  4.995572142768008E-6
0.0015                    -0.0265                  5.0925180535652E-6
0.0015                    -0.0255                  5.16912574680987E-6
0.0015                    -0.0245                  5.242896795900098E-6
0.0015                    -0.0235                  5.309052224274614E-6
0.0015                    -0.0225                  5.373676517647732E-6
0.0015                    -0.0215                  5.437871883956776E-6
0.0015                    -0.0205                  5.5016378777624025E-6
0.0015                    -0.0195                  5.567481792534843E-6
0.0015                    -0.0185                  5.636642569632766E-6
0.0015                    -0.0175                  5.711197493251874E-6
0.0015                    -0.0165                  5.792805693931367E-6
0.0015                    -0.0155                  5.882168474902123E-6
0.0015                    -0.0145                  5.977260124183724E-6
0.0015                    -0.0135                  6.075472321139681E-6
0.0015                    -0.0125                  6.1714036863695655E-6
0.0015                    -0.0115                  6.254410184256231E-6
0.0015                    -0.0105                  6.316731349935259E-6
0.0015                    -0.0095                  6.350232993189673E-6
0.0015                    -0.0085                  6.3487058840764376E-6
0.0015                    -0.0075                  6.3140036522413054E-6
0.0015                    -0.0065                  6.256634294301479E-6
0.0015                    -0.0055                  6.187890459446334E-6
0.0015                    -0.0045                  6.114925244085967E-6
0.0015                    -0.0035                  6.054544405296828E-6
0.0015                    -0.0025                  6.040318967195259E-6
0.0015                    -0.0015                  6.133207955729409E-6
0.0015                    -5.0E-4                  6.39583949664349E-6
0.0015                    5.0E-4                   7.347618314330819E-6
0.0015                    0.0015                   1.02778566894107E-5
0.0015                    0.0025                   1.7402967842561225E-5
0.0015                    0.0035                   3.3825686554003965E-5
0.0015                    0.0045                   6.96080064927569E-5
0.0015                    0.0055                   1.2957873157497555E-4
0.0015                    0.0065                   2.7284330072642476E-4
0.0015                    0.0075                   7.327879119216981E-4
0.0015                    0.0085                   0.001450464670631967
0.0015                    0.0095                   0.0019840084716949646
0.0015                    0.0105                   0.002805555273590643
0.0015                    0.0115                   0.018287504894700265
0.0015                    0.0125                   0.03760656935228395
0.0015                    0.0135                   0.03983644910051982
0.0015                    0.0145                   0.027316716491800622
0.0015                    0.0155                   0.013159798882051271
0.0015                    0.0165                   0.00408264576674082
0.0015                    0.0175                   0.0010824891006592297
0.0015                    0.0185                   3.1416666856273024E-4
0.0015                    0.0195                   9.243959726165207E-5
0.0015                    0.0205                   3.108173266559414E-5
0.0015                    0.0215                   1.2122840988199643E-5
0.0015                    0.0225                   7.6085598965390955E-6
0.0015                    0.0235                   6.443757940845735E-6
0.0015                    0.0245                   6.057692290900923E-6
0.0015                    0.0255                   5.9667146632830245E-6
0.0015                    0.0265                   5.9511916380605224E-6
0.0015                    0.0275                   5.941895558040609E-6
0.0015                    0.0285                   5.937398903336223E-6
0.0015                    0.0295                   5.696679740551749E-6
0.0015                    0.0305                   5.521002731670675E-6
0.0015                    0.0315                   2.857077490319862E-6
0.0025                    -0.0315                  2.225867134217866E-6
0.0025                    -0.0305                  4.418140344334386E-6
0.0025                    -0.0295                  4.747413458943891E-6
0.0025                    -0.0285                  4.99790589843978E-6
0.0025                    -0.0275                  4.962175340070707E-6
0.0025                    -0.0265                  4.882666408146802E-6
0.0025                    -0.0255                  4.782238795032109E-6
0.0025                    -0.0245                  4.691791409332368E-6
0.0025                    -0.0235                  4.615039794680484E-6
0.0025                    -0.0225                  4.5518568565565665E-6
0.0025                    -0.0215                  4.501343323351919E-6
0.0025                    -0.0205                  4.462733912697757E-6
0.0025                    -0.0195                  4.435855508229245E-6
0.0025                    -0.0185                  4.42165572469074E-6
0.0025                    -0.0175                  4.421525003371875E-6
0.0025                    -0.0165                  4.436994604376906E-6
0.0025                    -0.0155                  4.468939639494526E-6
0.0025                    -0.0145                  4.5171302878507605E-6
0.0025                    -0.0135                  4.57942314242844E-6
0.0025                    -0.0125                  4.6513174109148075E-6
0.0025                    -0.0115                  4.726276572603725E-6
0.0025                    -0.0105                  4.795950031357313E-6
0.0025                    -0.0095                  4.852649590821668E-6
0.0025                    -0.0085                  4.892472691847E-6
0.0025                    -0.0075                  4.918793174308948E-6
0.0025                    -0.0065                  4.943358507238073E-6
0.0025                    -0.0055                  4.983434453182697E-6
0.0025                    -0.0045                  5.058109835708404E-6
0.0025                    -0.0035                  5.1894934770963305E-6
0.0025                    -0.0025                  5.417882953799846E-6
0.0025                    -0.0015                  5.835360144803794E-6
0.0025                    -5.0E-4                  6.720073095212932E-6
0.0025                    5.0E-4                   8.786765864622223E-6
0.0025                    0.0015                   1.3657118212103194E-5
0.0025                    0.0025                   2.460286068925136E-5
0.0025                    0.0035                   4.761284902376715E-5
0.0025                    0.0045                   1.021808680737338E-4
0.0025                    0.0055                   2.3506154800597293E-4
0.0025                    0.0065                   6.433677172593648E-4
0.0025                    0.0075                   0.0015422912935356794
0.0025                    0.0085                   0.002332739150670607
0.0025                    0.0095                   0.0010148894230188295
0.0025                    0.0105                   0.010333250514878116
0.0025                    0.0115                   0.028420410468250036
0.0025                    0.0125                   0.04018555342076268
0.0025                    0.0135                   0.03576538403003383
0.0025                    0.0145                   0.021234012335196558
0.0025                    0.0155                   0.008699241476597614
0.0025                    0.0165                   0.002738655726011213
0.0025                    0.0175                   9.86711871595592E-4
0.0025                    0.0185                   3.244374442356979E-4
0.0025                    0.0195                   1.0716229124142745E-4
0.0025                    0.0205                   3.6950583303103095E-5
0.0025                    0.0215                   1.5696007463164615E-5
0.0025                    0.0225                   8.617117015097233E-6
0.0025                    0.0235                   6.275320906188606E-6
0.0025                    0.0245                   5.491704366100061E-6
0.0025                    0.0255                   5.270689810516541E-6
0.0025                    0.0265                   5.282626728903531E-6
0.0025                    0.0275                   5.382255543137957E-6
0.0025                    0.0285                   5.521546716213193E-6
0.0025                    0.0295                   5.4420314682125536E-6
0.0025                    0.0305                   5.647173887022788E-6
0.0025                    0.0315                   3.0716899748168616E-6
0.0035                    -0.0315                  2.303048272023544E-6
0.0035                    -0.0305                  4.511795144785963E-6
0.0035                    -0.0295                  4.924522183597747E-6
0.0035                    -0.0285                  5.3848139252693125E-6
0.0035                    -0.0275                  5.45607246026945E-6
0.0035                    -0.0265                  5.401931868088879E-6
0.0035                    -0.0255                  5.282698280971452E-6
0.0035                    -0.0245                  5.1513898067686816E-6
0.0035                    -0.0235                  5.025160249719188E-6
0.0035                    -0.0225                  4.910954750135343E-6
0.0035                    -0.0215                  4.8101046223666695E-6
0.0035                    -0.0205                  4.722957980162325E-6
0.0035                    -0.0195                  4.650208587664506E-6
0.0035                    -0.0185                  4.593606263539339E-6
0.0035                    -0.0175                  4.555979074988295E-6
0.0035                    -0.0165                  4.540691146164632E-6
0.0035                    -0.0155                  4.550893505007008E-6
0.0035                    -0.0145                  4.588627694187274E-6
0.0035                    -0.0135                  4.654065744510214E-6
0.0035                    -0.0125                  4.744793844532926E-6
0.0035                    -0.0115                  4.855122116650386E-6
0.0035                    -0.0105                  4.975897801075231E-6
0.0035                    -0.0095                  5.095149945554284E-6
0.0035                    -0.0085                  5.2009710364506175E-6
0.0035                    -0.0075                  5.286945476199444E-6
0.0035                    -0.0065                  5.3581842240543416E-6
0.0035                    -0.0055                  5.433980896950706E-6
0.0035                    -0.0045                  5.545524637081774E-6
0.0035                    -0.0035                  5.735508359379802E-6
0.0035                    -0.0025                  6.07600903678615E-6
0.0035                    -0.0015                  6.741447968518167E-6
0.0035                    -5.0E-4                  8.18777102829109E-6
0.0035                    5.0E-4                   1.1468039899121146E-5
0.0035                    0.0015                   1.869761237212393E-5
0.0035                    0.0025                   3.487867166477682E-5
0.0035                    0.0035                   7.191300401253088E-5
0.0035                    0.0045                   1.660285681986351E-4
0.0035                    0.0055                   4.6002014868661635E-4
0.0035                    0.0065                   0.001279201764819553
0.0035                    0.0075                   0.0024086000577077096
0.0035                    0.0085                   0.001902630943443451
0.0035                    0.0095                   0.0052213449220393044
0.0035                    0.0105                   0.02047192784028515
0.0035                    0.0115                   0.035172841983627835
0.0035                    0.0125                   0.039243607020176874
0.0035                    0.0135                   0.02977637035801015
0.0035                    0.0145                   0.015060561515745965
0.0035                    0.0155                   0.005551811454451055
0.0035                    0.0165                   0.0018883904275022807
0.0035                    0.0175                   7.59723828136293E-4
0.0035                    0.0185                   2.908693404752011E-4
0.0035                    0.0195                   9.403872060780063E-5
0.0035                    0.0205                   3.4498659863991756E-5
0.0035                    0.0215                   1.602145281681263E-5
0.0035                    0.0225                   9.557960172580211E-6
0.0035                    0.0235                   6.987044976371553E-6
0.0035                    0.0245                   5.993601750607581E-6
0.0035                    0.0255                   5.678430905526487E-6
0.0035                    0.0265                   5.6532425707741335E-6
0.0035                    0.0275                   5.706610129748598E-6
0.0035                    0.0285                   5.75657224698732E-6
0.0035                    0.0295                   5.526693139743736E-6
0.0035                    0.0305                   5.9309884123869005E-6
0.0035                    0.0315                   3.370744750973846E-6
0.0045                    -0.0315                  2.342980243849014E-6
0.0045                    -0.0305                  4.4941504097633945E-6
0.0045                    -0.0295                  4.856500003890427E-6
0.0045                    -0.0285                  5.439168345971287E-6
0.0045                    -0.0275                  5.6519217457537285E-6
0.0045                    -0.0265                  5.693443373427746E-6
0.0045                    -0.0255                  5.615683969429463E-6
0.0045                    -0.0245                  5.489138370239855E-6
0.0045                    -0.0235                  5.345694515534888E-6
0.0045                    -0.0225                  5.202450188905715E-6
0.0045                    -0.0215                  5.06627628347635E-6
0.0045                    -0.0205                  4.9403460515916375E-6
0.0045                    -0.0195                  4.827051456424973E-6
0.0045                    -0.0185                  4.729718372862816E-6
0.0045                    -0.0175                  4.6531816105130925E-6
0.0045                    -0.0165                  4.603517445881947E-6
0.0045                    -0.0155                  4.5871475057011005E-6
0.0045                    -0.0145                  4.609694268294213E-6
0.0045                    -0.0135                  4.674875969371022E-6
0.0045                    -0.0125                  4.783588402176543E-6
0.0045                    -0.0115                  4.932967492057995E-6
0.0045                    -0.0105                  5.115102146548887E-6
0.0045                    -0.0095                  5.315893652135627E-6
0.0045                    -0.0085                  5.515625046330553E-6
0.0045                    -0.0075                  5.693700110343585E-6
0.0045                    -0.0065                  5.838866204139148E-6
0.0045                    -0.0055                  5.962028778079298E-6
0.0045                    -0.0045                  6.105127413474128E-6
0.0045                    -0.0035                  6.345777922877501E-6
0.0045                    -0.0025                  6.821387554662624E-6
0.0045                    -0.0015                  7.820366439362733E-6
0.0045                    -5.0E-4                  1.0002241976327176E-5
0.0045                    5.0E-4                   1.480881651725275E-5
0.0045                    0.0015                   2.5056840805910968E-5
0.0045                    0.0025                   4.62736509059688E-5
0.0045                    0.0035                   1.0673620630048503E-4
0.0045                    0.0045                   2.962393416849118E-4
0.0045                    0.0055                   8.88853804467618E-4
0.0045                    0.0065                   0.00207900884309801
0.0045                    0.0075                   0.0026109969347279612
0.0045                    0.0085                   0.0017258253965980385
0.0045                    0.0095                   0.013982031780430339
0.0045                    0.0105                   0.029069483403769903
0.0045                    0.0115                   0.037834413907024855
0.0045                    0.0125                   0.03539492747281989
0.0045                    0.0135                   0.022830801613328337
0.0045                    0.0145                   0.009801497335531399
0.0045                    0.0155                   0.003430041705756723
0.0045                    0.0165                   0.0012214071751538544
0.0045                    0.0175                   4.5126272474122126E-4
0.0045                    0.0185                   1.6413636194694637E-4
0.0045                    0.0195                   6.142480841827449E-5
0.0045                    0.0205                   2.6403669755956913E-5
0.0045                    0.0215                   1.405160535184829E-5
0.0045                    0.0225                   9.333972079674251E-6
0.0045                    0.0235                   7.280694605545292E-6
0.0045                    0.0245                   6.32813112786126E-6
0.0045                    0.0255                   5.9464486607981814E-6
0.0045                    0.0265                   5.8404733367852166E-6
0.0045                    0.0275                   5.786690585229203E-6
0.0045                    0.0285                   5.7121506813753265E-6
0.0045                    0.0295                   5.402626948850496E-6
0.0045                    0.0305                   6.02710301999198E-6
0.0045                    0.0315                   3.536829184447387E-6
0.0055                    -0.0315                  2.3808968420479375E-6
0.0055                    -0.0305                  4.492828843206861E-6
0.0055                    -0.0295                  4.780508926571549E-6
0.0055                    -0.0285                  5.411223477039475E-6
0.0055                    -0.0275                  5.729284637159192E-6
0.0055                    -0.0265                  5.884038792171833E-6
0.0055                    -0.0255                  5.8885705377610794E-6
0.0055                    -0.0245                  5.808542767256855E-6
0.0055                    -0.0235                  5.683636678397416E-6
0.0055                    -0.0225                  5.539971218660384E-6
0.0055                    -0.0215                  5.3909732537867284E-6
0.0055                    -0.0205                  5.243665896999619E-6
0.0055                    -0.0195                  5.102596773830286E-6
0.0055                    -0.0185                  4.9727288194385635E-6
0.0055                    -0.0175                  4.860974350308182E-6
0.0055                    -0.0165                  4.776510658846011E-6
0.0055                    -0.0155                  4.7299649729263E-6
0.0055                    -0.0145                  4.7318762287473805E-6
0.0055                    -0.0135                  4.791032875748961E-6
0.0055                    -0.0125                  4.91312878414749E-6
0.0055                    -0.0115                  5.099685337210617E-6
0.0055                    -0.0105                  5.346613475401534E-6
0.0055                    -0.0095                  5.6417661545311496E-6
0.0055                    -0.0085                  5.962369680389706E-6
0.0055                    -0.0075                  6.275815198993392E-6
0.0055                    -0.0065                  6.549334666076574E-6
0.0055                    -0.0055                  6.772758050979549E-6
0.0055                    -0.0045                  6.990806490186042E-6
0.0055                    -0.0035                  7.335900213888751E-6
0.0055                    -0.0025                  8.066958097802723E-6
0.0055                    -0.0015                  9.650415584350228E-6
0.0055                    -5.0E-4                  1.2935847614716763E-5
0.0055                    5.0E-4                   1.9537532400646355E-5
0.0055                    0.0015                   3.361282107412603E-5
0.0055                    0.0025                   6.763440008072507E-5
0.0055                    0.0035                   1.7369091004580984E-4
0.0055                    0.0045                   5.369830814097437E-4
0.0055                    0.0055                   0.0015103847008839163
0.0055                    0.0065                   0.002581954161404021
0.0055                    0.0075                   6.659000933855574E-4
0.0055                    0.0085                   0.008784579170388256
0.0055                    0.0095                   0.022999073414360135
0.0055                    0.0105                   0.034241559734836634
0.0055                    0.0115                   0.03697189854670285
0.0055                    0.0125                   0.029517607756749345
0.0055                    0.0135                   0.015949191696171375
0.0055                    0.0145                   0.005862104192720594
0.0055                    0.0155                   0.0020411644700908276
0.0055                    0.0165                   7.239348431789666E-4
0.0055                    0.0175                   2.3404255812474632E-4
0.0055                    0.0185                   7.634852413303326E-5
0.0055                    0.0195                   3.429644331956177E-5
0.0055                    0.0205                   1.7640650598252322E-5
0.0055                    0.0215                   1.0993474080267706E-5
0.0055                    0.0225                   8.257430260562544E-6
0.0055                    0.0235                   7.022343486400287E-6
0.0055                    0.0245                   6.385081489376474E-6
0.0055                    0.0255                   6.0642249642111406E-6
0.0055                    0.0265                   5.9082626497612185E-6
0.0055                    0.0275                   5.760238860485841E-6
0.0055                    0.0285                   5.60962288470373E-6
0.0055                    0.0295                   5.285890162308975E-6
0.0055                    0.0305                   6.144563005102154E-6
0.0055                    0.0315                   3.6997595454391843E-6
0.0065                    -0.0315                  2.415208199167674E-6
0.0065                    -0.0305                  4.49778929130237E-6
0.0065                    -0.0295                  4.706539227571031E-6
0.0065                    -0.0285                  5.340730362984154E-6
0.0065                    -0.0275                  5.712148421086848E-6
0.0065                    -0.0265                  5.952425321799059E-6
0.0065                    -0.0255                  6.041737463990262E-6
0.0065                    -0.0245                  6.026586708955262E-6
0.0065                    -0.0235                  5.942731501836947E-6
0.0065                    -0.0225                  5.82009220190262E-6
0.0065                    -0.0215                  5.677065189232307E-6
0.0065                    -0.0205                  5.524309828167126E-6
0.0065                    -0.0195                  5.3682936936630445E-6
0.0065                    -0.0185                  5.214944606721435E-6
0.0065                    -0.0175                  5.07233512833516E-6
0.0065                    -0.0165                  4.952073649484379E-6
0.0065                    -0.0155                  4.869061425518112E-6
0.0065                    -0.0145                  4.839745384086527E-6
0.0065                    -0.0135                  4.8795954923283074E-6
0.0065                    -0.0125                  5.000820137469213E-6
0.0065                    -0.0115                  5.210934267634992E-6
0.0065                    -0.0105                  5.511846604271164E-6
0.0065                    -0.0095                  5.898104017519487E-6
0.0065                    -0.0085                  6.3530180658757946E-6
0.0065                    -0.0075                  6.844664777355923E-6
0.0065                    -0.0065                  7.329646244094789E-6
0.0065                    -0.0055                  7.778813513403332E-6