% Model:              Benchmark260518.mph
% Version:            COMSOL 6.2.0.339
% Date:               May 19 2026, 00:01
% Dimension:          2
% Nodes:              4096
% Expressions:        1
% Description:        速度大小
% Length unit:        m
% x                       y                        spf.U (m/s)
% mirrored_by_python_y_to_minus_y, coord_match_decimals=12
0.0005 -0.0315 7.13073547806e-07
0.0005 -0.0305 1.39334944748e-06
0.0005 -0.0295 1.42560118094e-06
0.0005 -0.0285 1.45760012957e-06
0.0005 -0.0275 1.46328477273e-06
0.0005 -0.0265 1.46414381055e-06
0.0005 -0.0255 1.46494309654e-06
0.0005 -0.0245 1.46953359682e-06
0.0005 -0.0235 1.46817215882e-06
0.0005 -0.0225 1.46307270854e-06
0.0005 -0.0215 1.47301109147e-06
0.0005 -0.0205 1.51700997812e-06
0.0005 -0.0195 1.64630987132e-06
0.0005 -0.0185 2.00368385151e-06
0.0005 -0.0175 2.95083641323e-06
0.0005 -0.0165 5.43269849707e-06
0.0005 -0.0155 1.19938691265e-05
0.0005 -0.0145 2.91955804015e-05
0.0005 -0.0135 5.97804343114e-05
0.0005 -0.0125 0.000183867613204
0.0005 -0.0115 0.000735352973068
0.0005 -0.0105 0.00116998884508
0.0005 -0.0095 0.0327381218402
0.0005 -0.0085 0.0740150645004
0.0005 -0.0075 0.0768352968545
0.0005 -0.0065 0.036407107119
0.0005 -0.0055 0.00340396670098
0.0005 -0.0045 0.00422140132459
0.0005 -0.0035 0.00452805514079
0.0005 -0.0025 0.00328264817178
0.0005 -0.0015 0.00200295164735
0.0005 -0.0005 0.00219367538562
0.0005 0.0005 0.00290240311665
0.0005 0.0015 0.00313193030514
0.0005 0.0025 0.00258268819653
0.0005 0.0035 0.00167016547472
0.0005 0.0045 0.000942863052002
0.0005 0.0055 0.000491521358733
0.0005 0.0065 0.000199249690799
0.0005 0.0075 6.06353586837e-05
0.0005 0.0085 2.28617821576e-05
0.0005 0.0095 1.16118705476e-05
0.0005 0.0105 8.00313338464e-06
0.0005 0.0115 6.49366441114e-06
0.0005 0.0125 5.61724782881e-06
0.0005 0.0135 5.02315897811e-06
0.0005 0.0145 4.64850301204e-06
0.0005 0.0155 4.43116737695e-06
0.0005 0.0165 4.26141498839e-06
0.0005 0.0175 4.12119194323e-06
0.0005 0.0185 4.0021598612e-06
0.0005 0.0195 3.88998938128e-06
0.0005 0.0205 3.78758598723e-06
0.0005 0.0215 3.69431185286e-06
0.0005 0.0225 3.59684233132e-06
0.0005 0.0235 3.4989993331e-06
0.0005 0.0245 3.4056773977e-06
0.0005 0.0255 3.30774676302e-06
0.0005 0.0265 3.19627951962e-06
0.0005 0.0275 3.05975962605e-06
0.0005 0.0285 2.90559996861e-06
0.0005 0.0295 2.61512001762e-06
0.0005 0.0305 2.33259004683e-06
0.0005 0.0315 1.15689806109e-06
0.0015 -0.0315 1.40546065047e-06
0.0015 -0.0305 2.760896426e-06
0.0015 -0.0295 2.84254716794e-06
0.0015 -0.0285 2.86643198905e-06
0.0015 -0.0275 2.81892848281e-06
0.0015 -0.0265 2.78651759634e-06
0.0015 -0.0255 2.78183249736e-06
0.0015 -0.0245 2.81429343142e-06
0.0015 -0.0235 2.87389607757e-06
0.0015 -0.0225 2.95846291637e-06
0.0015 -0.0215 3.08529913534e-06
0.0015 -0.0205 3.29116554603e-06
0.0015 -0.0195 3.69367775472e-06
0.0015 -0.0185 4.62406913881e-06
0.0015 -0.0175 6.88302129251e-06
0.0015 -0.0165 1.24796351588e-05
0.0015 -0.0155 2.67076042667e-05
0.0015 -0.0145 6.75060997673e-05
0.0015 -0.0135 0.000172278762551
0.0015 -0.0125 0.000545875130699
0.0015 -0.0115 0.00172197749575
0.0015 -0.0105 0.00247232427043
0.0015 -0.0095 0.0338925272506
0.0015 -0.0085 0.072428625304
0.0015 -0.0075 0.0762247153403
0.0015 -0.0065 0.0401948367733
0.0015 -0.0055 0.00826734875256
0.0015 -0.0045 0.00704294833844
0.0015 -0.0035 0.00561867311345
0.0015 -0.0025 0.00502333669589
0.0015 -0.0015 0.00726659326944
0.0015 -0.0005 0.00882600874317
0.0015 0.0005 0.00947145371484
0.0015 0.0015 0.00912512988884
0.0015 0.0025 0.00741264331721
0.0015 0.0035 0.00469501999121
0.0015 0.0045 0.00229736825543
0.0015 0.0055 0.00100799599097
0.0015 0.0065 0.00039584735778
0.0015 0.0075 0.000122865567276
0.0015 0.0085 4.71240335032e-05
0.0015 0.0095 2.34499265598e-05
0.0015 0.0105 1.51929602286e-05
0.0015 0.0115 1.16353734327e-05
0.0015 0.0125 9.70551608474e-06
0.0015 0.0135 8.49822947816e-06
0.0015 0.0145 7.7443185745e-06
0.0015 0.0155 7.28008390151e-06
0.0015 0.0165 6.94067228934e-06
0.0015 0.0175 6.67206289917e-06
0.0015 0.0185 6.44964062473e-06
0.0015 0.0195 6.25240848432e-06
0.0015 0.0205 6.07997830105e-06
0.0015 0.0215 5.93101463237e-06
0.0015 0.0225 5.79324195407e-06
0.0015 0.0235 5.67057479577e-06
0.0015 0.0245 5.56841166881e-06
0.0015 0.0255 5.47791146772e-06
0.0015 0.0265 5.39033166913e-06
0.0015 0.0275 5.29033388618e-06
0.0015 0.0285 5.18438840316e-06
0.0015 0.0295 4.86082549639e-06
0.0015 0.0305 4.51392899654e-06
0.0015 0.0315 2.26997714897e-06
0.0025 -0.0315 1.46098968804e-06
0.0025 -0.0305 2.89749968865e-06
0.0025 -0.0295 3.1012951579e-06
0.0025 -0.0285 3.19159995744e-06
0.0025 -0.0275 3.11709208571e-06
0.0025 -0.0265 3.05425547627e-06
0.0025 -0.0255 3.04915714251e-06
0.0025 -0.0245 3.12603337284e-06
0.0025 -0.0235 3.285678874e-06
0.0025 -0.0225 3.5174175864e-06
0.0025 -0.0215 3.82215232434e-06
0.0025 -0.0205 4.25418150385e-06
0.0025 -0.0195 5.00093741671e-06
0.0025 -0.0185 6.56227565039e-06
0.0025 -0.0175 1.00815062595e-05
0.0025 -0.0165 1.82881320019e-05
0.0025 -0.0155 3.89173782041e-05
0.0025 -0.0145 0.000108867631825
0.0025 -0.0135 0.00031120688509
0.0025 -0.0125 0.000927807224612
0.0025 -0.0115 0.00235293145989
0.0025 -0.0105 0.00293991228723
0.0025 -0.0095 0.0342972829635
0.0025 -0.0085 0.0703676968455
0.0025 -0.0075 0.0751291098327
0.0025 -0.0065 0.0435543048345
0.0025 -0.0055 0.0110379748934
0.0025 -0.0045 0.00211867465072
0.0025 -0.0035 0.00590051857677
0.0025 -0.0025 0.0133286645864
0.0025 -0.0015 0.0163275230921
0.0025 -0.0005 0.0161084253398
0.0025 0.0005 0.0147659571504
0.0025 0.0015 0.0133384271694
0.0025 0.0025 0.0114354297886
0.0025 0.0035 0.00807805073154
0.0025 0.0045 0.00394568560243
0.0025 0.0055 0.00131098221881
0.0025 0.0065 0.000445415796576
0.0025 0.0075 0.000155253341019
0.0025 0.0085 6.36246095056e-05
0.0025 0.0095 3.16176639876e-05
0.0025 0.0105 1.86232780098e-05
0.0025 0.0115 1.27049468878e-05
0.0025 0.0125 9.69018643773e-06
0.0025 0.0135 8.02188836899e-06
0.0025 0.0145 7.03605927737e-06
0.0025 0.0155 6.40852653996e-06
0.0025 0.0165 5.97511365104e-06
0.0025 0.0175 5.64818990881e-06
0.0025 0.0185 5.38621800937e-06
0.0025 0.0195 5.17177894466e-06
0.0025 0.0205 4.99892253234e-06
0.0025 0.0215 4.86702892661e-06
0.0025 0.0225 4.77757104332e-06
0.0025 0.0235 4.730912626e-06
0.0025 0.0245 4.72626467884e-06
0.0025 0.0255 4.75982501103e-06
0.0025 0.0265 4.82612885957e-06
0.0025 0.0275 4.90050030001e-06
0.0025 0.0285 4.96074229777e-06
0.0025 0.0295 4.77085567992e-06
0.0025 0.0305 4.62937586163e-06
0.0025 0.0315 2.40504638373e-06
0.0035 -0.0315 1.53788551241e-06
0.0035 -0.0305 3.05318513867e-06
0.0035 -0.0295 3.41117275917e-06
0.0035 -0.0285 3.71425381856e-06
0.0035 -0.0275 3.77350955376e-06
0.0035 -0.0265 3.77882588918e-06
0.0035 -0.0255 3.80858776446e-06
0.0035 -0.0245 3.90779733123e-06
0.0035 -0.0235 4.09126764513e-06
0.0035 -0.0225 4.36584666132e-06
0.0035 -0.0215 4.7632218401e-06
0.0035 -0.0205 5.40202251601e-06
0.0035 -0.0195 6.60821557458e-06
0.0035 -0.0185 9.17849279877e-06
0.0035 -0.0175 1.49023857424e-05
0.0035 -0.0165 2.88021806094e-05
0.0035 -0.0155 6.42429487679e-05
0.0035 -0.0145 0.000191883281745
0.0035 -0.0135 0.000561090438362
0.0035 -0.0125 0.00151124113786
0.0035 -0.0115 0.00311263222683
0.0035 -0.0105 0.00394399463151
0.0035 -0.0095 0.0349597877357
0.0035 -0.0085 0.0676221728428
0.0035 -0.0075 0.0725510472721
0.0035 -0.0065 0.0462242673954
0.0035 -0.0055 0.0142924414273
0.0035 -0.0045 0.00759060923828
0.0035 -0.0035 0.0168633385119
0.0035 -0.0025 0.0221555062298
0.0035 -0.0015 0.0216903017123
0.0035 -0.0005 0.0185695139496
0.0035 0.0005 0.0157521720313
0.0035 0.0015 0.0146210449582
0.0035 0.0025 0.0143062709402
0.0035 0.0035 0.012064060795
0.0035 0.0045 0.00682875184984
0.0035 0.0055 0.00228931569018
0.0035 0.0065 0.000683013482465
0.0035 0.0075 0.0002481561678
0.0035 0.0085 0.000106953761236
0.0035 0.0095 5.24859134255e-05
0.0035 0.0105 2.8756265981e-05
0.0035 0.0115 1.75307494117e-05
0.0035 0.0125 1.20470466645e-05
0.0035 0.0135 9.29923746951e-06
0.0035 0.0145 7.82973255062e-06
0.0035 0.0155 6.97153934608e-06
0.0035 0.0165 6.41211664865e-06
0.0035 0.0175 6.00621578906e-06
0.0035 0.0185 5.6888449102e-06
0.0035 0.0195 5.43524484731e-06
0.0035 0.0205 5.23959880214e-06
0.0035 0.0215 5.10256693134e-06
0.0035 0.0225 5.02453914055e-06
0.0035 0.0235 5.00291630282e-06
0.0035 0.0245 5.03129839441e-06
0.0035 0.0255 5.09718226269e-06
0.0035 0.0265 5.18219282113e-06
0.0035 0.0275 5.23434465829e-06
0.0035 0.0285 5.21251495481e-06
0.0035 0.0295 4.87370438861e-06
0.0035 0.0305 4.83825770576e-06
0.0035 0.0315 2.6189037998e-06
0.0045 -0.0315 1.59454795045e-06
0.0045 -0.0305 3.15004387877e-06
0.0045 -0.0295 3.59411214371e-06
0.0045 -0.0285 4.07844688539e-06
0.0045 -0.0275 4.31834708633e-06
0.0045 -0.0265 4.45037346234e-06
0.0045 -0.0255 4.54983072885e-06
0.0045 -0.0245 4.67618322777e-06
0.0045 -0.0235 4.86524295447e-06
0.0045 -0.0225 5.15984038283e-06
0.0045 -0.0215 5.6597100846e-06
0.0045 -0.0205 6.61446568776e-06
0.0045 -0.0195 8.61307300733e-06
0.0045 -0.0185 1.29934963185e-05
0.0045 -0.0175 2.31850575828e-05
0.0045 -0.0165 4.97860111329e-05
0.0045 -0.0155 0.00013650135287
0.0045 -0.0145 0.000400019423548
0.0045 -0.0135 0.0011501353614
0.0045 -0.0125 0.00272135608508
0.0045 -0.0115 0.0040116737813
0.0045 -0.0105 0.0063153491729
0.0045 -0.0095 0.0365840730681
0.0045 -0.0085 0.0637882984378
0.0045 -0.0075 0.0671899784947
0.0045 -0.0065 0.0457034378749
0.0045 -0.0055 0.0189045603186
0.0045 -0.0045 0.018219484548
0.0045 -0.0035 0.0252774360896
0.0045 -0.0025 0.025191750425
0.0045 -0.0015 0.0201688345998
0.0045 -0.0005 0.0148079169512
0.0045 0.0005 0.0121799157008
0.0045 0.0015 0.0131115199996
0.0045 0.0025 0.0155917884408
0.0045 0.0035 0.0155991825297
0.0045 0.0045 0.0106596588844
0.0045 0.0055 0.0044817331562
0.0045 0.0065 0.00144627990171
0.0045 0.0075 0.000535734418202
0.0045 0.0085 0.000216893304879
0.0045 0.0095 0.000102338000884
0.0045 0.0105 5.02178323654e-05
0.0045 0.0115 2.69341064367e-05
0.0045 0.0125 1.6449902884e-05
0.0045 0.0135 1.14852155788e-05
0.0045 0.0145 9.01360708178e-06
0.0045 0.0155 7.68587169472e-06
0.0045 0.0165 6.89047498268e-06
0.0045 0.0175 6.35030559971e-06
0.0045 0.0185 5.94760144581e-06
0.0045 0.0195 5.63940578272e-06
0.0045 0.0205 5.41410117554e-06
0.0045 0.0215 5.2685006721e-06
0.0045 0.0225 5.1976607777e-06
0.0045 0.0235 5.19138857014e-06
0.0045 0.0245 5.23369507196e-06
0.0045 0.0255 5.29929502511e-06
0.0045 0.0265 5.35263542071e-06
0.0045 0.0275 5.32423022656e-06
0.0045 0.0285 5.18992657844e-06
0.0045 0.0295 4.77572441459e-06
0.0045 0.0305 4.93003263737e-06
0.0045 0.0315 2.77122748567e-06
0.0055 -0.0315 1.65657819587e-06
0.0055 -0.0305 3.27650446335e-06
0.0055 -0.0295 3.80346654893e-06
0.0055 -0.0285 4.43566864359e-06
0.0055 -0.0275 4.84771525371e-06
0.0055 -0.0265 5.12852213278e-06
0.0055 -0.0255 5.32455372078e-06
0.0055 -0.0245 5.4944415005e-06
0.0055 -0.0235 5.69597106978e-06
0.0055 -0.0225 6.02797556066e-06
0.0055 -0.0215 6.71218417014e-06
0.0055 -0.0205 8.22899981398e-06
0.0055 -0.0195 1.16160047328e-05
0.0055 -0.0185 1.92629393245e-05
0.0055 -0.0175 3.84928670488e-05
0.0055 -0.0165 9.4831658137e-05
0.0055 -0.0155 0.000292158426523
0.0055 -0.0145 0.000898575186202
0.0055 -0.0135 0.00243187322941
0.0055 -0.0125 0.00439182546597
0.0055 -0.0115 0.00285359440107
0.0055 -0.0105 0.0123595122877
0.0055 -0.0095 0.0397453835185
0.0055 -0.0085 0.0585472745843
0.0055 -0.0075 0.058301769222
0.0055 -0.0065 0.0400508519727
0.0055 -0.0055 0.0216798050408
0.0055 -0.0045 0.0242901357078
0.0055 -0.0035 0.0255650651283
0.0055 -0.0025 0.0195401090162
0.0055 -0.0015 0.0121553768419
0.0055 -0.0005 0.00753224476274
0.0055 0.0005 0.00666415631039
0.0055 0.0015 0.00969963726699
0.0055 0.0025 0.014721901589
0.0055 0.0035 0.0175623135212
0.0055 0.0045 0.0146088805189
0.0055 0.0055 0.00799537620793
0.0055 0.0065 0.00315948956989
0.0055 0.0075 0.00122637047037
0.0055 0.0085 0.000532160433607
0.0055 0.0095 0.000232182804381
0.0055 0.0105 9.52426049057e-05
0.0055 0.0115 4.57689276476e-05
0.0055 0.0125 2.50189416671e-05
0.0055 0.0135 1.56849662267e-05
0.0055 0.0145 1.11662317949e-05
0.0055 0.0155 8.8684857827e-06
0.0055 0.0165 7.5872832728e-06
0.0055 0.0175 6.78673631636e-06
0.0055 0.0185 6.23666246635e-06
0.0055 0.0195 5.84828321454e-06
0.0055 0.0205 5.58685693197e-06
0.0055 0.0215 5.43306003217e-06
0.0055 0.0225 5.36809870862e-06
0.0055 0.0235 5.36932040904e-06
0.0055 0.0245 5.40840533763e-06
0.0055 0.0255 5.44680829961e-06
0.0055 0.0265 5.43886226057e-06
0.0055 0.0275 5.31990098909e-06
0.0055 0.0285 5.1091572279e-06
0.0055 0.0295 4.68125526062e-06
0.0055 0.0305 5.01738984735e-06
0.0055 0.0315 2.8983622038e-06
0.0065 -0.0315 1.7219801801e-06
0.0065 -0.0305 3.42064085731e-06
0.0065 -0.0295 4.03115423825e-06
0.0065 -0.0285 4.78562099864e-06
0.0065 -0.0275 5.33878916722e-06
0.0065 -0.0265 5.75434360799e-06
0.0065 -0.0255 6.05371566472e-06
0.0065 -0.0245 6.28825226408e-06
0.0065 -0.0235 6.540033125e-06
0.0065 -0.0225 6.98868084921e-06
0.0065 -0.0215 8.05537184626e-06
0.0065 -0.0205 1.06243492844e-05
0.0065 -0.0195 1.63800389352e-05
0.0065 -0.0185 2.97693976309e-05
0.0065 -0.0175 6.64553288413e-05
0.0065 -0.0165 0.000194266754371
0.0065 -0.0155 0.00062725521534
0.0065 -0.0145 0.00196016903248
0.0065 -0.0135 0.00406380653806
0.0065 -0.0125 0.00394848327661
0.0065 -0.0115 0.00465702922758
0.0065 -0.0105 0.0238895409104
0.0065 -0.0095 0.043927387875
0.0065 -0.0085 0.0522035891369
0.0065 -0.0075 0.0463561305485
0.0065 -0.0065 0.0295400900264
0.0065 -0.0055 0.0194336635038
0.0065 -0.0045 0.0207571450862
0.0065 -0.0035 0.0162283664625
0.0065 -0.0025 0.00914372633905
0.0065 -0.0015 0.00462050730467
0.0065 -0.0005 0.00282099118588
0.0065 0.0005 0.00307640519483
0.0065 0.0015 0.00607086180659
0.0065 0.0025 0.0118120512243
0.0065 0.0035 0.0171576746342
0.0065 0.0045 0.01754973606
0.0065 0.0055 0.0125441212349
0.0065 0.0065 0.00646710632286
0.0065 0.0075 0.00275936494851
0.0065 0.0085 0.0012117735424
0.0065 0.0095 0.000532516163455
0.0065 0.0105 0.00020666038902
0.0065 0.0115 8.5510750163e-05
0.0065 0.0125 4.23843139533e-05
0.0065 0.0135 2.38753175168e-05
0.0065 0.0145 1.53073543339e-05
0.0065 0.0155 1.10180237723e-05
0.0065 0.0165 8.72262037225e-06
0.0065 0.0175 7.37463430221e-06
0.0065 0.0185 6.53149909246e-06
0.0065 0.0195 5.99809997077e-06
0.0065 0.0205 5.67784958824e-06
0.0065 0.0215 5.50957463952e-06
0.0065 0.0225 5.44716456214e-06
0.0065 0.0235 5.44981247846e-06
0.0065 0.0245 5.47562717431e-06
0.0065 0.0255 5.47710153217e-06
0.0065 0.0265 5.41046581905e-06
0.0065 0.0275 5.22967120627e-06
0.0065 0.0285 4.9911739656e-06
0.0065 0.0295 4.58872087937e-06
0.0065 0.0305 5.10333302447e-06
0.0065 0.0315 3.01438002578e-06
0.0075 -0.0315 1.79285573279e-06
0.0075 -0.0305 3.58400063734e-06
0.0075 -0.0295 4.27951658404e-06
0.0075 -0.0285 5.13808855095e-06
0.0075 -0.0275 5.80198597363e-06
0.0075 -0.0265 6.3245880935e-06
0.0075 -0.0255 6.7162784353e-06
0.0075 -0.0245 7.02970504014e-06
0.0075 -0.0235 7.38266678803e-06
0.0075 -0.0225 8.068943131e-06
0.0075 -0.0215 9.80056369752e-06
0.0075 -0.0205 1.4143907088e-05
0.0075 -0.0195 2.4088242393e-05
0.0075 -0.0185 4.67431674138e-05
0.0075 -0.0175 0.000120644828615
0.0075 -0.0165 0.000387464242788
0.0075 -0.0155 0.00134175536583
0.0075 -0.0145 0.00327836832155
0.0075 -0.0135 0.00334293931505
0.0075 -0.0125 0.00438634835363
0.0075 -0.0115 0.0198508733196
0.0075 -0.0105 0.0372831479199
0.0075 -0.0095 0.047269583248
0.0075 -0.0085 0.0454193638528
0.0075 -0.0075 0.0331467202279
0.0075 -0.0065 0.0170509158985
0.0075 -0.0055 0.0114883076516
0.0075 -0.0045 0.0100659047401
0.0075 -0.0035 0.00568067691908
0.0075 -0.0025 0.00258732471762
0.0075 -0.0015 0.00161322463759
0.0075 -0.0005 0.00134175413798
0.0075 0.0005 0.001605026969
0.0075 0.0015 0.00340161896042
0.0075 0.0025 0.0079779816126
0.0075 0.0035 0.014309493012
0.0075 0.0045 0.0181946977435
0.0075 0.0055 0.0167082348997
0.0075 0.0065 0.01139559222
0.0075 0.0075 0.00601777993186
0.0075 0.0085 0.00273314349013
0.0075 0.0095 0.00120223350055
0.0075 0.0105 0.0005032588809
0.0075 0.0115 0.000194267211351
0.0075 0.0125 8.13884389619e-05
0.0075 0.0135 4.11991096597e-05
0.0075 0.0145 2.37266210753e-05
0.0075 0.0155 1.54152785117e-05
0.0075 0.0165 1.09839066338e-05
0.0075 0.0175 8.46885734754e-06
0.0075 0.0185 7.00064071989e-06
0.0075 0.0195 6.17080367969e-06
0.0075 0.0205 5.73008909193e-06
0.0075 0.0215 5.52309649422e-06
0.0075 0.0225 5.4532894921e-06
0.0075 0.0235 5.45186633207e-06
0.0075 0.0245 5.46139049325e-06
0.0075 0.0255 5.43006071545e-06
0.0075 0.0265 5.3228751481e-06
0.0075 0.0275 5.11161041626e-06
0.0075 0.0285 4.87644908065e-06
0.0075 0.0295 4.51547924415e-06
0.0075 0.0305 5.19117766812e-06
0.0075 0.0315 3.12040223997e-06
0.0085 -0.0315 1.86905954373e-06
0.0085 -0.0305 3.7614879108e-06
0.0085 -0.0295 4.53895583199e-06
0.0085 -0.0285 5.48536396904e-06
0.0085 -0.0275 6.23270386152e-06
0.0085 -0.0265 6.83263292077e-06
0.0085 -0.0255 7.29650289738e-06
0.0085 -0.0245 7.69378621793e-06
0.0085 -0.0235 8.19908630959e-06
0.0085 -0.0225 9.25635457195e-06
0.0085 -0.0215 1.19414224658e-05
0.0085 -0.0205 1.86735523849e-05
0.0085 -0.0195 3.50961425745e-05
0.0085 -0.0185 7.48490442841e-05
0.0085 -0.0175 0.000196231997966
0.0085 -0.0165 0.000702928026097
0.0085 -0.0155 0.00218391242535
0.0085 -0.0145 0.00239035483996
0.0085 -0.0135 0.0057202535136
0.0085 -0.0125 0.0200708070126
0.0085 -0.0115 0.0358917464982
0.0085 -0.0105 0.0460281931967
0.0085 -0.0095 0.04659307878
0.0085 -0.0085 0.03660442135
0.0085 -0.0075 0.0201699833156
0.0085 -0.0065 0.00714569192624
0.0085 -0.0055 0.00355244279049
0.0085 -0.0045 0.00236727563381
0.0085 -0.0035 0.00131384098355
0.0085 -0.0025 0.000788661007686
0.0085 -0.0015 0.000599207263532
0.0085 -0.0005 0.000615657677405
0.0085 0.0005 0.000852993208098
0.0085 0.0015 0.00174954543295
0.0085 0.0025 0.00446558374747
0.0085 0.0035 0.00982643596327
0.0085 0.0045 0.0157282659203
0.0085 0.0055 0.0183021374421
0.0085 0.0065 0.016145597619
0.0085 0.0075 0.011083726832
0.0085 0.0085 0.00607193771822
0.0085 0.0095 0.00282312018909
0.0085 0.0105 0.00122262972003
0.0085 0.0115 0.000505635257022
0.0085 0.0125 0.000194880246457
0.0085 0.0135 8.2073084077e-05
0.0085 0.0145 4.25834161351e-05
0.0085 0.0155 2.4943213179e-05
0.0085 0.0165 1.59287215446e-05
0.0085 0.0175 1.07837993893e-05
0.0085 0.0185 7.97581685161e-06
0.0085 0.0195 6.53301736814e-06
0.0085 0.0205 5.82942537329e-06
0.0085 0.0215 5.52201164926e-06
0.0085 0.0225 5.41959684596e-06
0.0085 0.0235 5.40459737081e-06
0.0085 0.0245 5.39715444557e-06
0.0085 0.0255 5.34161160454e-06
0.0085 0.0265 5.21142822952e-06
0.0085 0.0275 4.99070282144e-06
0.0085 0.0285 4.77443771062e-06
0.0085 0.0295 4.45902564793e-06
0.0085 0.0305 5.27554637187e-06
0.0085 0.0315 3.21496639646e-06
0.0095 -0.0315 1.95077137772e-06
0.0095 -0.0305 3.94986775421e-06
0.0095 -0.0295 4.80245344302e-06
0.0095 -0.0285 5.82113050346e-06
0.0095 -0.0275 6.6279414767e-06
0.0095 -0.0265 7.27850184098e-06
0.0095 -0.0255 7.79417057757e-06
0.0095 -0.0245 8.27714572593e-06
0.0095 -0.0235 8.98629892347e-06
0.0095 -0.0225 1.05567867872e-05
0.0095 -0.0215 1.44588429286e-05
0.0095 -0.0205 2.40051895786e-05
0.0095 -0.0195 4.77465142685e-05
0.0095 -0.0185 0.000107207557659
0.0095 -0.0175 0.000239514590991
0.0095 -0.0165 0.00104344285596
0.0095 -0.0155 0.00164461870076
0.0095 -0.0145 0.0062825171391
0.0095 -0.0135 0.0199213035965
0.0095 -0.0125 0.0347616009681
0.0095 -0.0115 0.0444741111193
0.0095 -0.0105 0.0461130907731
0.0095 -0.0095 0.0384728932883
0.0095 -0.0085 0.0235683932556
0.0095 -0.0075 0.00927822280376
0.0095 -0.0065 0.00249777338871
0.0095 -0.0055 0.000923815686051
0.0095 -0.0045 0.000534741245922
0.0095 -0.0035 0.0004038594492
0.0095 -0.0025 0.000290101662722
0.0095 -0.0015 0.000258767064696
0.0095 -0.0005 0.000298020060771
0.0095 0.0005 0.000422807333478
0.0095 0.0015 0.000823390011387
0.0095 0.0025 0.00209102395638
0.0095 0.0035 0.00536653368903
0.0095 0.0045 0.0108861721983
0.0095 0.0055 0.0161507228707
0.0095 0.0065 0.0180886556287
0.0095 0.0075 0.0159322661735
0.0095 0.0085 0.0112039354493
0.0095 0.0095 0.00632975070128
0.0095 0.0105 0.00298196993182
0.0095 0.0115 0.00128120075219
0.0095 0.0125 0.000527547074808
0.0095 0.0135 0.000205353422431
0.0095 0.0145 9.06257800706e-05
0.0095 0.0155 4.89637710203e-05
0.0095 0.0165 2.68963281548e-05
0.0095 0.0175 1.55602297996e-05
0.0095 0.0185 1.00585588964e-05
0.0095 0.0195 7.38454600436e-06
0.0095 0.0205 6.13303167584e-06
0.0095 0.0215 5.59631855445e-06
0.0095 0.0225 5.40534077282e-06
0.0095 0.0235 5.35308692109e-06
0.0095 0.0245 5.32141212853e-06
0.0095 0.0255 5.24464535443e-06
0.0095 0.0265 5.1003954499e-06
0.0095 0.0275 4.88008424775e-06
0.0095 0.0285 4.68830669389e-06
0.0095 0.0295 4.41696239028e-06
0.0095 0.0305 5.35743370324e-06
0.0095 0.0315 3.3013667045e-06
0.0105 -0.0315 2.03813447183e-06
0.0105 -0.0305 4.14665239846e-06
0.0105 -0.0295 5.06453486433e-06
0.0105 -0.0285 6.14002183392e-06
0.0105 -0.0275 6.98513033143e-06
0.0105 -0.0265 7.66477130681e-06
0.0105 -0.0255 8.21881423008e-06
0.0105 -0.0245 8.79998141794e-06
0.0105 -0.0235 9.7834769438e-06
0.0105 -0.0225 1.20664029677e-05
0.0105 -0.0215 1.76517539538e-05
0.0105 -0.0205 3.09039170128e-05
0.0105 -0.0195 6.48942352417e-05
0.0105 -0.0185 0.000165021969149
0.0105 -0.0175 0.000339757326306
0.0105 -0.0165 0.00109664295797
0.0105 -0.0155 0.00546689296957
0.0105 -0.0145 0.0178773097641
0.0105 -0.0135 0.0322661287612
0.0105 -0.0125 0.0419155492502
0.0105 -0.0115 0.0440217718543
0.0105 -0.0105 0.0376016959548
0.0105 -0.0095 0.0244938526795
0.0105 -0.0085 0.0111305561158
0.0105 -0.0075 0.00343508824477
0.0105 -0.0065 0.00100059319268
0.0105 -0.0055 0.000409181869357
0.0105 -0.0045 0.000200355996498
0.0105 -0.0035 0.000138108534758
0.0105 -0.0025 0.000119893801626
0.0105 -0.0015 0.000123014967526
0.0105 -0.0005 0.000152105079998
0.0105 0.0005 0.000215608733323
0.0105 0.0015 0.000380617260992
0.0105 0.0025 0.000913133832782
0.0105 0.0035 0.00243220817604
0.0105 0.0045 0.00592249654652
0.0105 0.0055 0.0112450096178
0.0105 0.0065 0.0160604797113
0.0105 0.0075 0.0178670288566
0.0105 0.0085 0.0159743402862
0.0105 0.0095 0.011539607184
0.0105 0.0105 0.00670134759485
0.0105 0.0115 0.00320601955532
0.0105 0.0125 0.00137808155438
0.0105 0.0135 0.000582739569116
0.0105 0.0145 0.000258221371643
0.0105 0.0155 0.000119542725247
0.0105 0.0165 5.13135390381e-05
0.0105 0.0175 2.55342220736e-05
0.0105 0.0185 1.43504158012e-05
0.0105 0.0195 9.26117211246e-06
0.0105 0.0205 6.90526613198e-06
0.0105 0.0215 5.88548461987e-06
0.0105 0.0225 5.4879773647e-06
0.0105 0.0235 5.34516587509e-06
0.0105 0.0245 5.26572965117e-06
0.0105 0.0255 5.15945944611e-06
0.0105 0.0265 5.00087201364e-06
0.0105 0.0275 4.78344927951e-06
0.0105 0.0285 4.61710130062e-06
0.0105 0.0295 4.38709075267e-06
0.0105 0.0305 5.4371736319e-06
0.0105 0.0315 3.38107703221e-06
0.0115 -0.0315 2.13152687412e-06
0.0115 -0.0305 4.35076683241e-06
0.0115 -0.0295 5.32244391351e-06
0.0115 -0.0285 6.43964236601e-06
0.0115 -0.0275 7.30416599916e-06
0.0115 -0.0265 7.99689056482e-06
0.0115 -0.0255 8.58775859304e-06
0.0115 -0.0245 9.30495048505e-06
0.0115 -0.0235 1.06940309042e-05
0.0115 -0.0225 1.4024002582e-05
0.0115 -0.0215 2.22415073283e-05
0.0115 -0.0205 4.32763948315e-05
0.0115 -0.0195 9.73551714895e-05
0.0115 -0.0185 0.000316415913573
0.0115 -0.0175 0.00075799819776
0.0115 -0.0165 0.00376568082383
0.0115 -0.0155 0.0138579725161
0.0115 -0.0145 0.0281424993719
0.0115 -0.0135 0.038650551497
0.0115 -0.0125 0.0417806463945
0.0115 -0.0115 0.0366051734676
0.0115 -0.0105 0.0246036712902
0.0115 -0.0095 0.0119813204878
0.0115 -0.0085 0.00463006049335
0.0115 -0.0075 0.0017222608889
0.0115 -0.0065 0.000537730566151
0.0115 -0.0055 0.000199756659837
0.0115 -0.0045 9.81914442316e-05
0.0115 -0.0035 6.53962649379e-05
0.0115 -0.0025 5.7981932742e-05
0.0115 -0.0015 6.38113560439e-05
0.0115 -0.0005 8.25809841114e-05
0.0115 0.0005 0.000120259273506
0.0115 0.0015 0.000199553956408
0.0115 0.0025 0.000446058109803
0.0115 0.0035 0.00109059022617
0.0115 0.0045 0.00268986830146
0.0115 0.0055 0.00613942424265
0.0115 0.0065 0.0112088111348
0.0115 0.0075 0.0158137945211
0.0115 0.0085 0.0177378775052
0.0115 0.0095 0.0161935175335
0.0115 0.0105 0.0120306121043
0.0115 0.0115 0.00719610741217
0.0115 0.0125 0.00352375372733
0.0115 0.0135 0.00155509808506
0.0115 0.0145 0.000703156200847
0.0115 0.0155 0.000309000891966
0.0115 0.0165 0.000118527250429
0.0115 0.0175 4.82989908486e-05
0.0115 0.0185 2.36291354991e-05
0.0115 0.0195 1.32134491857e-05
0.0115 0.0205 8.61558900756e-06
0.0115 0.0215 6.59082070311e-06
0.0115 0.0225 5.76399754341e-06
0.0115 0.0235 5.42889901221e-06
0.0115 0.0245 5.25362097181e-06
0.0115 0.0255 5.0972181825e-06
0.0115 0.0265 4.91746406192e-06
0.0115 0.0275 4.70203078666e-06
0.0115 0.0285 4.56068325271e-06
0.0115 0.0295 4.36917952812e-06
0.0115 0.0305 5.5180115976e-06
0.0115 0.0315 3.45741504269e-06
0.0125 -0.0315 2.2315427445e-06
0.0125 -0.0305 4.56231166965e-06
0.0125 -0.0295 5.57572156088e-06
0.0125 -0.0285 6.72072044625e-06
0.0125 -0.0275 7.58852285647e-06
0.0125 -0.0265 8.28337986523e-06
0.0125 -0.0255 8.92206134374e-06
0.0125 -0.0245 9.84393093836e-06
0.0125 -0.0235 1.18618795949e-05
0.0125 -0.0225 1.68619920063e-05
0.0125 -0.0215 2.94060187344e-05
0.0125 -0.0205 6.57073787647e-05
0.0125 -0.0195 0.000193394845171
0.0125 -0.0185 0.000644157605468
0.0125 -0.0175 0.00214624023124
0.0125 -0.0165 0.00895039629385
0.0125 -0.0155 0.0222769271206
0.0125 -0.0145 0.0345778603849
0.0125 -0.0135 0.0397902730651
0.0125 -0.0125 0.0365805502215
0.0125 -0.0115 0.0258384470834
0.0125 -0.0105 0.01307950281
0.0125 -0.0095 0.00512434282886
0.0125 -0.0085 0.00216686889753
0.0125 -0.0075 0.000895506296808
0.0125 -0.0065 0.000289467470999
0.0125 -0.0055 0.000116573564199
0.0125 -0.0045 5.82171886332e-05
0.0125 -0.0035 3.8723787089e-05
0.0125 -0.0025 3.39794420642e-05
0.0125 -0.0015 3.72515710556e-05
0.0125 -0.0005 4.8116522928e-05
0.0125 0.0005 7.0763889211e-05
0.0125 0.0015 0.000119240783985
0.0125 0.0025 0.000234537125859
0.0125 0.0035 0.000506362698429
0.0125 0.0045 0.00116166002572
0.0125 0.0055 0.00276387817935
0.0125 0.0065 0.00609961312832
0.0125 0.0075 0.0109491761204
0.0125 0.0085 0.015497649047
0.0125 0.0095 0.017675354142
0.0125 0.0105 0.0165351227472
0.0125 0.0115 0.012641787207
0.0125 0.0125 0.00778841609014
0.0125 0.0135 0.00391532001536
0.0125 0.0145 0.00174804074609
0.0125 0.0155 0.000761005998841
0.0125 0.0165 0.000308238362019
0.0125 0.0175 0.000113884942392
0.0125 0.0185 4.55942807445e-05
0.0125 0.0195 2.17848144127e-05
0.0125 0.0205 1.20055849574e-05
0.0125 0.0215 8.00635932231e-06
0.0125 0.0225 6.36026987956e-06
0.0125 0.0235 5.65404916384e-06
0.0125 0.0245 5.30428628378e-06
0.0125 0.0255 5.06550723978e-06
0.0125 0.0265 4.85422876434e-06
0.0125 0.0275 4.63929629377e-06
0.0125 0.0285 4.52207109378e-06
0.0125 0.0295 4.36519000394e-06
0.0125 0.0305 5.60485849279e-06
0.0125 0.0315 3.53463242723e-06
0.0135 -0.0315 2.33893287364e-06
0.0135 -0.0305 4.78233883923e-06
0.0135 -0.0295 5.8257852749e-06
0.0135 -0.0285 6.98682559391e-06
0.0135 -0.0275 7.84609916377e-06
0.0135 -0.0265 8.53897193146e-06
0.0135 -0.0255 9.24726654189e-06
0.0135 -0.0245 1.04653382729e-05
0.0135 -0.0235 1.33967275962e-05
0.0135 -0.0225 2.09907410665e-05
0.0135 -0.0215 4.1835158577e-05
0.0135 -0.0205 0.000103005568532
0.0135 -0.0195 0.00037379866475
0.0135 -0.0185 0.00122999077102
0.0135 -0.0175 0.00480016908959
0.0135 -0.0165 0.0150590256602
0.0135 -0.0155 0.0289309078797
0.0135 -0.0145 0.0375564779754
0.0135 -0.0135 0.0374143114709
0.0135 -0.0125 0.0288016668232
0.0135 -0.0115 0.0157727659267
0.0135 -0.0105 0.00614665044713
0.0135 -0.0095 0.00230976420661
0.0135 -0.0085 0.00100400822222
0.0135 -0.0075 0.000376478183077
0.0135 -0.0065 0.000148675950473
0.0135 -0.0055 6.69342815903e-05
0.0135 -0.0045 3.75997409575e-05
0.0135 -0.0035 2.66169292496e-05
0.0135 -0.0025 2.34239222128e-05
0.0135 -0.0015 2.4684835231e-05
0.0135 -0.0005 3.025796052e-05
0.0135 0.0005 4.26967295755e-05
0.0135 0.0015 6.73019261263e-05
0.0135 0.0025 0.000112102100547
0.0135 0.0035 0.000212745904357
0.0135 0.0045 0.000485337247684
0.0135 0.0055 0.00114965018896
0.0135 0.0065 0.00270228403624
0.0135 0.0075 0.00585594472358
0.0135 0.0085 0.0105062130191
0.0135 0.0095 0.0151037196322
0.0135 0.0105 0.0176220159385
0.0135 0.0115 0.0168830690302
0.0135 0.0125 0.0132011241618
0.0135 0.0135 0.0082804061216
0.0135 0.0145 0.00417407076417
0.0135 0.0155 0.00181038999035
0.0135 0.0165 0.000748836115345
0.0135 0.0175 0.000292766443016
0.0135 0.0185 0.000105287376242
0.0135 0.0195 3.93401727741e-05
0.0135 0.0205 1.83116874602e-05
0.0135 0.0215 1.06483983566e-05
0.0135 0.0225 7.45532437498e-06
0.0135 0.0235 6.08746474278e-06
0.0135 0.0245 5.44462619657e-06
0.0135 0.0255 5.07774817259e-06
0.0135 0.0265 4.82204492766e-06
0.0135 0.0275 4.60505115295e-06
0.0135 0.0285 4.50841437959e-06
0.0135 0.0295 4.37857332057e-06
0.0135 0.0305 5.6971994109e-06
0.0135 0.0315 3.6112288172e-06
0.0145 -0.0315 2.45436031801e-06
0.0145 -0.0305 5.01230116707e-06
0.0145 -0.0295 6.07543957087e-06
0.0145 -0.0285 7.24405081043e-06
0.0145 -0.0275 8.08881027135e-06
0.0145 -0.0265 8.78657962931e-06
0.0145 -0.0255 9.60208504305e-06
0.0145 -0.0245 1.12310835781e-05
0.0145 -0.0235 1.53537218264e-05
0.0145 -0.0225 2.64650498039e-05
0.0145 -0.0215 6.10408231083e-05
0.0145 -0.0205 0.000186322728478
0.0145 -0.0195 0.000670490362715
0.0145 -0.0185 0.00221578971839
0.0145 -0.0175 0.00823765266042
0.0145 -0.0165 0.0209716127844
0.0145 -0.0155 0.0335087623286
0.0145 -0.0145 0.0380032550981
0.0145 -0.0135 0.0330063089144
0.0145 -0.0125 0.0208335842177
0.0145 -0.0115 0.00881996744081
0.0145 -0.0105 0.00291649923598
0.0145 -0.0095 0.00116833358645
0.0145 -0.0085 0.000434135347576
0.0145 -0.0075 0.000152207882256
0.0145 -0.0065 7.14019101301e-05
0.0145 -0.0055 3.83887696555e-05
0.0145 -0.0045 2.48850592711e-05
0.0145 -0.0035 1.94942219122e-05
0.0145 -0.0025 1.77337134986e-05
0.0145 -0.0015 1.80825870245e-05
0.0145 -0.0005 2.05774071608e-05