% Model:              Benchmark260518细网格.mph
% Version:            COMSOL 6.2.0.339
% Date:               May 25 2026, 22:01
% Dimension:          2
% Nodes:              4096
% Expressions:        1
% Description:        速度大小
% Length unit:        m
% x                       y                        spf.U (m/s)
% mirrored_by_python_y_to_minus_y, coord_match_decimals=12
0.0005 -0.0315 4.37348937279e-06
0.0005 -0.0305 6.11502162536e-06
0.0005 -0.0295 7.22657018378e-06
0.0005 -0.0285 7.81626330748e-06
0.0005 -0.0275 8.25777324675e-06
0.0005 -0.0265 8.60199358573e-06
0.0005 -0.0255 8.9513914496e-06
0.0005 -0.0245 9.2155993638e-06
0.0005 -0.0235 9.52933964691e-06
0.0005 -0.0225 9.84616432732e-06
0.0005 -0.0215 1.01222741708e-05
0.0005 -0.0205 1.05250276994e-05
0.0005 -0.0195 1.08614776737e-05
0.0005 -0.0185 1.12488052433e-05
0.0005 -0.0175 1.15354921916e-05
0.0005 -0.0165 1.19203062796e-05
0.0005 -0.0155 1.32085925417e-05
0.0005 -0.0145 2.3765294236e-05
0.0005 -0.0135 7.90942262609e-05
0.0005 -0.0125 0.000188515598742
0.0005 -0.0115 0.000172212557266
0.0005 -0.0105 0.000561839403493
0.0005 -0.0095 0.0112051400213
0.0005 -0.0085 0.0436514356721
0.0005 -0.0075 0.0626696529362
0.0005 -0.0065 0.0554678231395
0.0005 -0.0055 0.00381127241748
0.0005 -0.0045 0.0025467127242
0.0005 -0.0035 0.0012883686584
0.0005 -0.0025 0.000351974234791
0.0005 -0.0015 5.03136862142e-05
0.0005 -0.0005 1.38907449627e-05
0.0005 0.0005 5.56625963624e-06
0.0005 0.0015 3.21352481599e-06
0.0005 0.0025 2.5650979425e-06
0.0005 0.0035 2.40965961098e-06
0.0005 0.0045 2.41177123651e-06
0.0005 0.0055 2.46581350126e-06
0.0005 0.0065 2.57796984019e-06
0.0005 0.0075 2.72539467966e-06
0.0005 0.0085 2.8237466537e-06
0.0005 0.0095 2.86260270583e-06
0.0005 0.0105 2.91544151937e-06
0.0005 0.0115 2.92585154452e-06
0.0005 0.0125 2.93520957028e-06
0.0005 0.0135 2.94215436026e-06
0.0005 0.0145 2.93020236567e-06
0.0005 0.0155 2.92821901526e-06
0.0005 0.0165 2.91783436562e-06
0.0005 0.0175 2.90499319682e-06
0.0005 0.0185 2.88535732976e-06
0.0005 0.0195 2.87289029329e-06
0.0005 0.0205 2.82697651924e-06
0.0005 0.0215 2.80943851439e-06
0.0005 0.0225 2.76455993175e-06
0.0005 0.0235 2.70154193001e-06
0.0005 0.0245 2.64537098438e-06
0.0005 0.0255 2.56661137086e-06
0.0005 0.0265 2.47104214857e-06
0.0005 0.0275 2.34920296007e-06
0.0005 0.0285 2.20183638728e-06
0.0005 0.0295 2.01790349066e-06
0.0005 0.0305 1.8544987762e-06
0.0005 0.0315 1.44688280517e-06
0.0015 -0.0315 5.87781014928e-06
0.0015 -0.0305 7.12576895659e-06
0.0015 -0.0295 7.40517701899e-06
0.0015 -0.0285 7.3051387575e-06
0.0015 -0.0275 7.23412744717e-06
0.0015 -0.0265 7.24332592011e-06
0.0015 -0.0255 7.31855905631e-06
0.0015 -0.0245 7.43750164508e-06
0.0015 -0.0235 7.59120868197e-06
0.0015 -0.0225 7.77661981796e-06
0.0015 -0.0215 7.98679935549e-06
0.0015 -0.0205 8.22250916429e-06
0.0015 -0.0195 8.45957547797e-06
0.0015 -0.0185 8.72203608826e-06
0.0015 -0.0175 9.01071950054e-06
0.0015 -0.0165 9.5163361236e-06
0.0015 -0.0155 1.17245292333e-05
0.0015 -0.0145 2.25762459247e-05
0.0015 -0.0135 6.3308462124e-05
0.0015 -0.0125 0.000125624748052
0.0015 -0.0115 0.000319755922824
0.0015 -0.0105 0.000752127909944
0.0015 -0.0095 0.00667272169523
0.0015 -0.0085 0.0345681386145
0.0015 -0.0075 0.0591871974567
0.0015 -0.0065 0.0617959675323
0.0015 -0.0055 0.0228537083792
0.0015 -0.0045 0.00276504679698
0.0015 -0.0035 0.00377851461331
0.0015 -0.0025 0.00162500462606
0.0015 -0.0015 0.000317517714478
0.0015 -0.0005 6.74755089125e-05
0.0015 0.0005 1.86140351599e-05
0.0015 0.0015 8.2808793512e-06
0.0015 0.0025 5.33164255838e-06
0.0015 0.0035 4.29133043472e-06
0.0015 0.0045 3.76893426484e-06
0.0015 0.0055 3.39706791856e-06
0.0015 0.0065 3.13124511257e-06
0.0015 0.0075 2.94244730213e-06
0.0015 0.0085 2.8098981569e-06
0.0015 0.0095 2.72069856861e-06
0.0015 0.0105 2.65487871272e-06
0.0015 0.0115 2.60803054703e-06
0.0015 0.0125 2.57277407534e-06
0.0015 0.0135 2.54704772893e-06
0.0015 0.0145 2.52853577027e-06
0.0015 0.0155 2.51423651839e-06
0.0015 0.0165 2.50237283176e-06
0.0015 0.0175 2.49247967957e-06
0.0015 0.0185 2.48367128108e-06
0.0015 0.0195 2.47402377444e-06
0.0015 0.0205 2.46614518804e-06
0.0015 0.0215 2.45764552053e-06
0.0015 0.0225 2.45095095977e-06
0.0015 0.0235 2.44547059699e-06
0.0015 0.0245 2.44358415626e-06
0.0015 0.0255 2.44939216713e-06
0.0015 0.0265 2.46412250542e-06
0.0015 0.0275 2.49282850899e-06
0.0015 0.0285 2.53573992806e-06
0.0015 0.0295 2.57397839351e-06
0.0015 0.0305 2.45056357016e-06
0.0015 0.0315 1.87311855409e-06
0.0025 -0.0315 6.80734648401e-06
0.0025 -0.0305 7.27319196556e-06
0.0025 -0.0295 8.0062866823e-06
0.0025 -0.0285 8.0654457296e-06
0.0025 -0.0275 7.96692200084e-06
0.0025 -0.0265 7.8993386036e-06
0.0025 -0.0255 7.90126170349e-06
0.0025 -0.0245 7.96550263605e-06
0.0025 -0.0235 8.08549580789e-06
0.0025 -0.0225 8.24635853243e-06
0.0025 -0.0215 8.4474729912e-06
0.0025 -0.0205 8.68431200184e-06
0.0025 -0.0195 8.96161517079e-06
0.0025 -0.0185 9.29962629726e-06
0.0025 -0.0175 9.74164297977e-06
0.0025 -0.0165 1.04959992557e-05
0.0025 -0.0155 1.24897352008e-05
0.0025 -0.0145 1.93614680641e-05
0.0025 -0.0135 3.89505238804e-05
0.0025 -0.0125 6.93123981797e-05
0.0025 -0.0115 0.0001583707967
0.0025 -0.0105 0.000612602932479
0.0025 -0.0095 0.00257267106862
0.0025 -0.0085 0.0226267158302
0.0025 -0.0075 0.0508727611949
0.0025 -0.0065 0.06333585398
0.0025 -0.0055 0.0472390926464
0.0025 -0.0045 0.0130654297234
0.0025 -0.0035 0.00390034492892
0.0025 -0.0025 0.00418304062498
0.0025 -0.0015 0.00124607504836
0.0025 -0.0005 0.000230106472697
0.0025 0.0005 4.42420744908e-05
0.0025 0.0015 1.48690467822e-05
0.0025 0.0025 7.77922077873e-06
0.0025 0.0035 5.74524711599e-06
0.0025 0.0045 4.95051030193e-06
0.0025 0.0055 4.38635160676e-06
0.0025 0.0065 3.92439977192e-06
0.0025 0.0075 3.54951816954e-06
0.0025 0.0085 3.25287131295e-06
0.0025 0.0095 3.03031484769e-06
0.0025 0.0105 2.86770236535e-06
0.0025 0.0115 2.75880434326e-06
0.0025 0.0125 2.68652598263e-06
0.0025 0.0135 2.64301491589e-06
0.0025 0.0145 2.6187555513e-06
0.0025 0.0155 2.60685859824e-06
0.0025 0.0165 2.60340942448e-06
0.0025 0.0175 2.60489039641e-06
0.0025 0.0185 2.61013239493e-06
0.0025 0.0195 2.61804677367e-06
0.0025 0.0205 2.629062569e-06
0.0025 0.0215 2.64372838401e-06
0.0025 0.0225 2.66317339432e-06
0.0025 0.0235 2.68976278652e-06
0.0025 0.0245 2.72598915292e-06
0.0025 0.0255 2.77591532652e-06
0.0025 0.0265 2.84187443838e-06
0.0025 0.0275 2.92150529042e-06
0.0025 0.0285 2.99029694742e-06
0.0025 0.0295 2.96790726322e-06
0.0025 0.0305 2.5801807696e-06
0.0025 0.0315 1.99538556777e-06
0.0035 -0.0315 7.4506631196e-06
0.0035 -0.0305 7.09548555931e-06
0.0035 -0.0295 7.94842068687e-06
0.0035 -0.0285 8.392531786e-06
0.0035 -0.0275 8.52846325822e-06
0.0035 -0.0265 8.54658301693e-06
0.0035 -0.0255 8.57152278245e-06
0.0035 -0.0245 8.63570106448e-06
0.0035 -0.0235 8.7502527262e-06
0.0035 -0.0225 8.90730629648e-06
0.0035 -0.0215 9.11309757145e-06
0.0035 -0.0205 9.37213215754e-06
0.0035 -0.0195 9.70328180323e-06
0.0035 -0.0185 1.01490790272e-05
0.0035 -0.0175 1.07436677793e-05
0.0035 -0.0165 1.15961451383e-05
0.0035 -0.0155 1.30780810288e-05
0.0035 -0.0145 1.68263639379e-05
0.0035 -0.0135 2.76923842542e-05
0.0035 -0.0125 5.06143084992e-05
0.0035 -0.0115 9.30886928441e-05
0.0035 -0.0105 0.000190507767952
0.0035 -0.0095 0.00100289440921
0.0035 -0.0085 0.0107803058214
0.0035 -0.0075 0.0357300078671
0.0035 -0.0065 0.0585394802258
0.0035 -0.0055 0.0603948413957
0.0035 -0.0045 0.0398478301467
0.0035 -0.0035 0.0103615966438
0.0035 -0.0025 0.00355796723592
0.0035 -0.0015 0.00369568832569
0.0035 -0.0005 0.000868400962714
0.0035 0.0005 0.000110484368578
0.0035 0.0015 2.54995015261e-05
0.0035 0.0025 1.00544475e-05
0.0035 0.0035 6.6362477962e-06
0.0035 0.0045 5.69240753263e-06
0.0035 0.0055 5.09978578799e-06
0.0035 0.0065 4.56114943438e-06
0.0035 0.0075 4.06668752699e-06
0.0035 0.0085 3.63957991336e-06
0.0035 0.0095 3.30383757032e-06
0.0035 0.0105 3.05387804721e-06
0.0035 0.0115 2.89033462463e-06
0.0035 0.0125 2.78650110144e-06
0.0035 0.0135 2.7304472595e-06
0.0035 0.0145 2.70575902812e-06
0.0035 0.0155 2.70123522708e-06
0.0035 0.0165 2.71018921496e-06
0.0035 0.0175 2.72686934046e-06
0.0035 0.0185 2.74901613038e-06
0.0035 0.0195 2.77519752785e-06
0.0035 0.0205 2.80531437937e-06
0.0035 0.0215 2.84010861761e-06
0.0035 0.0225 2.88076673386e-06
0.0035 0.0235 2.92973266652e-06
0.0035 0.0245 2.98847608124e-06
0.0035 0.0255 3.05809429837e-06
0.0035 0.0265 3.13322168275e-06
0.0035 0.0275 3.19672633433e-06
0.0035 0.0285 3.19010241691e-06
0.0035 0.0295 3.02478718249e-06
0.0035 0.0305 2.54719093256e-06
0.0035 0.0315 2.07377040903e-06
0.0045 -0.0315 7.9577119376e-06
0.0045 -0.0305 6.93949914095e-06
0.0045 -0.0295 7.68920087192e-06
0.0045 -0.0285 8.3589990666e-06
0.0045 -0.0275 8.76416035434e-06
0.0045 -0.0265 8.96268360052e-06
0.0045 -0.0255 9.08482019644e-06
0.0045 -0.0245 9.19776170919e-06
0.0045 -0.0235 9.33500389484e-06
0.0045 -0.0225 9.5050028638e-06
0.0045 -0.0215 9.72337753393e-06
0.0045 -0.0205 1.0006230527e-05
0.0045 -0.0195 1.03848616119e-05
0.0045 -0.0185 1.09131640928e-05
0.0045 -0.0175 1.16109609737e-05
0.0045 -0.0165 1.25290459287e-05
0.0045 -0.0155 1.37612979372e-05
0.0045 -0.0145 1.59295536798e-05
0.0045 -0.0135 2.15058709568e-05
0.0045 -0.0125 3.49012516949e-05
0.0045 -0.0115 6.81955600458e-05
0.0045 -0.0105 0.000150579607526
0.0045 -0.0095 0.000573367232805
0.0045 -0.0085 0.00342822985591
0.0045 -0.0075 0.0175541087924
0.0045 -0.0065 0.0442589908451
0.0045 -0.0055 0.0614256708931
0.0045 -0.0045 0.0592196046249
0.0045 -0.0035 0.0373706211181
0.0045 -0.0025 0.00914997065837
0.0045 -0.0015 0.00480472898306
0.0045 -0.0005 0.00214159023466
0.0045 0.0005 0.000270333930986
0.0045 0.0015 3.9003316836e-05
0.0045 0.0025 1.20360927058e-05
0.0045 0.0035 7.30781160636e-06
0.0045 0.0045 6.25408863121e-06
0.0045 0.0055 5.67300721477e-06
0.0045 0.0065 5.07990127778e-06
0.0045 0.0075 4.48485528996e-06
0.0045 0.0085 3.95182124779e-06
0.0045 0.0095 3.52977429304e-06
0.0045 0.0105 3.21614951765e-06
0.0045 0.0115 3.01502863366e-06
0.0045 0.0125 2.89057200393e-06
0.0045 0.0135 2.82833608329e-06
0.0045 0.0145 2.80671705657e-06
0.0045 0.0155 2.8114090373e-06
0.0045 0.0165 2.83338561767e-06
0.0045 0.0175 2.86500877246e-06
0.0045 0.0185 2.90288985179e-06
0.0045 0.0195 2.94487237242e-06
0.0045 0.0205 2.99037871632e-06
0.0045 0.0215 3.039803843e-06
0.0045 0.0225 3.09415505637e-06
0.0045 0.0235 3.15458427521e-06
0.0045 0.0245 3.22053931273e-06
0.0045 0.0255 3.28753954958e-06
0.0045 0.0265 3.34067221763e-06
0.0045 0.0275 3.35037251529e-06
0.0045 0.0285 3.25122102078e-06
0.0045 0.0295 2.99900146674e-06
0.0045 0.0305 2.51939526462e-06
0.0045 0.0315 2.14445887833e-06
0.0055 -0.0315 8.48631861965e-06
0.0055 -0.0305 6.84111886413e-06
0.0055 -0.0295 7.41864807726e-06
0.0055 -0.0285 8.13782160392e-06
0.0055 -0.0275 8.70612328733e-06
0.0055 -0.0265 9.09190341137e-06
0.0055 -0.0255 9.3579275476e-06
0.0055 -0.0245 9.56613796652e-06
0.0055 -0.0235 9.7595301596e-06
0.0055 -0.0225 9.96407214397e-06
0.0055 -0.0215 1.02039541764e-05
0.0055 -0.0205 1.05052851589e-05
0.0055 -0.0195 1.09046713054e-05
0.0055 -0.0185 1.14559387046e-05
0.0055 -0.0175 1.21754925712e-05
0.0055 -0.0165 1.31147694803e-05
0.0055 -0.0155 1.43056372529e-05
0.0055 -0.0145 1.60048729953e-05
0.0055 -0.0135 1.92047940012e-05
0.0055 -0.0125 2.59544270717e-05
0.0055 -0.0115 4.39472113953e-05
0.0055 -0.0105 9.00524468999e-05
0.0055 -0.0095 0.000247216584344
0.0055 -0.0085 0.0010618483882
0.0055 -0.0075 0.00542676407344
0.0055 -0.0065 0.0210078308983
0.0055 -0.0055 0.0471012807999
0.0055 -0.0045 0.0616658012515
0.0055 -0.0035 0.05657361765
0.0055 -0.0025 0.0330374681233
0.0055 -0.0015 0.00567846599869
0.0055 -0.0005 0.00267384405763
0.0055 0.0005 0.00040480060768
0.0055 0.0015 4.7586872051e-05
0.0055 0.0025 1.43095112233e-05
0.0055 0.0035 8.19990350599e-06
0.0055 0.0045 6.78477522554e-06
0.0055 0.0055 6.07655033364e-06
0.0055 0.0065 5.38950759963e-06
0.0055 0.0075 4.71178495935e-06
0.0055 0.0085 4.11997541906e-06
0.0055 0.0095 3.66323822072e-06
0.0055 0.0105 3.33051155478e-06
0.0055 0.0115 3.12255856983e-06
0.0055 0.0125 2.99703868816e-06
0.0055 0.0135 2.93921159313e-06
0.0055 0.0145 2.92572030121e-06
0.0055 0.0155 2.94141138733e-06
0.0055 0.0165 2.97593064643e-06
0.0055 0.0175 3.02061328824e-06
0.0055 0.0185 3.07085831802e-06
0.0055 0.0195 3.12392913943e-06
0.0055 0.0205 3.17859801632e-06
0.0055 0.0215 3.23466757681e-06
0.0055 0.0225 3.29262196246e-06
0.0055 0.0235 3.35121566234e-06
0.0055 0.0245 3.40755322343e-06
0.0055 0.0255 3.45108383918e-06
0.0055 0.0265 3.46169568188e-06
0.0055 0.0275 3.41029416121e-06
0.0055 0.0285 3.25171644023e-06
0.0055 0.0295 2.97121070875e-06
0.0055 0.0305 2.51652794602e-06
0.0055 0.0315 2.21162224698e-06
0.0065 -0.0315 8.78052232266e-06
0.0065 -0.0305 6.77888315878e-06
0.0065 -0.0295 7.19185890781e-06
0.0065 -0.0285 7.89045913131e-06
0.0065 -0.0275 8.53613915106e-06
0.0065 -0.0265 9.06081066119e-06
0.0065 -0.0255 9.46820204356e-06
0.0065 -0.0245 9.79187336299e-06
0.0065 -0.0235 1.00651691293e-05
0.0065 -0.0225 1.03229259798e-05
0.0065 -0.0215 1.0592548807e-05
0.0065 -0.0205 1.09061529429e-05
0.0065 -0.0195 1.13005713788e-05
0.0065 -0.0185 1.18277135443e-05
0.0065 -0.0175 1.25129436214e-05
0.0065 -0.0165 1.34315947377e-05
0.0065 -0.0155 1.46254953738e-05
0.0065 -0.0145 1.62484703076e-05
0.0065 -0.0135 1.87009421515e-05
0.0065 -0.0125 2.27851434735e-05
0.0065 -0.0115 3.19485467674e-05
0.0065 -0.0105 5.39138903885e-05
0.0065 -0.0095 0.000115897932508
0.0065 -0.0085 0.00032260598874
0.0065 -0.0075 0.00121400969756
0.0065 -0.0065 0.00470467306187
0.0065 -0.0055 0.0230959373575
0.0065 -0.0045 0.0494900891054
0.0065 -0.0035 0.0609956181128
0.0065 -0.0025 0.0510601699412
0.0065 -0.0015 0.0241755209111
0.0065 -0.0005 0.0027673453068
0.0065 0.0005 0.000444925557634
0.0065 0.0015 6.22835612651e-05
0.0065 0.0025 2.02202672651e-05
0.0065 0.0035 1.00094672774e-05
0.0065 0.0045 7.43556858795e-06
0.0065 0.0055 6.31178285004e-06
0.0065 0.0065 5.46919542778e-06
0.0065 0.0075 4.73211558212e-06
0.0065 0.0085 4.13784987594e-06
0.0065 0.0095 3.70258569727e-06
0.0065 0.0105 3.39642214362e-06
0.0065 0.0115 3.21107104591e-06
0.0065 0.0125 3.10362969047e-06
0.0065 0.0135 3.06076498883e-06
0.0065 0.0145 3.06063702772e-06
0.0065 0.0155 3.08917863202e-06
0.0065 0.0165 3.13564932801e-06
0.0065 0.0175 3.19122062233e-06
0.0065 0.0185 3.25010376496e-06
0.0065 0.0195 3.30934517029e-06
0.0065 0.0205 3.36702521884e-06
0.0065 0.0215 3.42232462013e-06
0.0065 0.0225 3.4751505359e-06
0.0065 0.0235 3.52163128289e-06
0.0065 0.0245 3.55729517146e-06
0.0065 0.0255 3.56785634665e-06
0.0065 0.0265 3.53447106274e-06
0.0065 0.0275 3.43609185374e-06
0.0065 0.0285 3.2457654861e-06
0.0065 0.0295 2.95987833062e-06
0.0065 0.0305 2.53166722903e-06
0.0065 0.0315 2.27775162684e-06
0.0075 -0.0315 9.11014475994e-06
0.0075 -0.0305 6.74956602844e-06
0.0075 -0.0295 7.01292432734e-06
0.0075 -0.0285 7.66309304688e-06
0.0075 -0.0275 8.33180406032e-06
0.0075 -0.0265 8.94191588193e-06
0.0075 -0.0255 9.46377274352e-06
0.0075 -0.0245 9.90259600051e-06
0.0075 -0.0235 1.02702582768e-05
0.0075 -0.0225 1.05969619725e-05
0.0075 -0.0215 1.09040434035e-05
0.0075 -0.0205 1.12232102253e-05
0.0075 -0.0195 1.15870044098e-05
0.0075 -0.0185 1.20448897701e-05
0.0075 -0.0175 1.26382003072e-05
0.0075 -0.0165 1.34710898957e-05
0.0075 -0.0155 1.46226077031e-05
0.0075 -0.0145 1.62583105718e-05
0.0075 -0.0135 1.86407885992e-05
0.0075 -0.0125 2.21511977612e-05
0.0075 -0.0115 2.83083905523e-05
0.0075 -0.0105 4.02178186536e-05
0.0075 -0.0095 6.89468305031e-05
0.0075 -0.0085 0.000153294127728
0.0075 -0.0075 0.000413008047972
0.0075 -0.0065 0.00125230202504
0.0075 -0.0055 0.00646440944947
0.0075 -0.0045 0.0270812346307
0.0075 -0.0035 0.0529189031762
0.0075 -0.0025 0.0572319049442
0.0075 -0.0015 0.0409308233419
0.0075 -0.0005 0.0119651878461
0.0075 0.0005 0.000738239863137
0.0075 0.0015 0.000158688871612
0.0075 0.0025 3.50669699908e-05
0.0075 0.0035 1.29643850663e-05
0.0075 0.0045 8.03139668093e-06
0.0075 0.0055 6.23611797696e-06
0.0075 0.0065 5.23253326083e-06
0.0075 0.0075 4.50365994991e-06
0.0075 0.0085 3.99012668385e-06
0.0075 0.0095 3.64411178684e-06
0.0075 0.0105 3.41387366851e-06
0.0075 0.0115 3.28229874337e-06
0.0075 0.0125 3.21339075746e-06
0.0075 0.0135 3.1973500619e-06
0.0075 0.0145 3.21690386031e-06
0.0075 0.0155 3.26060743098e-06
0.0075 0.0165 3.31813838786e-06
0.0075 0.0175 3.38150552003e-06
0.0075 0.0185 3.44389599227e-06
0.0075 0.0195 3.50283961526e-06
0.0075 0.0205 3.55592047492e-06
0.0075 0.0215 3.60199057142e-06
0.0075 0.0225 3.64064809353e-06
0.0075 0.0235 3.66607833828e-06
0.0075 0.0245 3.67385562287e-06
0.0075 0.0255 3.64965105764e-06
0.0075 0.0265 3.58001655447e-06
0.0075 0.0275 3.45176787554e-06
0.0075 0.0285 3.24780290514e-06
0.0075 0.0295 2.96660954738e-06
0.0075 0.0305 2.56163307066e-06
0.0075 0.0315 2.34556054141e-06
0.0085 -0.0315 9.56191880327e-06
0.0085 -0.0305 6.74592285603e-06
0.0085 -0.0295 6.87430684853e-06
0.0085 -0.0285 7.47220302236e-06
0.0085 -0.0275 8.1416736013e-06
0.0085 -0.0265 8.80408302859e-06
0.0085 -0.0255 9.41194811081e-06
0.0085 -0.0245 9.95140658222e-06
0.0085 -0.0235 1.04138889772e-05
0.0085 -0.0225 1.08164187592e-05
0.0085 -0.0215 1.11663513281e-05
0.0085 -0.0205 1.14887514857e-05
0.0085 -0.0195 1.18080874117e-05
0.0085 -0.0185 1.2168758648e-05
0.0085 -0.0175 1.26268436442e-05
0.0085 -0.0165 1.33070111576e-05
0.0085 -0.0155 1.43304321672e-05
0.0085 -0.0145 1.58978045975e-05
0.0085 -0.0135 1.82496261182e-05
0.0085 -0.0125 2.16341682723e-05
0.0085 -0.0115 2.70004562703e-05
0.0085 -0.0105 3.6415524598e-05
0.0085 -0.0095 5.84826007973e-05
0.0085 -0.0085 0.000122449679225
0.0085 -0.0075 0.000293920553446
0.0085 -0.0065 0.000708552139641
0.0085 -0.0055 0.00205053616551
0.0085 -0.0045 0.010794786758
0.0085 -0.0035 0.0381564465053
0.0085 -0.0025 0.0557199737342
0.0085 -0.0015 0.0511107685527
0.0085 -0.0005 0.0232325010982
0.0085 0.0005 0.00280599637953
0.0085 0.0015 0.00038513695007
0.0085 0.0025 6.03381033289e-05
0.0085 0.0035 1.68840216538e-05
0.0085 0.0045 8.46668293841e-06
0.0085 0.0055 5.8302648827e-06
0.0085 0.0065 4.70854557822e-06
0.0085 0.0075 4.07370895408e-06
0.0085 0.0085 3.71787225575e-06
0.0085 0.0095 3.51586105756e-06
0.0085 0.0105 3.39916648586e-06
0.0085 0.0115 3.34584823878e-06
0.0085 0.0125 3.33242066689e-06
0.0085 0.0135 3.35379828816e-06
0.0085 0.0145 3.39901361439e-06
0.0085 0.0155 3.45987399468e-06
0.0085 0.0165 3.52692761427e-06
0.0085 0.0175 3.59404063229e-06
0.0085 0.0185 3.65376043479e-06
0.0085 0.0195 3.70514871428e-06
0.0085 0.0205 3.74579299444e-06
0.0085 0.0215 3.77487461549e-06
0.0085 0.0225 3.79222647325e-06
0.0085 0.0235 3.79144433187e-06
0.0085 0.0245 3.76951792432e-06
0.0085 0.0255 3.7143193353e-06
0.0085 0.0265 3.61741664242e-06
0.0085 0.0275 3.47030364944e-06
0.0085 0.0285 3.26053326744e-06
0.0085 0.0295 2.9864311436e-06
0.0085 0.0305 2.60322758535e-06
0.0085 0.0315 2.42986013973e-06
0.0095 -0.0315 9.80710969881e-06
0.0095 -0.0305 6.75161245838e-06
0.0095 -0.0295 6.76893239688e-06
0.0095 -0.0285 7.31954042858e-06
0.0095 -0.0275 7.98120309712e-06
0.0095 -0.0265 8.6752927783e-06
0.0095 -0.0255 9.3450551609e-06
0.0095 -0.0245 9.96589117832e-06
0.0095 -0.0235 1.05145479729e-05
0.0095 -0.0225 1.0992438291e-05
0.0095 -0.0215 1.13887046585e-05
0.0095 -0.0205 1.17163742947e-05
0.0095 -0.0195 1.19871722502e-05
0.0095 -0.0185 1.22335701007e-05
0.0095 -0.0175 1.2518597533e-05
0.0095 -0.0165 1.29707636132e-05
0.0095 -0.0155 1.37513030924e-05
0.0095 -0.0145 1.50969036855e-05
0.0095 -0.0135 1.72715281992e-05
0.0095 -0.0125 2.05539385105e-05
0.0095 -0.0115 2.62213569481e-05
0.0095 -0.0105 3.74845129624e-05
0.0095 -0.0095 6.62892575025e-05
0.0095 -0.0085 0.000143022738309
0.0095 -0.0075 0.00031111332662
0.0095 -0.0065 0.000526015536832
0.0095 -0.0055 0.000973997528017
0.0095 -0.0045 0.0043318878541
0.0095 -0.0035 0.0244041957934
0.0095 -0.0025 0.0501511243423
0.0095 -0.0015 0.0552711062765
0.0095 -0.0005 0.0329586895013
0.0095 0.0005 0.00658573424456
0.0095 0.0015 0.00078189740022
0.0095 0.0025 0.000102407032739
0.0095 0.0035 2.24634546153e-05
0.0095 0.0045 8.91809760503e-06
0.0095 0.0055 5.17150562343e-06
0.0095 0.0065 3.97457635514e-06
0.0095 0.0075 3.50663970185e-06
0.0095 0.0085 3.36541532731e-06
0.0095 0.0095 3.34574571242e-06
0.0095 0.0105 3.36890122988e-06
0.0095 0.0115 3.41263020661e-06
0.0095 0.0125 3.4688293301e-06
0.0095 0.0135 3.53703542789e-06
0.0095 0.0145 3.6131403042e-06
0.0095 0.0155 3.69213472647e-06
0.0095 0.0165 3.76577537141e-06
0.0095 0.0175 3.83098831384e-06
0.0095 0.0185 3.88044019195e-06
0.0095 0.0195 3.91609880055e-06
0.0095 0.0205 3.93632586684e-06
0.0095 0.0215 3.94149021239e-06
0.0095 0.0225 3.93224544153e-06
0.0095 0.0235 3.90294020439e-06
0.0095 0.0245 3.8524234003e-06
0.0095 0.0255 3.77124100231e-06
0.0095 0.0265 3.65407289645e-06
0.0095 0.0275 3.49454279663e-06
0.0095 0.0285 3.28223318308e-06
0.0095 0.0295 3.01500695132e-06
0.0095 0.0305 2.65369370545e-06
0.0095 0.0315 2.55097621471e-06
0.0105 -0.0315 1.00915510398e-05
0.0105 -0.0305 6.76776111339e-06
0.0105 -0.0295 6.69161003636e-06
0.0105 -0.0285 7.20346634393e-06
0.0105 -0.0275 7.85380914684e-06
0.0105 -0.0265 8.56297327555e-06
0.0105 -0.0255 9.27058714453e-06
0.0105 -0.0245 9.94871981714e-06
0.0105 -0.0235 1.05672570046e-05
0.0105 -0.0225 1.11141140166e-05
0.0105 -0.0215 1.15599999292e-05
0.0105 -0.0205 1.19013714692e-05
0.0105 -0.0195 1.21314216987e-05
0.0105 -0.0185 1.2259798946e-05
0.0105 -0.0175 1.23418422822e-05
0.0105 -0.0165 1.24822387871e-05
0.0105 -0.0155 1.28730813213e-05
0.0105 -0.0145 1.37942213682e-05
0.0105 -0.0135 1.56489498714e-05
0.0105 -0.0125 1.90809562278e-05
0.0105 -0.0115 2.68398947558e-05
0.0105 -0.0105 4.38680700469e-05
0.0105 -0.0095 8.02636434526e-05
0.0105 -0.0085 0.000141752662322
0.0105 -0.0075 0.000219017693764
0.0105 -0.0065 0.000341005919309
0.0105 -0.0055 0.000733630709432
0.0105 -0.0045 0.00223452876908
0.0105 -0.0035 0.0162312758984
0.0105 -0.0025 0.0436690407549
0.0105 -0.0015 0.0560220235123
0.0105 -0.0005 0.0399108475584
0.0105 0.0005 0.0110197361411
0.0105 0.0015 0.0014195546567
0.0105 0.0025 0.000158059363451
0.0105 0.0035 3.21133493967e-05
0.0105 0.0045 1.01426592909e-05
0.0105 0.0055 4.52522930649e-06
0.0105 0.0065 3.1774743686e-06
0.0105 0.0075 2.89162185643e-06
0.0105 0.0085 2.98817357052e-06
0.0105 0.0095 3.16860797922e-06
0.0105 0.0105 3.34603946551e-06
0.0105 0.0115 3.50012309132e-06
0.0105 0.0125 3.63730195104e-06
0.0105 0.0135 3.75984158019e-06
0.0105 0.0145 3.86990680495e-06
0.0105 0.0155 3.96515867905e-06
0.0105 0.0165 4.03927106829e-06
0.0105 0.0175 4.09393984555e-06
0.0105 0.0185 4.12338185535e-06
0.0105 0.0195 4.13404418593e-06
0.0105 0.0205 4.12600289071e-06
0.0105 0.0215 4.10157380308e-06
0.0105 0.0225 4.06252833467e-06
0.0105 0.0235 4.00470938246e-06
0.0105 0.0245 3.92822599172e-06
0.0105 0.0255 3.82562610432e-06
0.0105 0.0265 3.69284067478e-06
0.0105 0.0275 3.5241376199e-06
0.0105 0.0285 3.31004293012e-06
0.0105 0.0295 3.0483622771e-06
0.0105 0.0305 2.70892274691e-06
0.0105 0.0315 2.69104927872e-06
0.0115 -0.0315 1.04315586486e-05
0.0115 -0.0305 6.80858383906e-06
0.0115 -0.0295 6.64494387555e-06
0.0115 -0.0285 7.12449555163e-06
0.0115 -0.0275 7.75916243131e-06
0.0115 -0.0265 8.46518729895e-06
0.0115 -0.0255 9.18315890511e-06
0.0115 -0.0245 9.88916253164e-06
0.0115 -0.0235 1.05554067644e-05
0.0115 -0.0225 1.11607932862e-05
0.0115 -0.0215 1.16596861119e-05
0.0115 -0.0205 1.20276454903e-05
0.0115 -0.0195 1.22336417295e-05
0.0115 -0.0185 1.22546447207e-05
0.0115 -0.0175 1.21234885005e-05
0.0115 -0.0165 1.18918633433e-05
0.0115 -0.0155 1.17689219175e-05
0.0115 -0.0145 1.21037522694e-05
0.0115 -0.0135 1.36573244197e-05
0.0115 -0.0125 1.79598103446e-05
0.0115 -0.0115 3.00847656675e-05
0.0115 -0.0105 5.40656831289e-05
0.0115 -0.0095 8.81655286296e-05
0.0115 -0.0085 0.000130656593214
0.0115 -0.0075 0.000275390150294
0.0115 -0.0065 0.00064267905217
0.0115 -0.0055 0.00113595946318
0.0115 -0.0045 0.00155369621931
0.0115 -0.0035 0.0120918229745
0.0115 -0.0025 0.0383142354075
0.0115 -0.0015 0.055429136293
0.0115 -0.0005 0.0444106460812
0.0115 0.0005 0.0150975127227
0.0115 0.0015 0.00216996616932
0.0115 0.0025 0.000257741058422
0.0115 0.0035 5.05067742514e-05
0.0115 0.0045 1.30176284779e-05
0.0115 0.0055 4.15775722595e-06
0.0115 0.0065 2.44726530402e-06
0.0115 0.0075 2.31390946206e-06
0.0115 0.0085 2.64209499723e-06
0.0115 0.0095 3.01993836177e-06
0.0115 0.0105 3.35413222347e-06
0.0115 0.0115 3.62520747021e-06
0.0115 0.0125 3.85008745014e-06
0.0115 0.0135 4.03031381937e-06
0.0115 0.0145 4.17332024501e-06
0.0115 0.0155 4.27902921159e-06
0.0115 0.0165 4.34453598767e-06
0.0115 0.0175 4.37826816562e-06
0.0115 0.0185 4.37780134593e-06
0.0115 0.0195 4.35519389608e-06
0.0115 0.0205 4.31291448396e-06
0.0115 0.0215 4.25545206189e-06
0.0115 0.0225 4.18550569179e-06
0.0115 0.0235 4.10038516933e-06
0.0115 0.0245 4.00050898043e-06
0.0115 0.0255 3.87960068579e-06
0.0115 0.0265 3.73371601276e-06
0.0115 0.0275 3.55711040335e-06
0.0115 0.0285 3.34094412813e-06
0.0115 0.0295 3.08352633427e-06
0.0115 0.0305 2.76551866985e-06
0.0115 0.0315 2.83565893365e-06
0.0125 -0.0315 1.08391122714e-05
0.0125 -0.0305 6.87296351251e-06
0.0125 -0.0295 6.62807753765e-06
0.0125 -0.0285 7.07693600232e-06
0.0125 -0.0275 7.68265320684e-06
0.0125 -0.0265 8.35485832837e-06
0.0125 -0.0255 9.04037356519e-06
0.0125 -0.0245 9.72728453796e-06
0.0125 -0.0235 1.04034263838e-05
0.0125 -0.0225 1.10487161428e-05
0.0125 -0.0215 1.16079143729e-05
0.0125 -0.0205 1.20279049869e-05
0.0125 -0.0195 1.22448670369e-05
0.0125 -0.0185 1.21952457613e-05
0.0125 -0.0175 1.1881279246e-05
0.0125 -0.0165 1.12851818549e-05
0.0125 -0.0155 1.06144164777e-05
0.0125 -0.0145 1.03116895463e-05
0.0125 -0.0135 1.16361426789e-05
0.0125 -0.0125 1.70577561958e-05
0.0125 -0.0115 3.21598041729e-05
0.0125 -0.0105 6.30023936385e-05
0.0125 -0.0095 0.000187854009114
0.0125 -0.0085 0.000619996729841
0.0125 -0.0075 0.00137495696073
0.0125 -0.0065 0.00204316942842
0.0125 -0.0055 0.00209124632453
0.0125 -0.0045 0.00181422966659
0.0125 -0.0035 0.0106127212031
0.0125 -0.0025 0.0350195803899
0.0125 -0.0015 0.0543056044545
0.0125 -0.0005 0.0465956675987
0.0125 0.0005 0.0182110029346
0.0125 0.0015 0.00296009357698
0.0125 0.0025 0.000349313009825
0.0125 0.0035 6.87684238838e-05
0.0125 0.0045 1.57889338136e-05
0.0125 0.0055 3.81520239063e-06
0.0125 0.0065 1.81242930523e-06
0.0125 0.0075 1.90751892704e-06
0.0125 0.0085 2.42120675395e-06
0.0125 0.0095 2.96014847298e-06
0.0125 0.0105 3.4384502066e-06
0.0125 0.0115 3.82634103919e-06
0.0125 0.0125 4.14022001848e-06
0.0125 0.0135 4.37424417845e-06
0.0125 0.0145 4.54045672814e-06
0.0125 0.0155 4.64189645816e-06
0.0125 0.0165 4.68258797976e-06
0.0125 0.0175 4.68022526704e-06
0.0125 0.0185 4.63808277194e-06
0.0125 0.0195 4.57397329908e-06
0.0125 0.0205 4.49291474052e-06
0.0125 0.0215 4.4009380384e-06
0.0125 0.0225 4.3008649717e-06
0.0125 0.0235 4.19079235129e-06
0.0125 0.0245 4.07036520778e-06
0.0125 0.0255 3.9336721004e-06
0.0125 0.0265 3.77624996409e-06
0.0125 0.0275 3.59213363655e-06
0.0125 0.0285 3.3732774933e-06
0.0125 0.0295 3.11934161587e-06
0.0125 0.0305 2.82320615321e-06
0.0125 0.0315 2.97836907421e-06
0.0135 -0.0315 1.12806265449e-05
0.0135 -0.0305 6.97208159626e-06
0.0135 -0.0295 6.64723150711e-06
0.0135 -0.0285 7.05644208936e-06
0.0135 -0.0275 7.60947398175e-06
0.0135 -0.0265 8.21152539709e-06
0.0135 -0.0255 8.8203562736e-06
0.0135 -0.0245 9.4381294302e-06
0.0135 -0.0235 1.00778263293e-05
0.0135 -0.0225 1.07363240331e-05
0.0135 -0.0215 1.13641780596e-05
0.0135 -0.0205 1.18686772742e-05
0.0135 -0.0195 1.21389791543e-05
0.0135 -0.0185 1.2069797467e-05
0.0135 -0.0175 1.16495524859e-05
0.0135 -0.0165 1.0831470819e-05
0.0135 -0.0155 9.84796717888e-06
0.0135 -0.0145 9.24630434665e-06
0.0135 -0.0135 1.0266185298e-05
0.0135 -0.0125 1.36009165683e-05
0.0135 -0.0115 2.45406384453e-05
0.0135 -0.0105 0.000177216882353
0.0135 -0.0095 0.000906268940654
0.0135 -0.0085 0.00238606176223
0.0135 -0.0075 0.00360304505344
0.0135 -0.0065 0.00375387162721
0.0135 -0.0055 0.00303231474044
0.0135 -0.0045 0.0025425379147
0.0135 -0.0035 0.010584382343
0.0135 -0.0025 0.033395153526
0.0135 -0.0015 0.0531317372784
0.0135 -0.0005 0.0473492186424
0.0135 0.0005 0.0203529916011
0.0135 0.0015 0.00371008488541
0.0135 0.0025 0.00031480389593
0.0135 0.0035 5.79106692928e-05
0.0135 0.0045 1.38677825939e-05
0.0135 0.0055 2.34544878156e-06
0.0135 0.0065 1.20706004987e-06
0.0135 0.0075 1.85861344251e-06
0.0135 0.0085 2.42116261817e-06
0.0135 0.0095 3.03883749049e-06
0.0135 0.0105 3.63002768849e-06
0.0135 0.0115 4.12479655462e-06
0.0135 0.0125 4.52022454911e-06
0.0135 0.0135 4.79456587108e-06
0.0135 0.0145 4.9657447926e-06
0.0135 0.0155 5.04258376099e-06
0.0135 0.0165 5.040512347e-06
0.0135 0.0175 4.98802230657e-06
0.0135 0.0185 4.89556323326e-06
0.0135 0.0195 4.78532983225e-06
0.0135 0.0205 4.66428686386e-06
0.0135 0.0215 4.53874254473e-06
0.0135 0.0225 4.41067285672e-06
0.0135 0.0235 4.27812547466e-06
0.0135 0.0245 4.13933123463e-06
0.0135 0.0255 3.98829130421e-06
0.0135 0.0265 3.81990851473e-06
0.0135 0.0275 3.62813475827e-06
0.0135 0.0285 3.40611829591e-06
0.0135 0.0295 3.15531258869e-06
0.0135 0.0305 2.88297020311e-06
0.0135 0.0315 3.13421889866e-06
0.0145 -0.0315 1.17881704262e-05
0.0145 -0.0305 7.14282652562e-06
0.0145 -0.0295 6.72620760466e-06
0.0145 -0.0285 7.06181374448e-06
0.0145 -0.0275 7.51682776871e-06
0.0145 -0.0265 8.01095867811e-06
0.0145 -0.0255 8.50697375626e-06
0.0145 -0.0245 9.00641491657e-06
0.0145 -0.0235 9.55215125884e-06
0.0145 -0.0225 1.0191159226e-05
0.0145 -0.0215 1.09258396875e-05
0.0145 -0.0205 1.15892196415e-05
0.0145 -0.0195 1.19599511868e-05
0.0145 -0.0185 1.19042988477e-05
0.0145 -0.0175 1.14895003197e-05
0.0145 -0.0165 1.07957942689e-05
0.0145 -0.0155 1.02829466551e-05
0.0145 -0.0145 1.11578065942e-05
0.0145 -0.0135 1.57549751445e-05
0.0145 -0.0125 2.57690892627e-05
0.0145 -0.0115 5.20862058802e-05
0.0145 -0.0105 0.000617297812919
0.0145 -0.0095 0.00228870931906