% Model:              Benchmark260518.mph
% Version:            COMSOL 6.2.0.339
% Date:               May 21 2026, 15:30
% Dimension:          2
% Nodes:              4096
% Expressions:        1
% Description:        速度大小
% Length unit:        m
% x                       y                        spf.U (m/s)
5.0E-4                    -0.0315                  2.175468821797012E-6
5.0E-4                    -0.0305                  4.348194390515502E-6
5.0E-4                    -0.0295                  4.9149415019630975E-6
5.0E-4                    -0.0285                  5.626457649657416E-6
5.0E-4                    -0.0275                  6.171915892849326E-6
5.0E-4                    -0.0265                  6.80183585624417E-6
5.0E-4                    -0.0255                  7.453573859461483E-6
5.0E-4                    -0.0245                  8.115907534793203E-6
5.0E-4                    -0.0235                  8.747603521199956E-6
5.0E-4                    -0.0225                  9.351205148637182E-6
5.0E-4                    -0.0215                  1.0008759195309529E-5
5.0E-4                    -0.0205                  1.0920427637470747E-5
5.0E-4                    -0.0195                  1.2632413505423885E-5
5.0E-4                    -0.0185                  1.5716132490931993E-5
5.0E-4                    -0.0175                  2.4268252276759526E-5
5.0E-4                    -0.0165                  5.2252132646814885E-5
5.0E-4                    -0.0155                  1.3897375149950046E-4
5.0E-4                    -0.0145                  2.5170323597458274E-4
5.0E-4                    -0.0135                  2.8752129812155864E-4
5.0E-4                    -0.0125                  2.4082944485869407E-4
5.0E-4                    -0.0115                  2.2408532001282E-4
5.0E-4                    -0.0105                  4.5456563039543473E-4
5.0E-4                    -0.0095                  9.88021437186376E-4
5.0E-4                    -0.0085                  0.0017809631239778976
5.0E-4                    -0.0075                  0.0027197868842916717
5.0E-4                    -0.0065                  0.0036346867397509318
5.0E-4                    -0.0055                  0.004356026547870372
5.0E-4                    -0.0045                  0.004748071956978871
5.0E-4                    -0.0035                  0.0047401953378821355
5.0E-4                    -0.0025                  0.00433363875266635
5.0E-4                    -0.0015                  0.0035945155713727204
5.0E-4                    -5.0E-4                  0.0026436990510252576
5.0E-4                    5.0E-4                   0.0016278517936010512
5.0E-4                    0.0015                   7.28516314464137E-4
5.0E-4                    0.0025                   5.796649976710217E-4
5.0E-4                    0.0035                   9.802033320993708E-4
5.0E-4                    0.0045                   0.0011023827528822507
5.0E-4                    0.0055                   7.665256514139781E-4
5.0E-4                    0.0065                   0.0014070277155877815
5.0E-4                    0.0075                   0.0069624212439290305
5.0E-4                    0.0085                   0.02113081467653622
5.0E-4                    0.0095                   0.029837208615825225
5.0E-4                    0.0105                   0.02583393516271847
5.0E-4                    0.0115                   0.01964891442134277
5.0E-4                    0.0125                   0.012468847040022116
5.0E-4                    0.0135                   0.0062893248317263985
5.0E-4                    0.0145                   0.0020676226184807057
5.0E-4                    0.0155                   8.338390283487455E-4
5.0E-4                    0.0165                   4.795652761931936E-4
5.0E-4                    0.0175                   1.518751919120405E-4
5.0E-4                    0.0185                   6.211427354064499E-5
5.0E-4                    0.0195                   8.335201881737928E-5
5.0E-4                    0.0205                   2.729752721500178E-4
5.0E-4                    0.0215                   0.001115434125515117
5.0E-4                    0.0225                   0.0030193851305533115
5.0E-4                    0.0235                   0.002618080226980178
5.0E-4                    0.0245                   5.955508473016832E-4
5.0E-4                    0.0255                   1.4271761763441092E-4
5.0E-4                    0.0265                   5.186261199428623E-5
5.0E-4                    0.0275                   2.371177976654399E-5
5.0E-4                    0.0285                   1.5635932474336592E-5
5.0E-4                    0.0295                   1.2174848147954059E-5
5.0E-4                    0.0305                   1.040210373047899E-5
5.0E-4                    0.0315                   5.186251722172734E-6
0.0015                    -0.0315                  4.2221639671583285E-6
0.0015                    -0.0305                  8.278108021432344E-6
0.0015                    -0.0295                  8.867324359375247E-6
0.0015                    -0.0285                  9.68096322739696E-6
0.0015                    -0.0275                  1.02881003627726E-5
0.0015                    -0.0265                  1.1103482297971997E-5
0.0015                    -0.0255                  1.2055940475486792E-5
0.0015                    -0.0245                  1.309540023313742E-5
0.0015                    -0.0235                  1.4119062847277067E-5
0.0015                    -0.0225                  1.5099938683793782E-5
0.0015                    -0.0215                  1.6188907049213366E-5
0.0015                    -0.0205                  1.7848878425380953E-5
0.0015                    -0.0195                  2.1159923178711545E-5
0.0015                    -0.0185                  2.804769794481007E-5
0.0015                    -0.0175                  4.5281316248829684E-5
0.0015                    -0.0165                  9.364458188230648E-5
0.0015                    -0.0155                  2.2974942873445396E-4
0.0015                    -0.0145                  4.07003699931287E-4
0.0015                    -0.0135                  5.28758978900428E-4
0.0015                    -0.0125                  6.80783844168558E-4
0.0015                    -0.0115                  0.0012567347868600047
0.0015                    -0.0105                  0.002606943187948609
0.0015                    -0.0095                  0.004596353725484507
0.0015                    -0.0085                  0.0069693803417570435
0.0015                    -0.0075                  0.009407600622809114
0.0015                    -0.0065                  0.011565316863136279
0.0015                    -0.0055                  0.013174903598870517
0.0015                    -0.0045                  0.014084428802196215
0.0015                    -0.0035                  0.014242903714522687
0.0015                    -0.0025                  0.013673815777970982
0.0015                    -0.0015                  0.012460123429004334
0.0015                    -5.0E-4                  0.01074678297130715
0.0015                    5.0E-4                   0.00873280369815152
0.0015                    0.0015                   0.006625285904928852
0.0015                    0.0025                   0.004673274613274671
0.0015                    0.0035                   0.0032509856316567712
0.0015                    0.0045                   0.002939555427082185
0.0015                    0.0055                   0.004594242549030847
0.0015                    0.0065                   0.009567637615446075
0.0015                    0.0075                   0.019120442675120638
0.0015                    0.0085                   0.02807168614713235
0.0015                    0.0095                   0.028967582507826738
0.0015                    0.0105                   0.023720168467203404
0.0015                    0.0115                   0.01681139858024956
0.0015                    0.0125                   0.009822806411072171
0.0015                    0.0135                   0.004394876894261172
0.0015                    0.0145                   0.0013184512664303147
0.0015                    0.0155                   3.69543912885835E-4
0.0015                    0.0165                   1.8844909318033886E-4
0.0015                    0.0175                   1.2015144019150244E-4
0.0015                    0.0185                   7.585871479159766E-5
0.0015                    0.0195                   8.606499583667088E-5
0.0015                    0.0205                   2.1221997194505795E-4
0.0015                    0.0215                   8.902173962177803E-4
0.0015                    0.0225                   0.0023787904655401112
0.0015                    0.0235                   0.002712488045591911
0.0015                    0.0245                   0.001314059329234353
0.0015                    0.0255                   3.336910176540277E-4
0.0015                    0.0265                   1.219737824922325E-4
0.0015                    0.0275                   5.1796299026253564E-5
0.0015                    0.0285                   3.0509798575502077E-5
0.0015                    0.0295                   2.2264520116093165E-5
0.0015                    0.0305                   1.964582897202189E-5
0.0015                    0.0315                   1.0115903392015734E-5
0.0025                    -0.0315                  4.525419016571443E-6
0.0025                    -0.0305                  8.434086212048725E-6
0.0025                    -0.0295                  8.367541499478857E-6
0.0025                    -0.0285                  8.801604835691747E-6
0.0025                    -0.0275                  9.072968850553559E-6
0.0025                    -0.0265                  9.632512835701558E-6
0.0025                    -0.0255                  1.0511722737253242E-5
0.0025                    -0.0245                  1.1661640602056976E-5
0.0025                    -0.0235                  1.2917898032399066E-5
0.0025                    -0.0225                  1.415627037596925E-5
0.0025                    -0.0215                  1.553956572034749E-5
0.0025                    -0.0205                  1.7814090418054767E-5
0.0025                    -0.0195                  2.2615877468376055E-5
0.0025                    -0.0185                  3.302746155232501E-5
0.0025                    -0.0175                  5.4633139245117305E-5
0.0025                    -0.0165                  9.857353539886765E-5
0.0025                    -0.0155                  1.992496236561634E-4
0.0025                    -0.0145                  3.6691459116622993E-4
0.0025                    -0.0135                  7.188533666250895E-4
0.0025                    -0.0125                  0.001743635408559485
0.0025                    -0.0115                  0.003946480307219237
0.0025                    -0.0105                  0.0071317158469771215
0.0025                    -0.0095                  0.010693749162195195
0.0025                    -0.0085                  0.014091813581930306
0.0025                    -0.0075                  0.016947398495492785
0.0025                    -0.0065                  0.01910332319474099
0.0025                    -0.0055                  0.02059629876242694
0.0025                    -0.0045                  0.02153118832961589
0.0025                    -0.0035                  0.021992247525140948
0.0025                    -0.0025                  0.022017949383021505
0.0025                    -0.0015                  0.02159192336500072
0.0025                    -5.0E-4                  0.020667964805487493
0.0025                    5.0E-4                   0.019257189425493166
0.0025                    0.0015                   0.017538672033013472
0.0025                    0.0025                   0.01585707920779626
0.0025                    0.0035                   0.014696686835496046
0.0025                    0.0045                   0.014773671558505317
0.0025                    0.0055                   0.01690648061366599
0.0025                    0.0065                   0.021373486202377463
0.0025                    0.0075                   0.026388173171225465
0.0025                    0.0085                   0.028662680207180092
0.0025                    0.0095                   0.026059998782982687
0.0025                    0.0105                   0.019960630568972307
0.0025                    0.0115                   0.013041643441131597
0.0025                    0.0125                   0.006912878892994799
0.0025                    0.0135                   0.0028332464574357293
0.0025                    0.0145                   9.66940458994266E-4
0.0025                    0.0155                   4.47369951776881E-4
0.0025                    0.0165                   2.59815027115631E-4
0.0025                    0.0175                   1.3874025173565916E-4
0.0025                    0.0185                   8.579767009107523E-5
0.0025                    0.0195                   8.801687055973814E-5
0.0025                    0.0205                   1.896130228212165E-4
0.0025                    0.0215                   7.101170627550463E-4
0.0025                    0.0225                   0.0021278179352025293
0.0025                    0.0235                   0.002958374233235043
0.0025                    0.0245                   0.001897373292147214
0.0025                    0.0255                   6.526877635513832E-4
0.0025                    0.0265                   2.1373521532009677E-4
0.0025                    0.0275                   8.087630772712494E-5
0.0025                    0.0285                   3.7904142485668265E-5
0.0025                    0.0295                   2.306375848783075E-5
0.0025                    0.0305                   2.0373298374149182E-5
0.0025                    0.0315                   1.109462029886548E-5
0.0035                    -0.0315                  5.039245206726466E-6
0.0035                    -0.0305                  8.961720667895856E-6
0.0035                    -0.0295                  8.611867809758E-6
0.0035                    -0.0285                  9.39525104822781E-6
0.0035                    -0.0275                  1.0099258621863374E-5
0.0035                    -0.0265                  1.1327911393416621E-5
0.0035                    -0.0255                  1.3284664571399924E-5
0.0035                    -0.0245                  1.6033912868709373E-5
0.0035                    -0.0235                  1.929176272228164E-5
0.0035                    -0.0225                  2.26865702661014E-5
0.0035                    -0.0215                  2.6288510322843228E-5
0.0035                    -0.0205                  3.141703147100314E-5
0.0035                    -0.0195                  4.122188991986688E-5
0.0035                    -0.0185                  6.12348550473099E-5
0.0035                    -0.0175                  9.851641962359782E-5
0.0035                    -0.0165                  1.6914222289641487E-4
0.0035                    -0.0155                  3.170112261700526E-4
0.0035                    -0.0145                  6.844417205221926E-4
0.0035                    -0.0135                  0.0017720993282668612
0.0035                    -0.0125                  0.004350184407800863
0.0035                    -0.0115                  0.008371037459374668
0.0035                    -0.0105                  0.01282571075152689
0.0035                    -0.0095                  0.01673748683791673
0.0035                    -0.0085                  0.019650065686065993
0.0035                    -0.0075                  0.02159050375614622
0.0035                    -0.0065                  0.02279992037187094
0.0035                    -0.0055                  0.023538533297716494
0.0035                    -0.0045                  0.024028274857114375
0.0035                    -0.0035                  0.024464143516406626
0.0035                    -0.0025                  0.024944843544265037
0.0035                    -0.0015                  0.025425101457097896
0.0035                    -5.0E-4                  0.02573713067568913
0.0035                    5.0E-4                   0.02568332773020966
0.0035                    0.0015                   0.025194345653429515
0.0035                    0.0025                   0.02447407500546047
0.0035                    0.0035                   0.023972143170919658
0.0035                    0.0045                   0.024173836356787833
0.0035                    0.0055                   0.025276477226283022
0.0035                    0.0065                   0.02679835522050916
0.0035                    0.0075                   0.027490166979806684
0.0035                    0.0085                   0.02585385783838076
0.0035                    0.0095                   0.021147459348350987
0.0035                    0.0105                   0.014771227646045663
0.0035                    0.0115                   0.008728698844736111
0.0035                    0.0125                   0.004195963416661263
0.0035                    0.0135                   0.001794265016350517
0.0035                    0.0145                   8.916515628428751E-4
0.0035                    0.0155                   5.535033425864813E-4
0.0035                    0.0165                   3.198147798745233E-4
0.0035                    0.0175                   1.5000233083294678E-4
0.0035                    0.0185                   8.634236677270415E-5
0.0035                    0.0195                   8.30788435573346E-5
0.0035                    0.0205                   1.6009481323008443E-4
0.0035                    0.0215                   4.766816463827325E-4
0.0035                    0.0225                   0.00155181265164018
0.0035                    0.0235                   0.002933745344709345
0.0035                    0.0245                   0.0026921515358341156
0.0035                    0.0255                   0.0012591154064330642
0.0035                    0.0265                   4.0822412795376184E-4
0.0035                    0.0275                   1.3052387917043438E-4
0.0035                    0.0285                   5.194348319354604E-5
0.0035                    0.0295                   2.696532874090015E-5
0.0035                    0.0305                   2.263903309139972E-5
0.0035                    0.0315                   1.2759574042603548E-5
0.0045                    -0.0315                  5.464914306042915E-6
0.0045                    -0.0305                  9.441384039660487E-6
0.0045                    -0.0295                  8.925819356020823E-6
0.0045                    -0.0285                  1.030168030018709E-5
0.0045                    -0.0275                  1.2131526431626914E-5
0.0045                    -0.0265                  1.533963162362142E-5
0.0045                    -0.0255                  2.0673696126730123E-5
0.0045                    -0.0245                  2.8566933856549413E-5
0.0045                    -0.0235                  3.859715861438744E-5
0.0045                    -0.0225                  4.939268830670587E-5
0.0045                    -0.0215                  6.004195682609771E-5
0.0045                    -0.0205                  7.279844773341252E-5
0.0045                    -0.0195                  9.597567567722026E-5
0.0045                    -0.0185                  1.424185057129184E-4
0.0045                    -0.0175                  2.3522718659178352E-4
0.0045                    -0.0165                  3.8715991548533244E-4
0.0045                    -0.0155                  6.729991735971108E-4
0.0045                    -0.0145                  0.001541714435042786
0.0045                    -0.0135                  0.003965236315520406
0.0045                    -0.0125                  0.008261842682317702
0.0045                    -0.0115                  0.013270577247708172
0.0045                    -0.0105                  0.01747946861830863
0.0045                    -0.0095                  0.02016802435831813
0.0045                    -0.0085                  0.02145221445910538
0.0045                    -0.0075                  0.021673024904060107
0.0045                    -0.0065                  0.021149344233459114
0.0045                    -0.0055                  0.020329851629261958
0.0045                    -0.0045                  0.019702019355651582
0.0045                    -0.0035                  0.019606498099522043
0.0045                    -0.0025                  0.02017809109719071
0.0045                    -0.0015                  0.021358532039466433
0.0045                    -5.0E-4                  0.022910105644893337
0.0045                    5.0E-4                   0.02445646734247445
0.0045                    0.0015                   0.025604044218077358
0.0045                    0.0025                   0.02616924582300271
0.0045                    0.0035                   0.026300399756576033
0.0045                    0.0045                   0.026264519771042192
0.0045                    0.0055                   0.026115181249198243
0.0045                    0.0065                   0.025499715661580612
0.0045                    0.0075                   0.023671740106899507
0.0045                    0.0085                   0.019930564015128726
0.0045                    0.0095                   0.01452506800108374
0.0045                    0.0105                   0.008966320899084083
0.0045                    0.0115                   0.004653892606226732
0.0045                    0.0125                   0.0023627544109051483
0.0045                    0.0135                   0.001656521882735893
0.0045                    0.0145                   0.0011529218876224767
0.0045                    0.0155                   6.731772207986903E-4
0.0045                    0.0165                   3.4453815389276894E-4
0.0045                    0.0175                   1.6169939051329318E-4
0.0045                    0.0185                   8.969676184096864E-5
0.0045                    0.0195                   7.821473085341942E-5
0.0045                    0.0205                   1.265524448933061E-4
0.0045                    0.0215                   3.010535080392845E-4
0.0045                    0.0225                   0.001023828368095355
0.0045                    0.0235                   0.0025475924613202455
0.0045                    0.0245                   0.0031726254176615088
0.0045                    0.0255                   0.001955329704828657
0.0045                    0.0265                   6.662530112795607E-4
0.0045                    0.0275                   1.9112040118191007E-4
0.0045                    0.0285                   7.026625827597963E-5
0.0045                    0.0295                   3.135272536217672E-5
0.0045                    0.0305                   2.5133287841846063E-5
0.0045                    0.0315                   1.4446934328733992E-5
0.0055                    -0.0315                  6.029473179518353E-6
0.0055                    -0.0305                  1.0330354873003287E-5
0.0055                    -0.0295                  9.986801932651356E-6
0.0055                    -0.0285                  1.2591544251601459E-5
0.0055                    -0.0275                  1.6956385265671916E-5
0.0055                    -0.0265                  2.5062289998005832E-5
0.0055                    -0.0255                  4.051381022655332E-5
0.0055                    -0.0245                  6.736427553965708E-5
0.0055                    -0.0235                  1.0222041800439082E-4
0.0055                    -0.0225                  1.383498119309118E-4
0.0055                    -0.0215                  1.7381437706687745E-4
0.0055                    -0.0205                  2.100794116847825E-4
0.0055                    -0.0195                  2.648194639604741E-4
0.0055                    -0.0185                  4.112919714796768E-4
0.0055                    -0.0175                  6.69829530649786E-4
0.0055                    -0.0165                  9.623705632807431E-4
0.0055                    -0.0155                  0.0014683076005804056
0.0055                    -0.0145                  0.0031838965610210164
0.0055                    -0.0135                  0.007107518390795647
0.0055                    -0.0125                  0.012416743997613479
0.0055                    -0.0115                  0.017075307478718684
0.0055                    -0.0105                  0.019807472642500896
0.0055                    -0.0095                  0.020618838040482996
0.0055                    -0.0085                  0.019847251516393948
0.0055                    -0.0075                  0.017808224191377373
0.0055                    -0.0065                  0.015181753048937072
0.0055                    -0.0055                  0.012810075671166038
0.0055                    -0.0045                  0.011229688057818531
0.0055                    -0.0035                  0.01059137162334075
0.0055                    -0.0025                  0.010865795506942324
0.0055                    -0.0015                  0.01197463708322362
0.0055                    -5.0E-4                  0.01376914041003991
0.0055                    5.0E-4                   0.01595473334204028
0.0055                    0.0015                   0.018124218639110967
0.0055                    0.0025                   0.019856831336150103
0.0055                    0.0035                   0.020875118829255343
0.0055                    0.0045                   0.02110064240969413
0.0055                    0.0055                   0.020498347072481757
0.0055                    0.0065                   0.018906434939340935
0.0055                    0.0075                   0.016081883500029193
0.0055                    0.0085                   0.01209036470613877
0.0055                    0.0095                   0.007701250932001157
0.0055                    0.0105                   0.004068732346560041
0.0055                    0.0115                   0.0020554165437386292
0.0055                    0.0125                   0.0018423757906323264
0.0055                    0.0135                   0.0020525175494454538
0.0055                    0.0145                   0.0017124645010790434
0.0055                    0.0155                   9.154269957050382E-4
0.0055                    0.0165                   3.803426631682881E-4
0.0055                    0.0175                   1.8836024655238302E-4
0.0055                    0.0185                   1.0349742974270662E-4
0.0055                    0.0195                   7.968951775569386E-5
0.0055                    0.0205                   1.0549970445816098E-4
0.0055                    0.0215                   2.2860986780454896E-4
0.0055                    0.0225                   7.192857486234408E-4
0.0055                    0.0235                   0.002003237764632739
0.0055                    0.0245                   0.0031980259119661993
0.0055                    0.0255                   0.0025563592121604748
0.0055                    0.0265                   0.00103267117775187
0.0055                    0.0275                   2.9447271156858145E-4
0.0055                    0.0285                   9.174129607393727E-5
0.0055                    0.0295                   3.6233573222034906E-5
0.0055                    0.0305                   2.823966818783592E-5
0.0055                    0.0315                   1.652663066529611E-5
0.0065                    -0.0315                  6.9316592394500795E-6
0.0065                    -0.0305                  1.2056201843674808E-5
0.0065                    -0.0295                  1.2581692638029282E-5
0.0065                    -0.0285                  1.795582633295915E-5
0.0065                    -0.0275                  2.8088198022936146E-5
0.0065                    -0.0265                  4.902589423907734E-5
0.0065                    -0.0255                  9.364014300882447E-5
0.0065                    -0.0245                  1.9959628255679932E-4
0.0065                    -0.0235                  3.563488338561738E-4
0.0065                    -0.0225                  5.146443467024985E-4
0.0065                    -0.0215                  6.715656308478178E-4
0.0065                    -0.0205                  8.329377897643995E-4
0.0065                    -0.0195                  0.001046056056658606
0.0065                    -0.0185                  0.001475081637124732
0.0065                    -0.0175                  0.0020026719925284224
0.0065                    -0.0165                  0.0023499738724464085
0.0065                    -0.0155                  0.00296108028942104
0.0065                    -0.0145                  0.005452179172590577
0.0065                    -0.0135                  0.010336611834820885
0.0065                    -0.0125                  0.015617114997214685
0.0065                    -0.0115                  0.019041069595161088
0.0065                    -0.0105                  0.020015781119585657
0.0065                    -0.0095                  0.01883856797287947
0.0065                    -0.0085                  0.015754425452692237
0.0065                    -0.0075                  0.011712390951262074
0.0065                    -0.0065                  0.008090431498764572
0.0065                    -0.0055                  0.005646600017418816