% Model:              Benchmark260518.mph
% Version:            COMSOL 6.2.0.339
% Date:               May 20 2026, 21:16
% Dimension:          2
% Nodes:              4096
% Expressions:        1
% Description:        速度大小
% Length unit:        m
% x                       y                        spf.U (m/s)
5.0E-4                    -0.0315                  1.5381067245639918E-6
5.0E-4                    -0.0305                  3.06227415653614E-6
5.0E-4                    -0.0295                  3.377881095947068E-6
5.0E-4                    -0.0285                  3.7075956946098147E-6
5.0E-4                    -0.0275                  3.849249906758123E-6
5.0E-4                    -0.0265                  3.9282784574282084E-6
5.0E-4                    -0.0255                  3.912928568033014E-6
5.0E-4                    -0.0245                  3.919697850259476E-6
5.0E-4                    -0.0235                  3.9627462136311226E-6
5.0E-4                    -0.0225                  4.062903913460672E-6
5.0E-4                    -0.0215                  4.23717273670541E-6
5.0E-4                    -0.0205                  4.490888188373584E-6
5.0E-4                    -0.0195                  4.8256039365733014E-6
5.0E-4                    -0.0185                  5.177403846808385E-6
5.0E-4                    -0.0175                  5.584327350953568E-6
5.0E-4                    -0.0165                  6.191100426574622E-6
5.0E-4                    -0.0155                  7.293156919613802E-6
5.0E-4                    -0.0145                  9.449376018669681E-6
5.0E-4                    -0.0135                  1.6269014774056063E-5
5.0E-4                    -0.0125                  3.89556124585321E-5
5.0E-4                    -0.0115                  1.1357057732300799E-4
5.0E-4                    -0.0105                  2.3417526523117363E-4
5.0E-4                    -0.0095                  3.303260471492063E-4
5.0E-4                    -0.0085                  3.979290016843951E-4
5.0E-4                    -0.0075                  6.135660013671292E-4
5.0E-4                    -0.0065                  0.0012465346698549435
5.0E-4                    -0.0055                  0.00230290031087703
5.0E-4                    -0.0045                  0.0035889189256081994
5.0E-4                    -0.0035                  0.00482471687934114
5.0E-4                    -0.0025                  0.005734657652007263
5.0E-4                    -0.0015                  0.006119193204084578
5.0E-4                    -5.0E-4                  0.005884358451121161
5.0E-4                    5.0E-4                   0.005063790296303602
5.0E-4                    0.0015                   0.003803104757121389
5.0E-4                    0.0025                   0.0023326053017508454
5.0E-4                    0.0035                   0.0012109161103254918
5.0E-4                    0.0045                   0.0018748302296668698
5.0E-4                    0.0055                   0.0030281970914073134
5.0E-4                    0.0065                   0.0036120826449518705
5.0E-4                    0.0075                   0.003504701607146578
5.0E-4                    0.0085                   0.0029135249751114397
5.0E-4                    0.0095                   0.0021945383827420583
5.0E-4                    0.0105                   0.0017166497843561592
5.0E-4                    0.0115                   0.004719997031995439
5.0E-4                    0.0125                   0.025909958075383495
5.0E-4                    0.0135                   0.04152538723690279
5.0E-4                    0.0145                   0.03872411530125574
5.0E-4                    0.0155                   0.03065792018511895
5.0E-4                    0.0165                   0.0202432686256921
5.0E-4                    0.0175                   0.011339198160158359
5.0E-4                    0.0185                   0.004702618950963758
5.0E-4                    0.0195                   0.0011988517523830585
5.0E-4                    0.0205                   3.326841782122821E-4
5.0E-4                    0.0215                   2.3534849491031035E-4
5.0E-4                    0.0225                   1.1414566946092188E-4
5.0E-4                    0.0235                   4.02898178776246E-5
5.0E-4                    0.0245                   1.7259681635018274E-5
5.0E-4                    0.0255                   1.116399903494879E-5
5.0E-4                    0.0265                   9.477915685748918E-6
5.0E-4                    0.0275                   8.360945066786008E-6
5.0E-4                    0.0285                   7.679470166551551E-6
5.0E-4                    0.0295                   6.813429751354403E-6
5.0E-4                    0.0305                   6.164622216031794E-6
5.0E-4                    0.0315                   3.135615385178661E-6
0.0015                    -0.0315                  3.0035432805390636E-6
0.0015                    -0.0305                  5.910385603925331E-6
0.0015                    -0.0295                  6.268854765735341E-6
0.0015                    -0.0285                  6.602549529203859E-6
0.0015                    -0.0275                  6.643171110848066E-6
0.0015                    -0.0265                  6.629149035327587E-6
0.0015                    -0.0255                  6.537095876863054E-6
0.0015                    -0.0245                  6.483881842308226E-6
0.0015                    -0.0235                  6.4884286715727306E-6
0.0015                    -0.0225                  6.569696950592719E-6
0.0015                    -0.0215                  6.745296119815762E-6
0.0015                    -0.0205                  7.023758083108106E-6
0.0015                    -0.0195                  7.409451425746609E-6
0.0015                    -0.0185                  7.861580553490996E-6
0.0015                    -0.0175                  8.468215486921312E-6
0.0015                    -0.0165                  9.499229574887793E-6
0.0015                    -0.0155                  1.1554810856565389E-5
0.0015                    -0.0145                  1.6155083515923598E-5
0.0015                    -0.0135                  2.954879398448514E-5
0.0015                    -0.0125                  7.134473082380188E-5
0.0015                    -0.0115                  2.0676832858843798E-4
0.0015                    -0.0105                  4.5111213753642364E-4
0.0015                    -0.0095                  7.813243726197212E-4
0.0015                    -0.0085                  0.0014639384585239809
0.0015                    -0.0075                  0.0030541311349693433
0.0015                    -0.0065                  0.0056664391129688805
0.0015                    -0.0055                  0.00884903210820648
0.0015                    -0.0045                  0.01204079693604544
0.0015                    -0.0035                  0.014726679794321384
0.0015                    -0.0025                  0.016563886025940375
0.0015                    -0.0015                  0.017385251799597552
0.0015                    -5.0E-4                  0.017154329361980403
0.0015                    5.0E-4                   0.015943456462330394
0.0015                    0.0015                   0.01389421854544212
0.0015                    0.0025                   0.011160480820342333
0.0015                    0.0035                   0.007892513885508578
0.0015                    0.0045                   0.004464827764874241
0.0015                    0.0055                   0.002297936961999338
0.0015                    0.0065                   0.0032620540995123883
0.0015                    0.0075                   0.004397888053481112
0.0015                    0.0085                   0.004465500401702287
0.0015                    0.0095                   0.0035694517424458873
0.0015                    0.0105                   0.002711165289967912
0.0015                    0.0115                   0.01473310419216704
0.0015                    0.0125                   0.03350626049836299
0.0015                    0.0135                   0.0411151142104056
0.0015                    0.0145                   0.03707037184427031
0.0015                    0.0155                   0.028241170468133295
0.0015                    0.0165                   0.01798404880926112
0.0015                    0.0175                   0.009503362469858369
0.0015                    0.0185                   0.003573443805589894
0.0015                    0.0195                   9.6571727208398E-4
0.0015                    0.0205                   4.780781413472716E-4
0.0015                    0.0215                   3.2513909491915316E-4
0.0015                    0.0225                   1.646572130822693E-4
0.0015                    0.0235                   6.524066173197632E-5
0.0015                    0.0245                   2.956202145600693E-5
0.0015                    0.0255                   1.8637422128588162E-5
0.0015                    0.0265                   1.5336539630005906E-5
0.0015                    0.0275                   1.3752234549341766E-5
0.0015                    0.0285                   1.2970421523608319E-5
0.0015                    0.0295                   1.2050201041319776E-5
0.0015                    0.0305                   1.1588528963334263E-5
0.0015                    0.0315                   6.04301118493826E-6
0.0025                    -0.0315                  3.178415215392055E-6
0.0025                    -0.0305                  6.057672992409478E-6
0.0025                    -0.0295                  6.149354063959269E-6
0.0025                    -0.0285                  6.308613564045078E-6
0.0025                    -0.0275                  6.139114379255258E-6
0.0025                    -0.0265                  5.9370713843461864E-6
0.0025                    -0.0255                  5.73922949817713E-6
0.0025                    -0.0245                  5.573234092970487E-6
0.0025                    -0.0235                  5.446835519149633E-6
0.0025                    -0.0225                  5.35939123293174E-6
0.0025                    -0.0215                  5.313320748408609E-6
0.0025                    -0.0205                  5.318884033102284E-6
0.0025                    -0.0195                  5.395968934500988E-6
0.0025                    -0.0185                  5.604397248664396E-6
0.0025                    -0.0175                  6.083265021063799E-6
0.0025                    -0.0165                  7.161683866682423E-6
0.0025                    -0.0155                  9.655193050307317E-6
0.0025                    -0.0145                  1.5842433434028054E-5
0.0025                    -0.0135                  3.203533720734608E-5
0.0025                    -0.0125                  7.928909381610219E-5
0.0025                    -0.0115                  2.501496185549046E-4
0.0025                    -0.0105                  6.646449217409168E-4
0.0025                    -0.0095                  0.0016296114339831133
0.0025                    -0.0085                  0.003980870167408221
0.0025                    -0.0075                  0.007980386202352311
0.0025                    -0.0065                  0.012656802385857724
0.0025                    -0.0055                  0.016932917149556616
0.0025                    -0.0045                  0.020260937887853266
0.0025                    -0.0035                  0.02257278178532415
0.0025                    -0.0025                  0.024031227310518686
0.0025                    -0.0015                  0.024830575578694076
0.0025                    -5.0E-4                  0.02511998225339352
0.0025                    5.0E-4                   0.024945189504071756
0.0025                    0.0015                   0.024229253234809078
0.0025                    0.0025                   0.02278121326382683
0.0025                    0.0035                   0.02036294870672436
0.0025                    0.0045                   0.016865641804038278
0.0025                    0.0055                   0.012545707477676632
0.0025                    0.0065                   0.00806542110691886
0.0025                    0.0075                   0.00442687110617609
0.0025                    0.0085                   0.00293204792312796
0.0025                    0.0095                   0.00454681303779662
0.0025                    0.0105                   0.011574864726542533
0.0025                    0.0115                   0.024873956945870468
0.0025                    0.0125                   0.03659862085324107
0.0025                    0.0135                   0.03918511243273354
0.0025                    0.0145                   0.03409886129739261
0.0025                    0.0155                   0.024983513623844926
0.0025                    0.0165                   0.01529609217268195
0.0025                    0.0175                   0.00759741530596853
0.0025                    0.0185                   0.0026600285680640164
0.0025                    0.0195                   7.620539513243812E-4
0.0025                    0.0205                   3.292225324411403E-4
0.0025                    0.0215                   1.916532345114185E-4
0.0025                    0.0225                   9.917058513936832E-5
0.0025                    0.0235                   4.948373401348815E-5
0.0025                    0.0245                   2.5669217430025093E-5
0.0025                    0.0255                   1.6066136089097048E-5
0.0025                    0.0265                   1.2667492503400991E-5
0.0025                    0.0275                   1.1566686224153818E-5
0.0025                    0.0285                   1.127639656065859E-5
0.0025                    0.0295                   1.0966678665286337E-5
0.0025                    0.0305                   1.1709015858186721E-5
0.0025                    0.0315                   6.523703505930649E-6
0.0035                    -0.0315                  3.4522878889270573E-6
0.0035                    -0.0305                  6.343659757628364E-6
0.0035                    -0.0295                  6.338999767652136E-6
0.0035                    -0.0285                  6.704674657644845E-6
0.0035                    -0.0275                  6.6485437700601725E-6
0.0035                    -0.0265                  6.482353843779668E-6
0.0035                    -0.0255                  6.266900375396896E-6
0.0035                    -0.0245                  6.064645684524768E-6
0.0035                    -0.0235                  5.887923819834871E-6
0.0035                    -0.0225                  5.741109858748605E-6
0.0035                    -0.0215                  5.63157202460763E-6
0.0035                    -0.0205                  5.5816887271109975E-6
0.0035                    -0.0195                  5.640095096941729E-6
0.0035                    -0.0185                  5.908008121102859E-6
0.0035                    -0.0175                  6.613440803450636E-6
0.0035                    -0.0165                  8.282196306769042E-6
0.0035                    -0.0155                  1.2233907652679334E-5
0.0035                    -0.0145                  2.1795990783985925E-5
0.0035                    -0.0135                  4.730413275997253E-5
0.0035                    -0.0125                  1.1993337045855202E-4
0.0035                    -0.0115                  4.120816789568148E-4
0.0035                    -0.0105                  0.0013205742015746122
0.0035                    -0.0095                  0.0037863344393046267
0.0035                    -0.0085                  0.008464674339745272
0.0035                    -0.0075                  0.014200971411423527
0.0035                    -0.0065                  0.01912951542727038
0.0035                    -0.0055                  0.02245698183695579
0.0035                    -0.0045                  0.024394056791320503
0.0035                    -0.0035                  0.0254377182779309
0.0035                    -0.0025                  0.02599829794024854
0.0035                    -0.0015                  0.026400243305931756
0.0035                    -5.0E-4                  0.026908741734868496
0.0035                    5.0E-4                   0.027627832480928004
0.0035                    0.0015                   0.028418203782162813
0.0035                    0.0025                   0.028932198555387822
0.0035                    0.0035                   0.028718920758212824
0.0035                    0.0045                   0.02736837696181871
0.0035                    0.0055                   0.024722165702880102
0.0035                    0.0065                   0.021156602294399928
0.0035                    0.0075                   0.017677306937719003
0.0035                    0.0085                   0.015759501030945477
0.0035                    0.0095                   0.017230506019736743
0.0035                    0.0105                   0.023185181134225703
0.0035                    0.0115                   0.03122905828784591
0.0035                    0.0125                   0.03632630691595382
0.0035                    0.0135                   0.035590363518798684
0.0035                    0.0145                   0.02975535865569983
0.0035                    0.0155                   0.02104782016493097
0.0035                    0.0165                   0.012473922225507786
0.0035                    0.0175                   0.005918385479379352
0.0035                    0.0185                   0.002083015709035078
0.0035                    0.0195                   7.643721269625926E-4
0.0035                    0.0205                   3.979698275711769E-4
0.0035                    0.0215                   2.1573501253788162E-4
0.0035                    0.0225                   9.759108482566859E-5
0.0035                    0.0235                   4.739656886818977E-5
0.0035                    0.0245                   2.5893277635057662E-5
0.0035                    0.0255                   1.6884857461557066E-5
0.0035                    0.0265                   1.3377731515849172E-5
0.0035                    0.0275                   1.2019953775318664E-5
0.0035                    0.0285                   1.151046767271553E-5
0.0035                    0.0295                   1.098972603031006E-5
0.0035                    0.0305                   1.247721487642943E-5
0.0035                    0.0315                   7.374615057559399E-6
0.0045                    -0.0315                  3.6288021776955907E-6
0.0045                    -0.0305                  6.471260155512862E-6
0.0045                    -0.0295                  6.296921571298662E-6
0.0045                    -0.0285                  6.785914296383762E-6
0.0045                    -0.0275                  6.888965653914684E-6
0.0045                    -0.0265                  6.829740714678863E-6
0.0045                    -0.0255                  6.660373695195126E-6
0.0045                    -0.0245                  6.4726504209692115E-6
0.0045                    -0.0235                  6.3021210946539635E-6
0.0045                    -0.0225                  6.16338548214138E-6
0.0045                    -0.0215                  6.073260758444748E-6
0.0045                    -0.0205                  6.075598716253244E-6
0.0045                    -0.0195                  6.259552481303584E-6
0.0045                    -0.0185                  6.799076312001173E-6
0.0045                    -0.0175                  8.070455600080873E-6
0.0045                    -0.0165                  1.0964856131877728E-5
0.0045                    -0.0155                  1.7672670990520033E-5
0.0045                    -0.0145                  3.4664734590695136E-5
0.0045                    -0.0135                  8.19143836911986E-5
0.0045                    -0.0125                  2.4419988023398337E-4
0.0045                    -0.0115                  8.10324201300237E-4
0.0045                    -0.0105                  0.0027437421223005633
0.0045                    -0.0095                  0.007405279301900635
0.0045                    -0.0085                  0.013958093280550019
0.0045                    -0.0075                  0.019607396417940813
0.0045                    -0.0065                  0.022874871155273074
0.0045                    -0.0055                  0.024084662272844126
0.0045                    -0.0045                  0.023957426752450654
0.0045                    -0.0035                  0.023017946251222353
0.0045                    -0.0025                  0.021888169402932898
0.0045                    -0.0015                  0.021220171998846214
0.0045                    -5.0E-4                  0.021436280544910615
0.0045                    5.0E-4                   0.02267416310635498
0.0045                    0.0015                   0.024776064810963536
0.0045                    0.0025                   0.027312254746720756
0.0045                    0.0035                   0.029641047662470714
0.0045                    0.0045                   0.03111559109074022
0.0045                    0.0055                   0.03126658251663447
0.0045                    0.0065                   0.030061809810538253
0.0045                    0.0075                   0.02817640464143024
0.0045                    0.0085                   0.026799108301492482
0.0045                    0.0095                   0.027118873106855127
0.0045                    0.0105                   0.029343489120025986
0.0045                    0.0115                   0.03198144892121289
0.0045                    0.0125                   0.03270013753582333
0.0045                    0.0135                   0.029996061670822305
0.0045                    0.0145                   0.024151965875563224
0.0045                    0.0155                   0.016853059070058598
0.0045                    0.0165                   0.010079681055680594
0.0045                    0.0175                   0.004931051267489884
0.0045                    0.0185                   0.0020253772100058457
0.0045                    0.0195                   9.373107207275093E-4
0.0045                    0.0205                   4.7534423545116897E-4
0.0045                    0.0215                   2.2394789893908946E-4
0.0045                    0.0225                   9.714257007749277E-5
0.0045                    0.0235                   4.5402043364913165E-5
0.0045                    0.0245                   2.5127879073813422E-5
0.0045                    0.0255                   1.6940450326826336E-5
0.0045                    0.0265                   1.3567167080070156E-5
0.0045                    0.0275                   1.2039728199344089E-5
0.0045                    0.0285                   1.1297489073471765E-5
0.0045                    0.0295                   1.067698790938061E-5
0.0045                    0.0305                   1.284227186234225E-5
0.0045                    0.0315                   7.908434486137232E-6
0.0055                    -0.0315                  3.811844991014109E-6
0.0055                    -0.0305                  6.6427992708431835E-6
0.0055                    -0.0295                  6.2884766793181284E-6
0.0055                    -0.0285                  6.836871185668428E-6
0.0055                    -0.0275                  7.071004351448528E-6
0.0055                    -0.0265                  7.146849124618553E-6
0.0055                    -0.0255                  7.074536453098684E-6
0.0055                    -0.0245                  6.96512172875746E-6
0.0055                    -0.0235                  6.891580334259602E-6
0.0055                    -0.0225                  6.895470942799411E-6
0.0055                    -0.0215                  7.010747912917913E-6
0.0055                    -0.0205                  7.319660165242719E-6
0.0055                    -0.0195                  7.989905630026977E-6
0.0055                    -0.0185                  9.32440266443342E-6
0.0055                    -0.0175                  1.1945924243613766E-5
0.0055                    -0.0165                  1.7360856809227134E-5
0.0055                    -0.0155                  2.999755899229327E-5
0.0055                    -0.0145                  6.341725646536444E-5
0.0055                    -0.0135                  1.7411638345061434E-4
0.0055                    -0.0125                  5.466673697153757E-4
0.0055                    -0.0115                  0.0016884089014122074
0.0055                    -0.0105                  0.005286223853356669
0.0055                    -0.0095                  0.012091735097498066
0.0055                    -0.0085                  0.019082176415529048
0.0055                    -0.0075                  0.02303979695124044
0.0055                    -0.0065                  0.023839768666114144
0.0055                    -0.0055                  0.022477461635210368
0.0055                    -0.0045                  0.01963344424768746
0.0055                    -0.0035                  0.016265694477444487
0.0055                    -0.0025                  0.013459992674468792
0.0055                    -0.0015                  0.011853816580418246
0.0055                    -5.0E-4                  0.011588692861446964
0.0055                    5.0E-4                   0.012627985281059436
0.0055                    0.0015                   0.014917243933394341
0.0055                    0.0025                   0.018300958447416193
0.0055                    0.0035                   0.02233880606312781
0.0055                    0.0045                   0.02631729089064161
0.0055                    0.0055                   0.02941483140790882
0.0055                    0.0065                   0.03100826236423512
0.0055                    0.0075                   0.031098386451648165
0.0055                    0.0085                   0.03031951570290384
0.0055                    0.0095                   0.029480753188022287
0.0055                    0.0105                   0.028878326591058302
0.0055                    0.0115                   0.028016573733011568
0.0055                    0.0125                   0.025997816890629296
0.0055                    0.0135                   0.02238128217863906
0.0055                    0.0145                   0.01781916042557035
0.0055                    0.0155                   0.013424968757468519
0.0055                    0.0165                   0.009384892748635102
0.0055                    0.0175                   0.0055509534252642665
0.0055                    0.0185                   0.0027334228601302857
0.0055                    0.0195                   0.0012876941278048306
0.0055                    0.0205                   5.618625890346083E-4
0.0055                    0.0215                   2.124133716643917E-4
0.0055                    0.0225                   9.210853046022866E-5
0.0055                    0.0235                   4.39694002789714E-5
0.0055                    0.0245                   2.4773395198851994E-5
0.0055                    0.0255                   1.695352707698882E-5
0.0055                    0.0265                   1.3580764329441358E-5
0.0055                    0.0275                   1.189707749778285E-5
0.0055                    0.0285                   1.1027272091546776E-5
0.0055                    0.0295                   1.0396513894591894E-5
0.0055                    0.0305                   1.3035021743663442E-5
0.0055                    0.0315                   8.225369369795258E-6
0.0065                    -0.0315                  4.0105220273508575E-6
0.0065                    -0.0305                  6.847820195291249E-6
0.0065                    -0.0295                  6.296314760629583E-6
0.0065                    -0.0285                  6.869029568044383E-6
0.0065                    -0.0275                  7.201162916920693E-6
0.0065                    -0.0265                  7.411211430128382E-6
0.0065                    -0.0255                  7.473316550311245E-6
0.0065                    -0.0245                  7.518027172629498E-6
0.0065                    -0.0235                  7.684243876116487E-6
0.0065                    -0.0225                  8.088280627834872E-6
0.0065                    -0.0215                  8.825063175806777E-6
0.0065                    -0.0205                  1.0063878470057844E-5
0.0065                    -0.0195                  1.2196203861281043E-5
0.0065                    -0.0185                  1.5771053368212287E-5
0.0065                    -0.0175                  2.174868586435773E-5
0.0065                    -0.0165                  3.312998975434717E-5
0.0065                    -0.0155                  5.875432196984367E-5
0.0065                    -0.0145                  1.360361258086394E-4
0.0065                    -0.0135                  3.846154139782342E-4
0.0065                    -0.0125                  0.001083232300252582
0.0065                    -0.0115                  0.003272487194818931
0.0065                    -0.0105                  0.008883075864210888
0.0065                    -0.0095                  0.01691726101393945
0.0065                    -0.0085                  0.022829969589040634
0.0065                    -0.0075                  0.024400873568568664
0.0065                    -0.0065                  0.022513896325654224
0.0065                    -0.0055                  0.018258344267780204