% Model:              Benchmark260518.mph
% Version:            COMSOL 6.2.0.339
% Date:               May 21 2026, 11:26
% Dimension:          2
% Nodes:              4096
% Expressions:        1
% Description:        速度大小
% Length unit:        m
% x                       y                        spf.U (m/s)
5.0E-4                    -0.0315                  1.4240774244747574E-6
5.0E-4                    -0.0305                  2.8694218292464124E-6
5.0E-4                    -0.0295                  3.2168163510966685E-6
5.0E-4                    -0.0285                  3.581867650293154E-6
5.0E-4                    -0.0275                  3.7827772018556627E-6
5.0E-4                    -0.0265                  3.9533756835663365E-6
5.0E-4                    -0.0255                  4.087447745528518E-6
5.0E-4                    -0.0245                  4.1962032408202596E-6
5.0E-4                    -0.0235                  4.287921326997909E-6
5.0E-4                    -0.0225                  4.379540586521864E-6
5.0E-4                    -0.0215                  4.464137137462258E-6
5.0E-4                    -0.0205                  4.539518758642212E-6
5.0E-4                    -0.0195                  4.6119255605167225E-6
5.0E-4                    -0.0185                  4.682706541987254E-6
5.0E-4                    -0.0175                  4.756712570465926E-6
5.0E-4                    -0.0165                  4.829404546857369E-6
5.0E-4                    -0.0155                  4.908127542791424E-6
5.0E-4                    -0.0145                  4.996044131671155E-6
5.0E-4                    -0.0135                  5.090997437976728E-6
5.0E-4                    -0.0125                  5.192567122503415E-6
5.0E-4                    -0.0115                  5.294677340536932E-6
5.0E-4                    -0.0105                  5.402769533845383E-6
5.0E-4                    -0.0095                  5.512339783540852E-6
5.0E-4                    -0.0085                  5.603724267135178E-6
5.0E-4                    -0.0075                  5.681984173892961E-6
5.0E-4                    -0.0065                  5.747426426539223E-6
5.0E-4                    -0.0055                  5.788621514483407E-6
5.0E-4                    -0.0045                  5.8230203878572985E-6
5.0E-4                    -0.0035                  5.858475709601837E-6
5.0E-4                    -0.0025                  5.8852397570118315E-6
5.0E-4                    -0.0015                  5.902568859427277E-6
5.0E-4                    -5.0E-4                  5.936523687079374E-6
5.0E-4                    5.0E-4                   5.9896307435767215E-6
5.0E-4                    0.0015                   6.042473966915385E-6
5.0E-4                    0.0025                   6.254011970265521E-6
5.0E-4                    0.0035                   6.586828685869935E-6
5.0E-4                    0.0045                   7.042033817714279E-6
5.0E-4                    0.0055                   8.893936061925455E-6
5.0E-4                    0.0065                   1.4171427219913485E-5
5.0E-4                    0.0075                   2.666965713554627E-5
5.0E-4                    0.0085                   5.465129846712944E-5
5.0E-4                    0.0095                   8.08989071485744E-5
5.0E-4                    0.0105                   1.1233264525360323E-4
5.0E-4                    0.0115                   3.092392445074323E-4
5.0E-4                    0.0125                   6.04526174229336E-4
5.0E-4                    0.0135                   7.582654663514978E-4
5.0E-4                    0.0145                   8.380465709903783E-4
5.0E-4                    0.0155                   0.0056103396231264955
5.0E-4                    0.0165                   0.018672707204599136
5.0E-4                    0.0175                   0.024886701396146522
5.0E-4                    0.0185                   0.01788163979038108
5.0E-4                    0.0195                   0.0097617978740154
5.0E-4                    0.0205                   0.003430916902122109
5.0E-4                    0.0215                   7.103319958143685E-4
5.0E-4                    0.0225                   1.2030199727288961E-4
5.0E-4                    0.0235                   3.628001594258327E-5
5.0E-4                    0.0245                   1.436053609048495E-5
5.0E-4                    0.0255                   8.19128824832855E-6
5.0E-4                    0.0265                   6.09882338933925E-6
5.0E-4                    0.0275                   5.425895991227742E-6
5.0E-4                    0.0285                   5.565089264860268E-6
5.0E-4                    0.0295                   6.119268880400277E-6
5.0E-4                    0.0305                   1.2578826851898335E-5
5.0E-4                    0.0315                   9.453786642448476E-6
0.0015                    -0.0315                  2.7870635804537E-6
0.0015                    -0.0305                  5.554052892755015E-6
0.0015                    -0.0295                  6.000803435280256E-6
0.0015                    -0.0285                  6.411799203470097E-6
0.0015                    -0.0275                  6.5501674174393495E-6
0.0015                    -0.0265                  6.665345361312188E-6
0.0015                    -0.0255                  6.7521854454096556E-6
0.0015                    -0.0245                  6.825570588026115E-6
0.0015                    -0.0235                  6.892278283657985E-6
0.0015                    -0.0225                  6.966800296075091E-6
0.0015                    -0.0215                  7.040828279912293E-6
0.0015                    -0.0205                  7.110367315383709E-6
0.0015                    -0.0195                  7.180446241730205E-6
0.0015                    -0.0185                  7.252659988663168E-6
0.0015                    -0.0175                  7.33154170275371E-6
0.0015                    -0.0165                  7.414136051772849E-6
0.0015                    -0.0155                  7.508733938590397E-6
0.0015                    -0.0145                  7.6201445795049554E-6
0.0015                    -0.0135                  7.747549707308868E-6
0.0015                    -0.0125                  7.89042161507388E-6
0.0015                    -0.0115                  8.042510932396403E-6
0.0015                    -0.0105                  8.206167152426119E-6
0.0015                    -0.0095                  8.371850639791947E-6
0.0015                    -0.0085                  8.515102553681493E-6
0.0015                    -0.0075                  8.634796174535325E-6
0.0015                    -0.0065                  8.727872884840802E-6
0.0015                    -0.0055                  8.78467316180923E-6
0.0015                    -0.0045                  8.826390068642933E-6
0.0015                    -0.0035                  8.868621660114833E-6
0.0015                    -0.0025                  8.911570365703416E-6
0.0015                    -0.0015                  8.96677226240907E-6
0.0015                    -5.0E-4                  9.073920239657531E-6
0.0015                    5.0E-4                   9.25701854011664E-6
0.0015                    0.0015                   9.555518633608725E-6
0.0015                    0.0025                   1.0234366151574616E-5
0.0015                    0.0035                   1.1499554496230818E-5
0.0015                    0.0045                   1.3905660209507301E-5
0.0015                    0.0055                   1.965152530513596E-5
0.0015                    0.0065                   3.2272401617747046E-5
0.0015                    0.0075                   5.786974164082769E-5
0.0015                    0.0085                   1.0973324888537517E-4
0.0015                    0.0095                   1.8197891910462312E-4
0.0015                    0.0105                   4.0842230683028744E-4
0.0015                    0.0115                   9.047113087043366E-4
0.0015                    0.0125                   0.0012342011225530442
0.0015                    0.0135                   7.475579892338337E-4
0.0015                    0.0145                   0.004861995168449887
0.0015                    0.0155                   0.01518705095538003
0.0015                    0.0165                   0.024594623056080123
0.0015                    0.0175                   0.023083977464871508
0.0015                    0.0185                   0.013936796212205607
0.0015                    0.0195                   0.005926110761270845
0.0015                    0.0205                   0.001749183373320326
0.0015                    0.0215                   4.917625966725956E-4
0.0015                    0.0225                   1.1985760947120537E-4
0.0015                    0.0235                   3.4449622075122054E-5
0.0015                    0.0245                   1.3842160402568681E-5
0.0015                    0.0255                   7.928633446748193E-6
0.0015                    0.0265                   5.969152687064063E-6
0.0015                    0.0275                   5.345178840242877E-6
0.0015                    0.0285                   5.458387782104263E-6
0.0015                    0.0295                   6.00607661122928E-6
0.0015                    0.0305                   8.735016638015776E-6
0.0015                    0.0315                   5.5936091513293586E-6
0.0025                    -0.0315                  2.920437073482575E-6
0.0025                    -0.0305                  5.671612862738275E-6
0.0025                    -0.0295                  5.917892174658085E-6
0.0025                    -0.0285                  6.168689894891708E-6
0.0025                    -0.0275                  6.086308548901342E-6
0.0025                    -0.0265                  5.963848254547884E-6
0.0025                    -0.0255                  5.830855592776676E-6
0.0025                    -0.0245                  5.714853289653542E-6
0.0025                    -0.0235                  5.618755016493475E-6
0.0025                    -0.0225                  5.542098792827415E-6
0.0025                    -0.0215                  5.482332920208173E-6
0.0025                    -0.0205                  5.435989438087026E-6
0.0025                    -0.0195                  5.400662785000638E-6
0.0025                    -0.0185                  5.37588007530655E-6
0.0025                    -0.0175                  5.361550759994288E-6
0.0025                    -0.0165                  5.360015165115885E-6
0.0025                    -0.0155                  5.374140867510701E-6
0.0025                    -0.0145                  5.407853951441521E-6
0.0025                    -0.0135                  5.464379033250244E-6
0.0025                    -0.0125                  5.544614221107756E-6
0.0025                    -0.0115                  5.6473842983665585E-6
0.0025                    -0.0105                  5.766379222343076E-6
0.0025                    -0.0095                  5.8904445194273135E-6
0.0025                    -0.0085                  6.0059566822392825E-6
0.0025                    -0.0075                  6.098169778236542E-6
0.0025                    -0.0065                  6.157618067091162E-6
0.0025                    -0.0055                  6.1849167520769306E-6
0.0025                    -0.0045                  6.190576684513115E-6
0.0025                    -0.0035                  6.196250790713627E-6
0.0025                    -0.0025                  6.231174518165916E-6
0.0025                    -0.0015                  6.3309215312694404E-6
0.0025                    -5.0E-4                  6.538064653091544E-6
0.0025                    5.0E-4                   6.920834303617891E-6
0.0025                    0.0015                   7.639397862955964E-6
0.0025                    0.0025                   9.052918135195088E-6
0.0025                    0.0035                   1.1983629435243364E-5
0.0025                    0.0045                   1.801621257185434E-5
0.0025                    0.0055                   2.9600528680900773E-5
0.0025                    0.0065                   5.027899784494842E-5
0.0025                    0.0075                   8.52186026108535E-5
0.0025                    0.0085                   1.427323878542423E-4
0.0025                    0.0095                   3.214298179775698E-4
0.0025                    0.0105                   8.126462519293526E-4
0.0025                    0.0115                   0.0012343629159174282
0.0025                    0.0125                   1.8230059956332752E-4
0.0025                    0.0135                   0.004136612291503512
0.0025                    0.0145                   0.012395448333801622
0.0025                    0.0155                   0.021221078425305923
0.0025                    0.0165                   0.02436454167989369
0.0025                    0.0175                   0.018509328622892306
0.0025                    0.0185                   0.009208981333683376
0.0025                    0.0195                   0.0034212581330128776
0.0025                    0.0205                   0.0011194350734980607
0.0025                    0.0215                   3.5012108662580923E-4
0.0025                    0.0225                   9.086250800310204E-5
0.0025                    0.0235                   3.111399005074254E-5
0.0025                    0.0245                   1.2812254082735893E-5
0.0025                    0.0255                   7.529270417880721E-6
0.0025                    0.0265                   5.7827408541630436E-6
0.0025                    0.0275                   5.231898273573777E-6
0.0025                    0.0285                   5.287168065951716E-6
0.0025                    0.0295                   5.365803392113225E-6
0.0025                    0.0305                   7.3884671051350595E-6
0.0025                    0.0315                   4.757845659091076E-6
0.0035                    -0.0315                  3.1380746342307235E-6
0.0035                    -0.0305                  5.883566445804372E-6
0.0035                    -0.0295                  6.061118209300592E-6
0.0035                    -0.0285                  6.520998742425168E-6
0.0035                    -0.0275                  6.5550111760762395E-6
0.0035                    -0.0265                  6.466313983469044E-6
0.0035                    -0.0255                  6.311475322084092E-6
0.0035                    -0.0245                  6.150612850706671E-6
0.0035                    -0.0235                  6.000382357552592E-6
0.0035                    -0.0225                  5.868229062770839E-6
0.0035                    -0.0215                  5.75444235829305E-6
0.0035                    -0.0205                  5.657064190469046E-6
0.0035                    -0.0195                  5.5736876143983205E-6
0.0035                    -0.0185                  5.5026543400667265E-6
0.0035                    -0.0175                  5.443926410729706E-6
0.0035                    -0.0165                  5.3993298857998E-6
0.0035                    -0.0155                  5.373062027760302E-6
0.0035                    -0.0145                  5.370863088534489E-6
0.0035                    -0.0135                  5.398763685498979E-6
0.0035                    -0.0125                  5.461505263985935E-6
0.0035                    -0.0115                  5.56051812102729E-6
0.0035                    -0.0105                  5.692329781990962E-6
0.0035                    -0.0095                  5.8469940509130485E-6
0.0035                    -0.0085                  6.008061580910092E-6
0.0035                    -0.0075                  6.1556451625434E-6
0.0035                    -0.0065                  6.271503061304595E-6
0.0035                    -0.0055                  6.3461067663473905E-6
0.0035                    -0.0045                  6.386116179769779E-6
0.0035                    -0.0035                  6.417862305373118E-6
0.0035                    -0.0025                  6.486712632590621E-6
0.0035                    -0.0015                  6.65506288659234E-6
0.0035                    -5.0E-4                  7.006224378091916E-6
0.0035                    5.0E-4                   7.672258642737556E-6
0.0035                    0.0015                   8.9229409532461E-6
0.0035                    0.0025                   1.1412724654639709E-5
0.0035                    0.0035                   1.6740770579076123E-5
0.0035                    0.0045                   2.7996849738900864E-5
0.0035                    0.0055                   4.922775481246657E-5
0.0035                    0.0065                   8.42361712272603E-5
0.0035                    0.0075                   1.2728031246575172E-4
0.0035                    0.0085                   2.1896311395629804E-4
0.0035                    0.0095                   5.589523296934062E-4
0.0035                    0.0105                   0.0010394565789730173
0.0035                    0.0115                   5.602962886328821E-4
0.0035                    0.0125                   0.003654119827076579
0.0035                    0.0135                   0.010817844445204512
0.0035                    0.0145                   0.01869935637164436
0.0035                    0.0155                   0.023127597696908427
0.0035                    0.0165                   0.020967367592258233
0.0035                    0.0175                   0.012952411444503856
0.0035                    0.0185                   0.00538158228291347
0.0035                    0.0195                   0.001937135320941465
0.0035                    0.0205                   6.903211661151455E-4
0.0035                    0.0215                   2.2038481160720317E-4
0.0035                    0.0225                   6.499389594733144E-5
0.0035                    0.0235                   2.4241903455462322E-5
0.0035                    0.0245                   1.1272749397630986E-5
0.0035                    0.0255                   6.972889421383571E-6
0.0035                    0.0265                   5.5370134667114704E-6
0.0035                    0.0275                   5.063916810168404E-6
0.0035                    0.0285                   5.040110386765027E-6
0.0035                    0.0295                   5.032570121353373E-6
0.0035                    0.0305                   7.076758443188835E-6
0.0035                    0.0315                   4.6134964286733015E-6
0.0045                    -0.0315                  3.2721083590117063E-6
0.0045                    -0.0305                  5.942096230238968E-6
0.0045                    -0.0295                  5.954043144181552E-6
0.0045                    -0.0285                  6.535709508985112E-6
0.0045                    -0.0275                  6.7330176910540336E-6
0.0045                    -0.0265                  6.761606702798515E-6
0.0045                    -0.0255                  6.658897958413032E-6
0.0045                    -0.0245                  6.505376530303821E-6
0.0045                    -0.0235                  6.336795890474252E-6
0.0045                    -0.0225                  6.172847796834875E-6
0.0045                    -0.0215                  6.021167121449566E-6
0.0045                    -0.0205                  5.883759200071583E-6
0.0045                    -0.0195                  5.759718234676905E-6
0.0045                    -0.0185                  5.647529779414221E-6
0.0045                    -0.0175                  5.546686812948002E-6
0.0045                    -0.0165                  5.4590320880917024E-6
0.0045                    -0.0155                  5.3894262643800925E-6
0.0045                    -0.0145                  5.3456934418271494E-6
0.0045                    -0.0135                  5.337465616288373E-6
0.0045                    -0.0125                  5.37411447482341E-6
0.0045                    -0.0115                  5.4623174535273744E-6
0.0045                    -0.0105                  5.603530234620594E-6
0.0045                    -0.0095                  5.791841560326803E-6
0.0045                    -0.0085                  6.0125236928925334E-6
0.0045                    -0.0075                  6.242330042853984E-6
0.0045                    -0.0065                  6.4538352189118695E-6
0.0045                    -0.0055                  6.624835037142339E-6
0.0045                    -0.0045                  6.751338209579484E-6
0.0045                    -0.0035                  6.861349593326819E-6
0.0045                    -0.0025                  7.025409001142171E-6
0.0045                    -0.0015                  7.362393070985058E-6
0.0045                    -5.0E-4                  8.051826857241963E-6
0.0045                    5.0E-4                   9.354047528165931E-6
0.0045                    0.0015                   1.1701387108912552E-5
0.0045                    0.0025                   1.6014507310163726E-5
0.0045                    0.0035                   2.447771512749313E-5
0.0045                    0.0045                   4.315751222439155E-5
0.0045                    0.0055                   8.261805847826542E-5
0.0045                    0.0065                   1.301257237661008E-4
0.0045                    0.0075                   1.724827413978925E-4
0.0045                    0.0085                   3.404774830882933E-4
0.0045                    0.0095                   6.979834587214396E-4
0.0045                    0.0105                   6.29897270020072E-4
0.0045                    0.0115                   0.00318789513614545
0.0045                    0.0125                   0.009459742261184515
0.0045                    0.0135                   0.01667564345938898
0.0045                    0.0145                   0.021458322996509446
0.0045                    0.0155                   0.02134673120107492
0.0045                    0.0165                   0.015721085348644106
0.0045                    0.0175                   0.007862333495963185
0.0045                    0.0185                   0.002840825609908293
0.0045                    0.0195                   0.0010669135955207445
0.0045                    0.0205                   3.967829005035883E-4
0.0045                    0.0215                   1.3260592107994452E-4
0.0045                    0.0225                   4.172408025360184E-5
0.0045                    0.0235                   1.7147766766062E-5
0.0045                    0.0245                   9.069183441330237E-6
0.0045                    0.0255                   6.224486630827413E-6
0.0045                    0.0265                   5.2120880835081695E-6
0.0045                    0.0275                   4.857270971744884E-6
0.0045                    0.0285                   4.871637058091877E-6
0.0045                    0.0295                   4.923762956036403E-6
0.0045                    0.0305                   7.002075204954504E-6
0.0045                    0.0315                   4.57277461119856E-6
0.0055                    -0.0315                  3.376967949406668E-6
0.0055                    -0.0305                  5.996913481699727E-6
0.0055                    -0.0295                  5.85227673535513E-6
0.0055                    -0.0285                  6.482980878128463E-6
0.0055                    -0.0275                  6.80686302780331E-6
0.0055                    -0.0265                  6.977308666298645E-6
0.0055                    -0.0255                  6.978808962361251E-6
0.0055                    -0.0245                  6.88389984712599E-6
0.0055                    -0.0235                  6.73826500768065E-6
0.0055                    -0.0225                  6.574046552625719E-6
0.0055                    -0.0215                  6.408185218222106E-6
0.0055                    -0.0205                  6.248769722990281E-6
0.0055                    -0.0195                  6.0982627201115636E-6
0.0055                    -0.0185                  5.956318149566904E-6
0.0055                    -0.0175                  5.822194654654069E-6
0.0055                    -0.0165                  5.696983888854169E-6
0.0055                    -0.0155                  5.5854269908635E-6
0.0055                    -0.0145                  5.496784263986971E-6
0.0055                    -0.0135                  5.4442958882484534E-6
0.0055                    -0.0125                  5.443117611171242E-6
0.0055                    -0.0115                  5.507219821247734E-6
0.0055                    -0.0105                  5.64616180101639E-6
0.0055                    -0.0095                  5.8621801845876855E-6
0.0055                    -0.0085                  6.1474982566060475E-6
0.0055                    -0.0075                  6.4822288008706565E-6
0.0055                    -0.0065                  6.835214624570879E-6
0.0055                    -0.0055                  7.172541754666792E-6
0.0055                    -0.0045                  7.477817178456393E-6
0.0055                    -0.0035                  7.782849358669978E-6
0.0055                    -0.0025                  8.204695862730563E-6
0.0055                    -0.0015                  8.987619099772343E-6
0.0055                    -5.0E-4                  1.0542641903476048E-5
0.0055                    5.0E-4                   1.3509049511733098E-5
0.0055                    0.0015                   1.8627004683699378E-5
0.0055                    0.0025                   2.6980490367045275E-5
0.0055                    0.0035                   4.1800044778975856E-5
0.0055                    0.0045                   7.127603772763311E-5
0.0055                    0.0055                   1.371285032564736E-4
0.0055                    0.0065                   2.0994992585877188E-4
0.0055                    0.0075                   2.665883717965102E-4
0.0055                    0.0085                   4.532105899061812E-4
0.0055                    0.0095                   6.824177905015671E-4
0.0055                    0.0105                   0.002815545125498821
0.0055                    0.0115                   0.008116257767805548
0.0055                    0.0125                   0.014732712573687141
0.0055                    0.0135                   0.01969356959447047
0.0055                    0.0145                   0.020812699928340988
0.0055                    0.0155                   0.017167187183765146
0.0055                    0.0165                   0.01018433631075333
0.0055                    0.0175                   0.004147082161214545
0.0055                    0.0185                   0.0014228279850677806
0.0055                    0.0195                   5.555772133645253E-4
0.0055                    0.0205                   1.9769037094275032E-4
0.0055                    0.0215                   6.661728243881375E-5
0.0055                    0.0225                   2.474108416329097E-5
0.0055                    0.0235                   1.152723232450444E-5
0.0055                    0.0245                   7.010515083144857E-6
0.0055                    0.0255                   5.391921992196984E-6
0.0055                    0.0265                   4.8408143012739605E-6
0.0055                    0.0275                   4.662302846625895E-6
0.0055                    0.0285                   4.770388317405195E-6
0.0055                    0.0295                   4.877882688475835E-6
0.0055                    0.0305                   6.999283905308684E-6
0.0055                    0.0315                   4.584601570511273E-6
0.0065                    -0.0315                  3.468771435815043E-6
0.0065                    -0.0305                  6.050054252766359E-6
0.0065                    -0.0295                  5.751579254607323E-6
0.0065                    -0.0285                  6.38338081896559E-6
0.0065                    -0.0275                  6.776573639950424E-6
0.0065                    -0.0265                  7.059843448978016E-6
0.0065                    -0.0255                  7.172502890856949E-6
0.0065                    -0.0245                  7.161589417340038E-6
0.0065                    -0.0235                  7.0669888148438055E-6
0.0065                    -0.0225                  6.926427710903189E-6
0.0065                    -0.0215                  6.765000950889149E-6
0.0065                    -0.0205                  6.59787042409131E-6
0.0065                    -0.0195                  6.432353734957734E-6
0.0065                    -0.0185                  6.270520803691366E-6
0.0065                    -0.0175                  6.111780651748412E-6
0.0065                    -0.0165                  5.955822584601433E-6
0.0065                    -0.0155                  5.805634282962879E-6
0.0065                    -0.0145                  5.669976015803767E-6
0.0065                    -0.0135                  5.564360807945975E-6
0.0065                    -0.0125                  5.509770490132512E-6
0.0065                    -0.0115                  5.5291971744564E-6
0.0065                    -0.0105                  5.643222255069752E-6
0.0065                    -0.0095                  5.866192125628476E-6
0.0065                    -0.0085                  6.203306500571914E-6
0.0065                    -0.0075                  6.647526600247659E-6
0.0065                    -0.0065                  7.1769492749169975E-6
0.0065                    -0.0055                  7.759345651337491E-6