% Model:              Benchmark260518.mph
% Version:            COMSOL 6.2.0.339
% Date:               May 20 2026, 14:17
% Dimension:          2
% Nodes:              4096
% Expressions:        1
% Description:        速度大小
% Length unit:        m
% x                       y                        spf.U (m/s)
5.0E-4                    -0.0315                  1.3138820383148247E-6
5.0E-4                    -0.0305                  2.6538947758345806E-6
5.0E-4                    -0.0295                  2.9815080766074156E-6
5.0E-4                    -0.0285                  3.324614429648837E-6
5.0E-4                    -0.0275                  3.514972762139348E-6
5.0E-4                    -0.0265                  3.6721780898550986E-6
5.0E-4                    -0.0255                  3.7982150052207067E-6
5.0E-4                    -0.0245                  3.90775640355076E-6
5.0E-4                    -0.0235                  4.006611946026078E-6
5.0E-4                    -0.0225                  4.099405849644289E-6
5.0E-4                    -0.0215                  4.185882678857254E-6
5.0E-4                    -0.0205                  4.269959196140808E-6
5.0E-4                    -0.0195                  4.353429981596367E-6
5.0E-4                    -0.0185                  4.438326144545824E-6
5.0E-4                    -0.0175                  4.5275981628320646E-6
5.0E-4                    -0.0165                  4.626328286691958E-6
5.0E-4                    -0.0155                  4.7357539175706224E-6
5.0E-4                    -0.0145                  4.858655510447666E-6
5.0E-4                    -0.0135                  4.996817425220936E-6
5.0E-4                    -0.0125                  5.144978532407051E-6
5.0E-4                    -0.0115                  5.295966908956591E-6
5.0E-4                    -0.0105                  5.436838491870287E-6
5.0E-4                    -0.0095                  5.550614458260057E-6
5.0E-4                    -0.0085                  5.623528135856455E-6
5.0E-4                    -0.0075                  5.649630013759058E-6
5.0E-4                    -0.0065                  5.634487263263619E-6
5.0E-4                    -0.0055                  5.596570612412781E-6
5.0E-4                    -0.0045                  5.553828794857078E-6
5.0E-4                    -0.0035                  5.536004460728206E-6
5.0E-4                    -0.0025                  5.557672009151225E-6
5.0E-4                    -0.0015                  5.657631207693455E-6
5.0E-4                    -5.0E-4                  5.878625862843325E-6
5.0E-4                    5.0E-4                   6.266946428825316E-6
5.0E-4                    0.0015                   7.631239836867223E-6
5.0E-4                    0.0025                   1.1153721451584966E-5
5.0E-4                    0.0035                   1.7893401066559425E-5
5.0E-4                    0.0045                   2.9812355226742575E-5
5.0E-4                    0.0055                   4.9874413108971704E-5
5.0E-4                    0.0065                   7.60479058699693E-5
5.0E-4                    0.0075                   2.1367921908411685E-4
5.0E-4                    0.0085                   4.954564399949474E-4
5.0E-4                    0.0095                   7.154145102317828E-4
5.0E-4                    0.0105                   6.46418050370251E-4
5.0E-4                    0.0115                   0.004908940008033457
5.0E-4                    0.0125                   0.01829546742292076
5.0E-4                    0.0135                   0.025401794263401473
5.0E-4                    0.0145                   0.019390916775913418
5.0E-4                    0.0155                   0.011425737182725663
5.0E-4                    0.0165                   0.0044283201938773095
5.0E-4                    0.0175                   0.0010405572617252206
5.0E-4                    0.0185                   1.99376120450913E-4
5.0E-4                    0.0195                   5.790911724721511E-5
5.0E-4                    0.0205                   9.84533998295389E-6
5.0E-4                    0.0215                   5.2764255220584445E-6
5.0E-4                    0.0225                   4.58553592531832E-6
5.0E-4                    0.0235                   4.417752702499612E-6
5.0E-4                    0.0245                   4.307694159803531E-6
5.0E-4                    0.0255                   4.265352389946921E-6
5.0E-4                    0.0265                   4.187824045424957E-6
5.0E-4                    0.0275                   4.066535903548332E-6
5.0E-4                    0.0285                   3.915193657011597E-6
5.0E-4                    0.0295                   3.5658005443033285E-6
5.0E-4                    0.0305                   3.272391782570945E-6
5.0E-4                    0.0315                   1.6663063238957293E-6
0.0015                    -0.0315                  2.574618393067573E-6
0.0015                    -0.0305                  5.143606069479778E-6
0.0015                    -0.0295                  5.57275372205327E-6
0.0015                    -0.0285                  5.960903159434817E-6
0.0015                    -0.0275                  6.0929720627280126E-6
0.0015                    -0.0265                  6.19851850713851E-6
0.0015                    -0.0255                  6.28171996205381E-6
0.0015                    -0.0245                  6.361325698272415E-6
0.0015                    -0.0235                  6.4410306695727095E-6
0.0015                    -0.0225                  6.523576667265963E-6
0.0015                    -0.0215                  6.607164871416509E-6
0.0015                    -0.0205                  6.694308204607856E-6
0.0015                    -0.0195                  6.786416941560856E-6
0.0015                    -0.0185                  6.8858513826351515E-6
0.0015                    -0.0175                  6.9969506110529E-6
0.0015                    -0.0165                  7.126734863373464E-6
0.0015                    -0.0155                  7.279210631035823E-6
0.0015                    -0.0145                  7.4595284562855325E-6
0.0015                    -0.0135                  7.670517541049929E-6
0.0015                    -0.0125                  7.905756620126518E-6
0.0015                    -0.0115                  8.152780110379316E-6
0.0015                    -0.0105                  8.38918506226729E-6
0.0015                    -0.0095                  8.585565884990417E-6
0.0015                    -0.0085                  8.716443832351865E-6
0.0015                    -0.0075                  8.77083511891028E-6
0.0015                    -0.0065                  8.761510666903432E-6
0.0015                    -0.0055                  8.727806587721421E-6
0.0015                    -0.0045                  8.721671842434631E-6
0.0015                    -0.0035                  8.81480487127837E-6
0.0015                    -0.0025                  9.08305527112809E-6
0.0015                    -0.0015                  9.66982449500988E-6
0.0015                    -5.0E-4                  1.0817741470661477E-5
0.0015                    5.0E-4                   1.3017846024569685E-5
0.0015                    0.0015                   1.7811350882969753E-5
0.0015                    0.0025                   2.748935293329703E-5
0.0015                    0.0035                   4.491938247379847E-5
0.0015                    0.0045                   7.481275207578807E-5
0.0015                    0.0055                   1.2281475780238983E-4
0.0015                    0.0065                   2.703299983075676E-4
0.0015                    0.0075                   6.982551016939387E-4
0.0015                    0.0085                   0.0011784195866412675
0.0015                    0.0095                   9.590813122838111E-4
0.0015                    0.0105                   0.0033945740588534963
0.0015                    0.0115                   0.013630888492721448
0.0015                    0.0125                   0.02424691051401921
0.0015                    0.0135                   0.0243518443432813
0.0015                    0.0145                   0.0161433821444688
0.0015                    0.0155                   0.007593948792973117
0.0015                    0.0165                   0.0024327931160119417
0.0015                    0.0175                   7.643301791784645E-4
0.0015                    0.0185                   2.444632619307629E-4
0.0015                    0.0195                   6.211885367590868E-5
0.0015                    0.0205                   1.9797216380724848E-5
0.0015                    0.0215                   9.068165243746294E-6
0.0015                    0.0225                   7.291882469823098E-6
0.0015                    0.0235                   6.9506166168495225E-6
0.0015                    0.0245                   6.8481678503901594E-6
0.0015                    0.0255                   6.857597912185176E-6
0.0015                    0.0265                   6.853293125589608E-6
0.0015                    0.0275                   6.814520005982325E-6
0.0015                    0.0285                   6.764407136912179E-6
0.0015                    0.0295                   6.443060120080963E-6
0.0015                    0.0305                   6.2232422341296245E-6
0.0015                    0.0315                   3.2285300450642056E-6
0.0025                    -0.0315                  2.694767886582514E-6
0.0025                    -0.0305                  5.254777038311344E-6
0.0025                    -0.0295                  5.510431423841063E-6
0.0025                    -0.0285                  5.7470289086445705E-6
0.0025                    -0.0275                  5.66806033093127E-6
0.0025                    -0.0265                  5.551370999732126E-6
0.0025                    -0.0255                  5.428021550874742E-6
0.0025                    -0.0245                  5.325283767439365E-6
0.0025                    -0.0235                  5.245424785236952E-6
0.0025                    -0.0225                  5.187932955729075E-6
0.0025                    -0.0215                  5.150258122953641E-6
0.0025                    -0.0205                  5.129799129433043E-6
0.0025                    -0.0195                  5.1252808709320955E-6
0.0025                    -0.0185                  5.13706354213565E-6
0.0025                    -0.0175                  5.167749918385966E-6
0.0025                    -0.0165                  5.221792422527096E-6
0.0025                    -0.0155                  5.305121077350659E-6
0.0025                    -0.0145                  5.423134010248288E-6
0.0025                    -0.0135                  5.578495744034145E-6
0.0025                    -0.0125                  5.768638983809935E-6
0.0025                    -0.0115                  5.982805544785397E-6
0.0025                    -0.0105                  6.201239635174851E-6
0.0025                    -0.0095                  6.396812948574346E-6
0.0025                    -0.0085                  6.541587664958329E-6
0.0025                    -0.0075                  6.619340964425059E-6
0.0025                    -0.0065                  6.641483194759718E-6
0.0025                    -0.0055                  6.660004839531112E-6
0.0025                    -0.0045                  6.773027412591225E-6
0.0025                    -0.0035                  7.122675948160815E-6
0.0025                    -0.0025                  7.922395565519386E-6
0.0025                    -0.0015                  9.534627643745418E-6
0.0025                    -5.0E-4                  1.2626480465125357E-5
0.0025                    5.0E-4                   1.8412139194430266E-5
0.0025                    0.0015                   2.8842314457618977E-5
0.0025                    0.0025                   4.6997924221101923E-5
0.0025                    0.0035                   7.773832235888939E-5
0.0025                    0.0045                   1.2414936659326192E-4
0.0025                    0.0055                   2.3864691017214852E-4
0.0025                    0.0065                   6.08546422532515E-4
0.0025                    0.0075                   0.0011802761309389872
0.0025                    0.0085                   9.90507764262446E-4
0.0025                    0.0095                   0.0020871387594092526
0.0025                    0.0105                   0.009963882214765338
0.0025                    0.0115                   0.019949844073529815
0.0025                    0.0125                   0.025026972423034782
0.0025                    0.0135                   0.020822916952299403
0.0025                    0.0145                   0.0116787135422278
0.0025                    0.0155                   0.004706216726863931
0.0025                    0.0165                   0.0016127986153127406
0.0025                    0.0175                   6.518135936220503E-4
0.0025                    0.0185                   2.2344366282631863E-4
0.0025                    0.0195                   6.352689978572958E-5
0.0025                    0.0205                   2.0893546655886554E-5
0.0025                    0.0215                   9.344103233654544E-6
0.0025                    0.0225                   6.263144387064286E-6
0.0025                    0.0235                   5.598593478828018E-6
0.0025                    0.0245                   5.548990953245358E-6
0.0025                    0.0255                   5.657190653781435E-6
0.0025                    0.0265                   5.819093513694919E-6
0.0025                    0.0275                   5.984863085214063E-6
0.0025                    0.0285                   6.151710101244567E-6
0.0025                    0.0295                   6.072306285345975E-6
0.0025                    0.0305                   6.3438884499407405E-6
0.0025                    0.0315                   3.470569428472751E-6
0.0035                    -0.0315                  2.895152919306875E-6
0.0035                    -0.0305                  5.453674278063578E-6
0.0035                    -0.0295                  5.650405689808592E-6
0.0035                    -0.0285                  6.077804192486737E-6
0.0035                    -0.0275                  6.101105294436706E-6
0.0035                    -0.0265                  6.008237354170423E-6
0.0035                    -0.0255                  5.856962673964719E-6
0.0035                    -0.0245                  5.705502712129251E-6
0.0035                    -0.0235                  5.570405639055257E-6
0.0035                    -0.0225                  5.4586032030566525E-6
0.0035                    -0.0215                  5.370330892153127E-6
0.0035                    -0.0205                  5.303887489197448E-6
0.0035                    -0.0195                  5.25738430531659E-6
0.0035                    -0.0185                  5.230379435399371E-6
0.0035                    -0.0175                  5.22489742346224E-6
0.0035                    -0.0165                  5.245983202161012E-6
0.0035                    -0.0155                  5.301214251626233E-6
0.0035                    -0.0145                  5.399331664653592E-6
0.0035                    -0.0135                  5.547898256189327E-6
0.0035                    -0.0125                  5.75049894037845E-6
0.0035                    -0.0115                  6.004131900812868E-6
0.0035                    -0.0105                  6.296647329129002E-6
0.0035                    -0.0095                  6.604750463025209E-6
0.0035                    -0.0085                  6.894801292812264E-6
0.0035                    -0.0075                  7.131257458642591E-6
0.0035                    -0.0065                  7.297806412234319E-6
0.0035                    -0.0055                  7.432570117693412E-6
0.0035                    -0.0045                  7.672524521876933E-6
0.0035                    -0.0035                  8.303450346888262E-6
0.0035                    -0.0025                  9.824003704286424E-6
0.0035                    -0.0015                  1.3055573276447295E-5
0.0035                    -5.0E-4                  1.9272331013585392E-5
0.0035                    5.0E-4                   3.0354450740343112E-5
0.0035                    0.0015                   4.909011239881628E-5
0.0035                    0.0025                   7.928076366437349E-5
0.0035                    0.0035                   1.2053406827099068E-4
0.0035                    0.0045                   2.0606637676381722E-4
0.0035                    0.0055                   4.7995957245728266E-4
0.0035                    0.0065                   0.001003707584138867
0.0035                    0.0075                   0.001113358544865071
0.0035                    0.0085                   0.0012455106271802496
0.0035                    0.0095                   0.007654615294202249
0.0035                    0.0105                   0.016580323551211966
0.0035                    0.0115                   0.023102545623826506
0.0035                    0.0125                   0.02306767724285489
0.0035                    0.0135                   0.016066047664591406
0.0035                    0.0145                   0.007627652178627241
0.0035                    0.0155                   0.002856457381975161
0.0035                    0.0165                   0.0010470855726054753
0.0035                    0.0175                   4.1056706457636474E-4
0.0035                    0.0185                   1.4807910240466517E-4
0.0035                    0.0195                   4.7431069575971246E-5
0.0035                    0.0205                   1.8155075596569543E-5
0.0035                    0.0215                   9.297440979947058E-6
0.0035                    0.0225                   6.642410250104488E-6
0.0035                    0.0235                   5.955729052404074E-6
0.0035                    0.0245                   5.913059988637263E-6
0.0035                    0.0255                   6.045968702816852E-6
0.0035                    0.0265                   6.213351733789558E-6
0.0035                    0.0275                   6.336896536861964E-6
0.0035                    0.0285                   6.402508852742406E-6
0.0035                    0.0295                   6.160923755690158E-6
0.0035                    0.0305                   6.676033343000127E-6
0.0035                    0.0315                   3.824590365124056E-6
0.0045                    -0.0315                  3.0316019147503105E-6
0.0045                    -0.0305                  5.523935475683864E-6
0.0045                    -0.0295                  5.558487126324496E-6
0.0045                    -0.0285                  6.092717248454108E-6
0.0045                    -0.0275                  6.258855566452921E-6
0.0045                    -0.0265                  6.264204376671424E-6
0.0045                    -0.0255                  6.150034596894645E-6
0.0045                    -0.0245                  5.99492790973034E-6
0.0045                    -0.0235                  5.834370607119015E-6
0.0045                    -0.0225                  5.6876742911592945E-6
0.0045                    -0.0215                  5.562027196171545E-6
0.0045                    -0.0205                  5.4589832103194335E-6
0.0045                    -0.0195                  5.377532810683821E-6
0.0045                    -0.0185                  5.316739057440922E-6
0.0045                    -0.0175                  5.277801365007884E-6
0.0045                    -0.0165                  5.2655166913222184E-6
0.0045                    -0.0155                  5.2887672513026025E-6
0.0045                    -0.0145                  5.359657321274479E-6
0.0045                    -0.0135                  5.4914278900836985E-6
0.0045                    -0.0125                  5.695766532471199E-6
0.0045                    -0.0115                  5.980184638239715E-6
0.0045                    -0.0105                  6.345276161428269E-6
0.0045                    -0.0095                  6.780445549630089E-6
0.0045                    -0.0085                  7.258335248505088E-6
0.0045                    -0.0075                  7.734582001911338E-6
0.0045                    -0.0065                  8.167462905102838E-6
0.0045                    -0.0055                  8.575064021148736E-6
0.0045                    -0.0045                  9.145642399067636E-6
0.0045                    -0.0035                  1.0410376734704304E-5
0.0045                    -0.0025                  1.342606102578202E-5
0.0045                    -0.0015                  1.9795386502322354E-5
0.0045                    -5.0E-4                  3.156756520627414E-5
0.0045                    5.0E-4                   5.1096702238654386E-5
0.0045                    0.0015                   8.057890045809681E-5
0.0045                    0.0025                   1.1407740647852773E-4
0.0045                    0.0035                   1.7219617520940124E-4
0.0045                    0.0045                   3.75156159325519E-4
0.0045                    0.0055                   7.939922881808056E-4
0.0045                    0.0065                   0.0010072047130056704
0.0045                    0.0075                   7.83193396895057E-4
0.0045                    0.0085                   0.005886691260146545
0.0045                    0.0095                   0.013801540673204297
0.0045                    0.0105                   0.020718973627537027
0.0045                    0.0115                   0.02300872587281974
0.0045                    0.0125                   0.019113957899032658
0.0045                    0.0135                   0.01111594065867399
0.0045                    0.0145                   0.004531459379012844
0.0045                    0.0155                   0.0016582582019960075
0.0045                    0.0165                   6.157016005303236E-4
0.0045                    0.0175                   2.175501322239756E-4
0.0045                    0.0185                   7.525299543558825E-5
0.0045                    0.0195                   2.915001587288518E-5
0.0045                    0.0205                   1.3870542548918328E-5
0.0045                    0.0215                   8.486135796518771E-6
0.0045                    0.0225                   6.687090091952067E-6
0.0045                    0.0235                   6.218363307100246E-6
0.0045                    0.0245                   6.215124103415557E-6
0.0045                    0.0255                   6.336389418189164E-6
0.0045                    0.0265                   6.446483270611484E-6
0.0045                    0.0275                   6.454156318676861E-6
0.0045                    0.0285                   6.371661120790212E-6
0.0045                    0.0295                   6.035350387523257E-6
0.0045                    0.0305                   6.788069450861119E-6
0.0045                    0.0315                   4.01374378623597E-6
0.0055                    -0.0315                  3.1401029999664703E-6
0.0055                    -0.0305                  5.592521086105646E-6
0.0055                    -0.0295                  5.476431852902274E-6
0.0055                    -0.0285                  6.048156382124383E-6
0.0055                    -0.0275                  6.321090036564326E-6
0.0055                    -0.0265                  6.444311666534561E-6
0.0055                    -0.0255                  6.4113761615574844E-6
0.0055                    -0.0245                  6.295284362846429E-6
0.0055                    -0.0235                  6.142470767739808E-6
0.0055                    -0.0225                  5.985060426427484E-6
0.0055                    -0.0215                  5.839607891802068E-6
0.0055                    -0.0205                  5.713352327317798E-6
0.0055                    -0.0195                  5.60776808597005E-6
0.0055                    -0.0185                  5.521971589704903E-6
0.0055                    -0.0175                  5.4558211319733036E-6
0.0055                    -0.0165                  5.412730055668233E-6
0.0055                    -0.0155                  5.4015881227237515E-6
0.0055                    -0.0145                  5.437223275258105E-6
0.0055                    -0.0135                  5.5391367748365795E-6
0.0055                    -0.0125                  5.7288751931989405E-6
0.0055                    -0.0115                  6.027081874197868E-6
0.0055                    -0.0105                  6.4508780037788666E-6
0.0055                    -0.0095                  7.010085414665796E-6
0.0055                    -0.0085                  7.69952031127395E-6
0.0055                    -0.0075                  8.490380115438268E-6
0.0055                    -0.0065                  9.341509278492297E-6
0.0055                    -0.0055                  1.02759411425747E-5
0.0055                    -0.0045                  1.1585810270447758E-5
0.0055                    -0.0035                  1.4231173231434188E-5
0.0055                    -0.0025                  2.0437560406349673E-5
0.0055                    -0.0015                  3.371685956574858E-5
0.0055                    -5.0E-4                  5.724956994072068E-5
0.0055                    5.0E-4                   9.30838516154432E-5
0.0055                    0.0015                   1.2680085630870512E-4
0.0055                    0.0025                   1.5218898369410446E-4
0.0055                    0.0035                   2.7824497886472075E-4
0.0055                    0.0045                   6.094678612729483E-4
0.0055                    0.0055                   8.241878638320445E-4
0.0055                    0.0065                   5.799563490823852E-4
0.0055                    0.0075                   0.004505472968172553
0.0055                    0.0085                   0.011392984970454484
0.0055                    0.0095                   0.018263226718100576
0.0055                    0.0105                   0.02189712823959397
0.0055                    0.0115                   0.02044976898166539
0.0055                    0.0125                   0.014200833250840244
0.0055                    0.0135                   0.00684377123011351
0.0055                    0.0145                   0.0024603653200546915
0.0055                    0.0155                   9.011876984720622E-4
0.0055                    0.0165                   3.257070428564843E-4
0.0055                    0.0175                   1.0665740722392657E-4
0.0055                    0.0185                   3.718581098218335E-5
0.0055                    0.0195                   1.828498034222045E-5
0.0055                    0.0205                   1.0697436892483187E-5
0.0055                    0.0215                   7.661089581592654E-6
0.0055                    0.0225                   6.6235800275061505E-6
0.0055                    0.0235                   6.417798615490748E-6
0.0055                    0.0245                   6.480034426355866E-6
0.0055                    0.0255                   6.57310100019788E-6
0.0055                    0.0265                   6.595449025667571E-6
0.0055                    0.0275                   6.477119899250929E-6
0.0055                    0.0285                   6.289271863303848E-6
0.0055                    0.0295                   5.922753408815721E-6
0.0055                    0.0305                   6.9268568624454615E-6
0.0055                    0.0315                   4.202331985609193E-6
0.0065                    -0.0315                  3.243410172864744E-6
0.0065                    -0.0305                  5.668359274185024E-6
0.0065                    -0.0295                  5.40092910819957E-6
0.0065                    -0.0285                  5.966447061558591E-6
0.0065                    -0.0275                  6.2922936907334014E-6
0.0065                    -0.0265                  6.504200673567405E-6
0.0065                    -0.0255                  6.5550605061279E-6
0.0065                    -0.0245                  6.496253253762635E-6
0.0065                    -0.0235                  6.371151802617592E-6
0.0065                    -0.0225                  6.21909649395772E-6
0.0065                    -0.0215                  6.065629170996904E-6
0.0065                    -0.0205                  5.925174089258261E-6
0.0065                    -0.0195                  5.803412724746505E-6
0.0065                    -0.0185                  5.7004931664386215E-6
0.0065                    -0.0175                  5.614631385522229E-6
0.0065                    -0.0165                  5.5462393125443955E-6
0.0065                    -0.0155                  5.501841599923379E-6
0.0065                    -0.0145                  5.496682817503001E-6
0.0065                    -0.0135                  5.555226492949001E-6
0.0065                    -0.0125                  5.709415025160707E-6
0.0065                    -0.0115                  5.99528742911892E-6
0.0065                    -0.0105                  6.449700469497363E-6
0.0065                    -0.0095                  7.108470461102588E-6
0.0065                    -0.0085                  8.003617139157919E-6
0.0065                    -0.0075                  9.156754548085468E-6
0.0065                    -0.0065                  1.05832031124333E-5
0.0065                    -0.0055                  1.2378120966366338E-5