% Model:              Benchmark260518.mph
% Version:            COMSOL 6.2.0.339
% Date:               May 21 2026, 11:30
% Dimension:          2
% Nodes:              4096
% Expressions:        1
% Description:        速度大小
% Length unit:        m
% x                       y                        spf.U (m/s)
5.0E-4                    -0.0315                  1.7168130259373279E-6
5.0E-4                    -0.0305                  3.3483369976917113E-6
5.0E-4                    -0.0295                  3.668071490506214E-6
5.0E-4                    -0.0285                  4.0947073993438685E-6
5.0E-4                    -0.0275                  4.285795307044514E-6
5.0E-4                    -0.0265                  4.464417539484943E-6
5.0E-4                    -0.0255                  4.596077502215164E-6
5.0E-4                    -0.0245                  4.694466366872506E-6
5.0E-4                    -0.0235                  4.7949828302360524E-6
5.0E-4                    -0.0225                  4.882349911438377E-6
5.0E-4                    -0.0215                  4.944550582025908E-6
5.0E-4                    -0.0205                  5.003278673462093E-6
5.0E-4                    -0.0195                  5.063113823093524E-6
5.0E-4                    -0.0185                  5.103977259791418E-6
5.0E-4                    -0.0175                  5.136911964565763E-6
5.0E-4                    -0.0165                  5.163889090515714E-6
5.0E-4                    -0.0155                  5.183929153744441E-6
5.0E-4                    -0.0145                  5.194969674334477E-6
5.0E-4                    -0.0135                  5.1955723662053375E-6
5.0E-4                    -0.0125                  5.185106569656213E-6
5.0E-4                    -0.0115                  5.163501246954722E-6
5.0E-4                    -0.0105                  5.1361555647621994E-6
5.0E-4                    -0.0095                  5.1302287545778064E-6
5.0E-4                    -0.0085                  5.125033140555726E-6
5.0E-4                    -0.0075                  5.125912492443457E-6
5.0E-4                    -0.0065                  5.189829233011619E-6
5.0E-4                    -0.0055                  5.323028989017217E-6
5.0E-4                    -0.0045                  5.591304752419047E-6
5.0E-4                    -0.0035                  6.063721223807379E-6
5.0E-4                    -0.0025                  6.847543409553126E-6
5.0E-4                    -0.0015                  8.262684680977269E-6
5.0E-4                    -5.0E-4                  1.1186832261808667E-5
5.0E-4                    5.0E-4                   1.803979806101381E-5
5.0E-4                    0.0015                   3.627780587547403E-5
5.0E-4                    0.0025                   8.428696004826189E-5
5.0E-4                    0.0035                   1.7739344661593317E-4
5.0E-4                    0.0045                   2.6403030673721604E-4
5.0E-4                    0.0055                   2.5005888290224204E-4
5.0E-4                    0.0065                   2.3805096886029596E-4
5.0E-4                    0.0075                   4.7147453428395084E-4
5.0E-4                    0.0085                   7.300111720617272E-4
5.0E-4                    0.0095                   8.581207921035546E-4
5.0E-4                    0.0105                   9.270673072994019E-4
5.0E-4                    0.0115                   0.0010019929715028603
5.0E-4                    0.0125                   0.0010287950577327787
5.0E-4                    0.0135                   9.706940585181258E-4
5.0E-4                    0.0145                   7.069473009118399E-4
5.0E-4                    0.0155                   0.004416908385007222
5.0E-4                    0.0165                   0.017334370615414946
5.0E-4                    0.0175                   0.025010644008958752
5.0E-4                    0.0185                   0.02058330121053027
5.0E-4                    0.0195                   0.013898779214760328
5.0E-4                    0.0205                   0.006809276488626706
5.0E-4                    0.0215                   0.002138379304840928
5.0E-4                    0.0225                   4.0399175483434263E-4
5.0E-4                    0.0235                   7.635977426362994E-5
5.0E-4                    0.0245                   2.3886825607148434E-5
5.0E-4                    0.0255                   9.896721268936732E-6
5.0E-4                    0.0265                   5.778223409643393E-6
5.0E-4                    0.0275                   4.431045844229924E-6
5.0E-4                    0.0285                   4.249891623027042E-6
5.0E-4                    0.0295                   4.4944907902549296E-6
5.0E-4                    0.0305                   8.539359147403238E-6
5.0E-4                    0.0315                   6.275359557820341E-6
0.0015                    -0.0315                  3.2758464791495655E-6
0.0015                    -0.0305                  6.316459607133807E-6
0.0015                    -0.0295                  6.595733201617382E-6
0.0015                    -0.0285                  7.006930537349095E-6
0.0015                    -0.0275                  7.106002581727847E-6
0.0015                    -0.0265                  7.207270915504706E-6
0.0015                    -0.0255                  7.276238116478728E-6
0.0015                    -0.0245                  7.32729676166492E-6
0.0015                    -0.0235                  7.390808896925856E-6
0.0015                    -0.0225                  7.450132981999647E-6
0.0015                    -0.0215                  7.491171842485228E-6
0.0015                    -0.0205                  7.533083404793473E-6
0.0015                    -0.0195                  7.578902730392642E-6
0.0015                    -0.0185                  7.608545742145133E-6
0.0015                    -0.0175                  7.630757779488777E-6
0.0015                    -0.0165                  7.647619315683873E-6
0.0015                    -0.0155                  7.657731201983412E-6
0.0015                    -0.0145                  7.658601752649619E-6
0.0015                    -0.0135                  7.648269966387702E-6
0.0015                    -0.0125                  7.625408017601317E-6
0.0015                    -0.0115                  7.589709900724149E-6
0.0015                    -0.0105                  7.548902727586639E-6
0.0015                    -0.0095                  7.531531477221178E-6
0.0015                    -0.0085                  7.52613654362316E-6
0.0015                    -0.0075                  7.552684567143166E-6
0.0015                    -0.0065                  7.687916556699067E-6
0.0015                    -0.0055                  7.977008454795171E-6
0.0015                    -0.0045                  8.538220086628567E-6
0.0015                    -0.0035                  9.54361766294981E-6
0.0015                    -0.0025                  1.1309506718824052E-5
0.0015                    -0.0015                  1.4623141952382888E-5
0.0015                    -5.0E-4                  2.1531528833837345E-5
0.0015                    5.0E-4                   3.748863552587244E-5
0.0015                    0.0015                   7.809805388629974E-5
0.0015                    0.0025                   1.8861094732756394E-4
0.0015                    0.0035                   3.965321482469894E-4
0.0015                    0.0045                   6.316995812881165E-4
0.0015                    0.0055                   7.682510889914806E-4
0.0015                    0.0065                   8.382913407317763E-4
0.0015                    0.0075                   9.05016615500127E-4
0.0015                    0.0085                   0.0012146534214264536
0.0015                    0.0095                   0.0017067835633773742
0.0015                    0.0105                   0.002085384455448499
0.0015                    0.0115                   0.0022401618628874725
0.0015                    0.0125                   0.002114191549172667
0.0015                    0.0135                   0.0015382217910921564
0.0015                    0.0145                   0.0031573967730602454
0.0015                    0.0155                   0.012618990830400365
0.0015                    0.0165                   0.02320359226871585
0.0015                    0.0175                   0.024706503597830953
0.0015                    0.0185                   0.018500548724528137
0.0015                    0.0195                   0.010649590285908858
0.0015                    0.0205                   0.004234346873604123
0.0015                    0.0215                   0.0012364346919332624
0.0015                    0.0225                   3.41795700050215E-4
0.0015                    0.0235                   7.919992774136268E-5
0.0015                    0.0245                   2.3543482977397765E-5
0.0015                    0.0255                   9.537037632569028E-6
0.0015                    0.0265                   5.584470618121738E-6
0.0015                    0.0275                   4.331298212303909E-6
0.0015                    0.0285                   4.158577229868127E-6
0.0015                    0.0295                   4.412375588709059E-6
0.0015                    0.0305                   6.030764652870116E-6
0.0015                    0.0315                   3.7622848104841176E-6
0.0025                    -0.0315                  3.434944586414105E-6
0.0025                    -0.0305                  6.337896148225652E-6
0.0025                    -0.0295                  6.155136582761929E-6
0.0025                    -0.0285                  6.254301197855494E-6
0.0025                    -0.0275                  6.086950409153931E-6
0.0025                    -0.0265                  5.905907894016889E-6
0.0025                    -0.0255                  5.726322853406281E-6
0.0025                    -0.0245                  5.570882747957286E-6
0.0025                    -0.0235                  5.4385792749856794E-6
0.0025                    -0.0225                  5.329148654697295E-6
0.0025                    -0.0215                  5.239074960261875E-6
0.0025                    -0.0205                  5.1646095265955155E-6
0.0025                    -0.0195                  5.102578838101268E-6
0.0025                    -0.0185                  5.05065868142751E-6
0.0025                    -0.0175                  5.005048726981751E-6
0.0025                    -0.0165                  4.964510769264107E-6
0.0025                    -0.0155                  4.9276926703346485E-6
0.0025                    -0.0145                  4.893547648246148E-6
0.0025                    -0.0135                  4.861269394774473E-6
0.0025                    -0.0125                  4.8300516125062665E-6
0.0025                    -0.0115                  4.8000578350947835E-6
0.0025                    -0.0105                  4.775647943990144E-6
0.0025                    -0.0095                  4.765387690980759E-6
0.0025                    -0.0085                  4.793426428858279E-6
0.0025                    -0.0075                  4.902461135971393E-6
0.0025                    -0.0065                  5.15961217434757E-6
0.0025                    -0.0055                  5.680766575758576E-6
0.0025                    -0.0045                  6.647420143352268E-6
0.0025                    -0.0035                  8.387503899989671E-6
0.0025                    -0.0025                  1.1604053524889935E-5
0.0025                    -0.0015                  1.7809935910673127E-5
0.0025                    -5.0E-4                  3.074569892785778E-5
0.0025                    5.0E-4                   6.122338688571157E-5
0.0025                    0.0015                   1.407144167413169E-4
0.0025                    0.0025                   3.5556939808617906E-4
0.0025                    0.0035                   8.022872163211109E-4
0.0025                    0.0045                   0.0014327505277104736
0.0025                    0.0055                   0.0020758682266590746
0.0025                    0.0065                   0.002654221850623862
0.0025                    0.0075                   0.002758904090172989
0.0025                    0.0085                   0.002139236406931097
0.0025                    0.0095                   0.0012766952987958917
0.0025                    0.0105                   0.0011277690908293413
0.0025                    0.0115                   0.0012621047113402619
0.0025                    0.0125                   0.001001732799319947
0.0025                    0.0135                   0.003000157312020603
0.0025                    0.0145                   0.009809386641411883
0.0025                    0.0155                   0.019116647841901823
0.0025                    0.0165                   0.024682546018280505
0.0025                    0.0175                   0.0223269363341645
0.0025                    0.0185                   0.014779359108525826
0.0025                    0.0195                   0.007218466350889634
0.0025                    0.0205                   0.002555479399776069
0.0025                    0.0215                   8.306401588097015E-4
0.0025                    0.0225                   2.534653802227039E-4
0.0025                    0.0235                   6.774739027128245E-5
0.0025                    0.0245                   2.200589960205449E-5
0.0025                    0.0255                   8.95127314500266E-6
0.0025                    0.0265                   5.319056729816074E-6
0.0025                    0.0275                   4.1977080214590985E-6
0.0025                    0.0285                   4.017351011390763E-6
0.0025                    0.0295                   3.968292146439676E-6
0.0025                    0.0305                   5.170976499138725E-6
0.0025                    0.0315                   3.2486542280774373E-6
0.0035                    -0.0315                  3.7564348133475894E-6
0.0035                    -0.0305                  6.623872751463119E-6
0.0035                    -0.0295                  6.226020986521395E-6
0.0035                    -0.0285                  6.487096194589607E-6
0.0035                    -0.0275                  6.407654126697671E-6
0.0035                    -0.0265                  6.248300454400671E-6
0.0035                    -0.0255                  6.036573719205946E-6
0.0035                    -0.0245                  5.825781493574459E-6
0.0035                    -0.0235                  5.630333669545581E-6
0.0035                    -0.0225                  5.4565254964918444E-6
0.0035                    -0.0215                  5.304476701337166E-6
0.0035                    -0.0205                  5.1725169975959865E-6
0.0035                    -0.0195                  5.058038278321572E-6
0.0035                    -0.0185                  4.957792687154668E-6
0.0035                    -0.0175                  4.869165588716679E-6
0.0035                    -0.0165                  4.789969595573013E-6
0.0035                    -0.0155                  4.7188771393750925E-6
0.0035                    -0.0145                  4.65551530140726E-6
0.0035                    -0.0135                  4.600698228726284E-6
0.0035                    -0.0125                  4.5563640801955226E-6
0.0035                    -0.0115                  4.526098594889981E-6
0.0035                    -0.0105                  4.517552851772031E-6
0.0035                    -0.0095                  4.550242140123074E-6
0.0035                    -0.0085                  4.6672780910875345E-6
0.0035                    -0.0075                  4.952723390537772E-6
0.0035                    -0.0065                  5.546514401596654E-6
0.0035                    -0.0055                  6.6796286120893785E-6
0.0035                    -0.0045                  8.798946959502567E-6
0.0035                    -0.0035                  1.2687104581616615E-5
0.0035                    -0.0025                  1.987939370130074E-5
0.0035                    -0.0015                  3.476237904512172E-5
0.0035                    -5.0E-4                  6.670546163818819E-5
0.0035                    5.0E-4                   1.4087874301536147E-4
0.0035                    0.0015                   3.509636241830716E-4
0.0035                    0.0025                   9.032143318811275E-4
0.0035                    0.0035                   0.002110248142531386
0.0035                    0.0045                   0.0037498649592010566
0.0035                    0.0055                   0.005238514127315238
0.0035                    0.0065                   0.006451027690986192
0.0035                    0.0075                   0.007096753265470244
0.0035                    0.0085                   0.0068000635756671635
0.0035                    0.0095                   0.005562544276894456
0.0035                    0.0105                   0.003890568821696796
0.0035                    0.0115                   0.0029362487265322096
0.0035                    0.0125                   0.00452336671481147
0.0035                    0.0135                   0.009404823366383873
0.0035                    0.0145                   0.016593683439842497
0.0035                    0.0155                   0.022548925881359795
0.0035                    0.0165                   0.023557418465342005
0.0035                    0.0175                   0.018417504591392894
0.0035                    0.0185                   0.010523663533113672
0.0035                    0.0195                   0.004478157209309064
0.0035                    0.0205                   0.0015235210410276204
0.0035                    0.0215                   5.307145364986423E-4
0.0035                    0.0225                   1.663568594949269E-4
0.0035                    0.0235                   4.906563931100594E-5
0.0035                    0.0245                   1.7771070830589857E-5
0.0035                    0.0255                   7.995869906645072E-6
0.0035                    0.0265                   4.966312640112812E-6
0.0035                    0.0275                   4.009934118294118E-6
0.0035                    0.0285                   3.8117011753075805E-6
0.0035                    0.0295                   3.7267505614531264E-6
0.0035                    0.0305                   5.062907026003471E-6
0.0035                    0.0315                   3.256714516109169E-6
0.0045                    -0.0315                  3.91172232262072E-6
0.0045                    -0.0305                  6.7013331577015555E-6
0.0045                    -0.0295                  6.113816135711677E-6
0.0045                    -0.0285                  6.474252077207485E-6
0.0045                    -0.0275                  6.541542002655381E-6
0.0045                    -0.0265                  6.483844623982639E-6
0.0045                    -0.0255                  6.3097169849755606E-6
0.0045                    -0.0245                  6.091405708188906E-6
0.0045                    -0.0235                  5.862501289322694E-6
0.0045                    -0.0225                  5.642173128195705E-6
0.0045                    -0.0215                  5.438165727978151E-6
0.0045                    -0.0205                  5.252727271402958E-6
0.0045                    -0.0195                  5.085326064011006E-6
0.0045                    -0.0185                  4.934428010232011E-6
0.0045                    -0.0175                  4.798156406413258E-6
0.0045                    -0.0165                  4.675058074510677E-6
0.0045                    -0.0155                  4.5646224919735626E-6
0.0045                    -0.0145                  4.468072562144021E-6
0.0045                    -0.0135                  4.389549082259015E-6
0.0045                    -0.0125                  4.337272591237897E-6
0.0045                    -0.0115                  4.324607437983893E-6
0.0045                    -0.0105                  4.373597924721975E-6
0.0045                    -0.0095                  4.526195135828406E-6
0.0045                    -0.0085                  4.870831661444609E-6
0.0045                    -0.0075                  5.584739258646453E-6
0.0045                    -0.0065                  7.00553457681662E-6
0.0045                    -0.0055                  9.670384721879417E-6
0.0045                    -0.0045                  1.4538323504681885E-5
0.0045                    -0.0035                  2.4294498160483447E-5
0.0045                    -0.0025                  4.3555176358519204E-5
0.0045                    -0.0015                  8.03925014463165E-5
0.0045                    -5.0E-4                  1.8103144451115963E-4
0.0045                    5.0E-4                   4.1085268329658556E-4
0.0045                    0.0015                   9.588602109685891E-4
0.0045                    0.0025                   0.0023735825898604595
0.0045                    0.0035                   0.004907306097235723
0.0045                    0.0045                   0.007461749507740239
0.0045                    0.0055                   0.00908618944081756
0.0045                    0.0065                   0.010200042575628272
0.0045                    0.0075                   0.011149707077184035
0.0045                    0.0085                   0.011571060539797496
0.0045                    0.0095                   0.01103562332628152
0.0045                    0.0105                   0.009720782500809152
0.0045                    0.0115                   0.008925463882388957
0.0045                    0.0125                   0.010678707165027005
0.0045                    0.0135                   0.015219289812305935
0.0045                    0.0145                   0.020151119193840914
0.0045                    0.0155                   0.02253249224765453
0.0045                    0.0165                   0.020291099958084344
0.0045                    0.0175                   0.01367890304339341
0.0045                    0.0185                   0.006676700486690624
0.0045                    0.0195                   0.0025515634092212625
0.0045                    0.0205                   8.789076598857995E-4
0.0045                    0.0215                   3.156233222854468E-4
0.0045                    0.0225                   1.0224942018664568E-4
0.0045                    0.0235                   3.158010666515292E-5
0.0045                    0.0245                   1.2903876478275603E-5
0.0045                    0.0255                   6.65997926006683E-6
0.0045                    0.0265                   4.515864954263506E-6
0.0045                    0.0275                   3.7853201343916113E-6
0.0045                    0.0285                   3.6589402897489077E-6
0.0045                    0.0295                   3.6466855418103256E-6
0.0045                    0.0305                   5.028294295479569E-6
0.0045                    0.0315                   3.2398371723163935E-6
0.0055                    -0.0315                  4.06803367223498E-6
0.0055                    -0.0305                  6.817470906071693E-6
0.0055                    -0.0295                  6.047690400196162E-6
0.0055                    -0.0285                  6.458709107175191E-6
0.0055                    -0.0275                  6.649444724823386E-6
0.0055                    -0.0265                  6.7251657320299E-6
0.0055                    -0.0255                  6.643881188793297E-6
0.0055                    -0.0245                  6.47062889191134E-6
0.0055                    -0.0235                  6.2498957773385425E-6
0.0055                    -0.0225                  6.01352811137483E-6
0.0055                    -0.0215                  5.778500755773199E-6
0.0055                    -0.0205                  5.553225768959476E-6
0.0055                    -0.0195                  5.341069041989873E-6
0.0055                    -0.0185                  5.143064970617906E-6
0.0055                    -0.0175                  4.959708664096709E-6
0.0055                    -0.0165                  4.792054764863603E-6
0.0055                    -0.0155                  4.64268735974714E-6
0.0055                    -0.0145                  4.517083634615116E-6
0.0055                    -0.0135                  4.426200164781565E-6
0.0055                    -0.0125                  4.390750472077262E-6
0.0055                    -0.0115                  4.44573077776533E-6
0.0055                    -0.0105                  4.647108764826254E-6
0.0055                    -0.0095                  5.092620759055544E-6
0.0055                    -0.0085                  5.9771263271624315E-6
0.0055                    -0.0075                  7.715551714309415E-6
0.0055                    -0.0065                  1.1116489090431348E-5
0.0055                    -0.0055                  1.7982102772926E-5
0.0055                    -0.0045                  3.131190203792377E-5
0.0055                    -0.0035                  5.6402299959985364E-5
0.0055                    -0.0025                  1.2072364250442651E-4
0.0055                    -0.0015                  2.4925187491507765E-4
0.0055                    -5.0E-4                  5.318855044848778E-4
0.0055                    5.0E-4                   0.0011527241006655993
0.0055                    0.0015                   0.0025805603429975093
0.0055                    0.0025                   0.005383526905354153
0.0055                    0.0035                   0.008752744146016638
0.0055                    0.0045                   0.010775026599078903
0.0055                    0.0055                   0.011113883604793155
0.0055                    0.0065                   0.011162787504155183
0.0055                    0.0075                   0.011926087261400781
0.0055                    0.0085                   0.013069573198382431
0.0055                    0.0095                   0.013666097776284455
0.0055                    0.0105                   0.013240045426710907
0.0055                    0.0115                   0.012729918571328437
0.0055                    0.0125                   0.014092713693229394
0.0055                    0.0135                   0.01732051441828838
0.0055                    0.0145                   0.020022938720732294
0.0055                    0.0155                   0.019939560988672656
0.0055                    0.0165                   0.015769883279502787
0.0055                    0.0175                   0.009072069234652154
0.0055                    0.0185                   0.0037944725421117293
0.0055                    0.0195                   0.0013580733440666606
0.0055                    0.0205                   4.823717121227507E-4
0.0055                    0.0215                   1.6996408828061683E-4
0.0055                    0.0225                   5.7303558425666335E-5
0.0055                    0.0235                   2.0517421717481953E-5
0.0055                    0.0245                   9.266921016681611E-6
0.0055                    0.0255                   5.4212813063383065E-6
0.0055                    0.0265                   4.039042395844681E-6
0.0055                    0.0275                   3.5738922896339466E-6
0.0055                    0.0285                   3.5600442237191786E-6
0.0055                    0.0295                   3.609529893415642E-6
0.0055                    0.0305                   5.03071869482055E-6
0.0055                    0.0315                   3.2507073793547635E-6
0.0065                    -0.0315                  4.207145862195898E-6
0.0065                    -0.0305                  6.939290181407375E-6
0.0065                    -0.0295                  6.00914819136671E-6
0.0065                    -0.0285                  6.428292640705734E-6
0.0065                    -0.0275                  6.693387745929604E-6
0.0065                    -0.0265                  6.879171763321318E-6
0.0065                    -0.0255                  6.900883157641053E-6
0.0065                    -0.0245                  6.799363656700354E-6
0.0065                    -0.0235                  6.614877491613003E-6
0.0065                    -0.0225                  6.385548436478217E-6
0.0065                    -0.0215                  6.136513893362737E-6
0.0065                    -0.0205                  5.882930045360812E-6
0.0065                    -0.0195                  5.633190106444909E-6
0.0065                    -0.0185                  5.392282334851224E-6
0.0065                    -0.0175                  5.164550981591215E-6
0.0065                    -0.0165                  4.956033548957535E-6
0.0065                    -0.0155                  4.776423680570202E-6
0.0065                    -0.0145                  4.641415813186774E-6
0.0065                    -0.0135                  4.576898298793568E-6
0.0065                    -0.0125                  4.627894724191593E-6
0.0065                    -0.0115                  4.875109066657604E-6
0.0065                    -0.0105                  5.451004282845277E-6
0.0065                    -0.0095                  6.5778639444606985E-6
0.0065                    -0.0085                  8.703537034455374E-6
0.0065                    -0.0075                  1.2788083807553393E-5
0.0065                    -0.0065                  2.132705424068134E-5
0.0065                    -0.0055                  3.99808853717749E-5