% Model:              Benchmark260518.mph
% Version:            COMSOL 6.2.0.339
% Date:               May 20 2026, 01:42
% Dimension:          2
% Nodes:              4096
% Expressions:        1
% Description:        速度大小
% Length unit:        m
% x                       y                        spf.U (m/s)
% mirrored_by_python_y_to_minus_y, coord_match_decimals=12
0.0005 -0.0315 4.97204438317e-06
0.0005 -0.0305 9.75019930645e-06
0.0005 -0.0295 1.05854919774e-05
0.0005 -0.0285 1.18773544651e-05
0.0005 -0.0275 1.31496636939e-05
0.0005 -0.0265 1.52775576025e-05
0.0005 -0.0255 1.9046114473e-05
0.0005 -0.0245 2.73231243281e-05
0.0005 -0.0235 6.34554001231e-05
0.0005 -0.0225 8.82803883895e-05
0.0005 -0.0215 0.000112142248861
0.0005 -0.0205 0.000191940699511
0.0005 -0.0195 0.00033393440434
0.0005 -0.0185 0.000777646128526
0.0005 -0.0175 0.00221416025562
0.0005 -0.0165 0.00287575503561
0.0005 -0.0155 0.00411516668628
0.0005 -0.0145 0.0095566202582
0.0005 -0.0135 0.0183595477402
0.0005 -0.0125 0.0295578332924
0.0005 -0.0115 0.0421219374554
0.0005 -0.0105 0.0502577209281
0.0005 -0.0095 0.0508899096909
0.0005 -0.0085 0.0303277676907
0.0005 -0.0075 0.00477661209643
0.0005 -0.0065 0.00205442886448
0.0005 -0.0055 0.00241818819469
0.0005 -0.0045 0.00338743658509
0.0005 -0.0035 0.00437129038977
0.0005 -0.0025 0.00492513907446
0.0005 -0.0015 0.00472100646345
0.0005 -0.0005 0.0036377482385
0.0005 0.0005 0.00203044967503
0.0005 0.0015 0.00160051779939
0.0005 0.0025 0.00305461986765
0.0005 0.0035 0.00460800422559
0.0005 0.0045 0.00580637996779
0.0005 0.0055 0.00643368759043
0.0005 0.0065 0.00636752160221
0.0005 0.0075 0.00562904928191
0.0005 0.0085 0.00439865548595
0.0005 0.0095 0.00296536743386
0.0005 0.0105 0.00165118990451
0.0005 0.0115 0.000707493496778
0.0005 0.0125 0.000250244181286
0.0005 0.0135 0.000236951718821
0.0005 0.0145 0.000284841213844
0.0005 0.0155 0.000243181947544
0.0005 0.0165 0.000129654357554
0.0005 0.0175 4.71099073204e-05
0.0005 0.0185 2.07277160814e-05
0.0005 0.0195 1.26890405924e-05
0.0005 0.0205 1.00495865186e-05
0.0005 0.0215 8.64470576201e-06
0.0005 0.0225 7.94060709601e-06
0.0005 0.0235 7.47249254862e-06
0.0005 0.0245 7.09972000335e-06
0.0005 0.0255 6.7806613477e-06
0.0005 0.0265 6.49592840505e-06
0.0005 0.0275 6.1821912192e-06
0.0005 0.0285 5.87664894568e-06
0.0005 0.0295 5.28686981821e-06
0.0005 0.0305 4.7729429239e-06
0.0005 0.0315 2.41893211698e-06
0.0015 -0.0315 9.55333197516e-06
0.0015 -0.0305 1.81734226582e-05
0.0015 -0.0295 1.85906331296e-05
0.0015 -0.0285 2.01900923963e-05
0.0015 -0.0275 2.22253907112e-05
0.0015 -0.0265 2.64489898102e-05
0.0015 -0.0255 3.52076489729e-05
0.0015 -0.0245 5.46314516733e-05
0.0015 -0.0235 7.47943488252e-05
0.0015 -0.0225 0.000104225488298
0.0015 -0.0215 0.000175117548741
0.0015 -0.0205 0.000336285394993
0.0015 -0.0195 0.000834061749348
0.0015 -0.0185 0.0017215296291
0.0015 -0.0175 0.00313783284721
0.0015 -0.0165 0.00485799154858
0.0015 -0.0155 0.00616544363422
0.0015 -0.0145 0.00917874453001
0.0015 -0.0135 0.0160708990398
0.0015 -0.0125 0.0261113995978
0.0015 -0.0115 0.0384257754712
0.0015 -0.0105 0.0476426130089
0.0015 -0.0095 0.0500768014063
0.0015 -0.0085 0.0388678669185
0.0015 -0.0075 0.0155137444436
0.0015 -0.0065 0.00281211767845
0.0015 -0.0055 0.00465568044202
0.0015 -0.0045 0.00594800552058
0.0015 -0.0035 0.00649285442114
0.0015 -0.0025 0.00576286054496
0.0015 -0.0015 0.00382650718486
0.0015 -0.0005 0.00328406035414
0.0015 0.0005 0.00675139938273
0.0015 0.0015 0.011026903443
0.0015 0.0025 0.0147372775389
0.0015 0.0035 0.0175948725832
0.0015 0.0045 0.0194874195717
0.0015 0.0055 0.0202708910534
0.0015 0.0065 0.0198200295916
0.0015 0.0075 0.018113879662
0.0015 0.0085 0.0152944548344
0.0015 0.0095 0.0116961116241
0.0015 0.0105 0.00786497718768
0.0015 0.0115 0.00445563642945
0.0015 0.0125 0.0020059414249
0.0015 0.0135 0.000870526228753
0.0015 0.0145 0.000592864865228
0.0015 0.0155 0.00042283371986
0.0015 0.0165 0.000221786900261
0.0015 0.0175 8.43258928436e-05
0.0015 0.0185 3.7893218326e-05
0.0015 0.0195 2.19320474649e-05
0.0015 0.0205 1.60552426019e-05
0.0015 0.0215 1.33884924825e-05
0.0015 0.0225 1.21266101683e-05
0.0015 0.0235 1.14067501572e-05
0.0015 0.0245 1.09325542971e-05
0.0015 0.0255 1.06102312141e-05
0.0015 0.0265 1.03973715766e-05
0.0015 0.0275 1.02150854119e-05
0.0015 0.0285 1.0082271655e-05
0.0015 0.0295 9.5478716477e-06
0.0015 0.0305 9.08242484279e-06
0.0015 0.0315 4.67565297693e-06
0.0025 -0.0315 1.01753539952e-05
0.0025 -0.0305 1.81030833126e-05
0.0025 -0.0295 1.68580381464e-05
0.0025 -0.0285 1.82341988281e-05
0.0025 -0.0275 2.09631592257e-05
0.0025 -0.0265 2.78678328797e-05
0.0025 -0.0255 4.31229404783e-05
0.0025 -0.0245 7.03761462798e-05
0.0025 -0.0235 0.000117538361857
0.0025 -0.0225 0.000198811006175
0.0025 -0.0215 0.000370900319518
0.0025 -0.0205 0.000842191964758
0.0025 -0.0195 0.00234215938923
0.0025 -0.0185 0.00505746739986
0.0025 -0.0175 0.00795374035017
0.0025 -0.0165 0.0102159701948
0.0025 -0.0155 0.0108260901933
0.0025 -0.0145 0.0105003948046
0.0025 -0.0135 0.0133227277171
0.0025 -0.0125 0.0212781763188
0.0025 -0.0115 0.0331168422397
0.0025 -0.0105 0.0433546744173
0.0025 -0.0095 0.0477151061062
0.0025 -0.0085 0.0432076111646
0.0025 -0.0075 0.0278877471253
0.0025 -0.0065 0.011704719897
0.0025 -0.0055 0.00385233557715
0.0025 -0.0045 0.00197526433899
0.0025 -0.0035 0.00246486392547
0.0025 -0.0025 0.00636334975052
0.0025 -0.0015 0.0119540710361
0.0025 -0.0005 0.0179392409667
0.0025 0.0005 0.0233088809724
0.0025 0.0015 0.027399389737
0.0025 0.0025 0.0300565248854
0.0025 0.0035 0.0315319815178
0.0025 0.0045 0.0321250556693
0.0025 0.0055 0.0320064505027
0.0025 0.0065 0.0311912190045
0.0025 0.0075 0.0295658090327
0.0025 0.0085 0.0269451422313
0.0025 0.0095 0.0231596012629
0.0025 0.0105 0.0182193043631
0.0025 0.0115 0.0125701803884
0.0025 0.0125 0.00711516717454
0.0025 0.0135 0.00305984898555
0.0025 0.0145 0.00113216900255
0.0025 0.0155 0.000517579872348
0.0025 0.0165 0.000233074265387
0.0025 0.0175 9.1044888828e-05
0.0025 0.0185 4.22537286438e-05
0.0025 0.0195 2.18136864488e-05
0.0025 0.0205 1.35566983365e-05
0.0025 0.0215 1.02943464007e-05
0.0025 0.0225 8.90250573037e-06
0.0025 0.0235 8.29934320577e-06
0.0025 0.0245 8.10024309263e-06
0.0025 0.0255 8.15913521484e-06
0.0025 0.0265 8.39876550463e-06
0.0025 0.0275 8.73424503618e-06
0.0025 0.0285 9.08491392819e-06
0.0025 0.0295 9.02460980932e-06
0.0025 0.0305 9.2390163665e-06
0.0025 0.0315 4.97731079829e-06
0.0035 -0.0315 1.12972171181e-05
0.0035 -0.0305 1.90545098026e-05
0.0035 -0.0295 1.68555310459e-05
0.0035 -0.0285 1.91731116748e-05
0.0035 -0.0275 2.40464468823e-05
0.0035 -0.0265 3.5931136815e-05
0.0035 -0.0255 6.09957661288e-05
0.0035 -0.0245 0.000112177462337
0.0035 -0.0235 0.000220380610963
0.0035 -0.0225 0.00050265515669
0.0035 -0.0215 0.00106900779481
0.0035 -0.0205 0.00261106881955
0.0035 -0.0195 0.00643920706517
0.0035 -0.0185 0.0112689730946
0.0035 -0.0175 0.0144254679222
0.0035 -0.0165 0.0158630495562
0.0035 -0.0155 0.0156778633058
0.0035 -0.0145 0.0134659933089
0.0035 -0.0135 0.0113235350092
0.0035 -0.0125 0.0152425035339
0.0035 -0.0115 0.0261276335938
0.0035 -0.0105 0.0372578345222
0.0035 -0.0095 0.0437051109703
0.0035 -0.0085 0.0441653422048
0.0035 -0.0075 0.0373469381139
0.0035 -0.0065 0.0266626068732
0.0035 -0.0055 0.0184349245434
0.0035 -0.0045 0.0158151185891
0.0035 -0.0035 0.0178717647776
0.0035 -0.0025 0.0226647168508
0.0035 -0.0015 0.0283289354792
0.0035 -0.0005 0.0332995502898
0.0035 0.0005 0.0365905231093
0.0035 0.0015 0.0380661547214
0.0035 0.0025 0.0382197355819
0.0035 0.0035 0.0376680653369
0.0035 0.0045 0.0368911685472
0.0035 0.0055 0.0361479523592
0.0035 0.0065 0.0354414417443
0.0035 0.0075 0.0345783552108
0.0035 0.0085 0.0332545781192
0.0035 0.0095 0.0310500849053
0.0035 0.0105 0.0274363624756
0.0035 0.0115 0.0220285857968
0.0035 0.0125 0.0151030905499
0.0035 0.0135 0.00809880652386
0.0035 0.0145 0.00322891453868
0.0035 0.0155 0.00113876583408
0.0035 0.0165 0.000449449958046
0.0035 0.0175 0.000164830474482
0.0035 0.0185 6.38201350923e-05
0.0035 0.0195 2.95276917187e-05
0.0035 0.0205 1.71231349021e-05
0.0035 0.0215 1.2146529258e-05
0.0035 0.0225 9.9903215851e-06
0.0035 0.0235 9.03992136265e-06
0.0035 0.0245 8.72104462095e-06
0.0035 0.0255 8.78635519988e-06
0.0035 0.0265 9.07825678691e-06
0.0035 0.0275 9.41431558336e-06
0.0035 0.0285 9.65215074503e-06
0.0035 0.0295 9.34121514946e-06
0.0035 0.0305 9.79445477912e-06
0.0035 0.0315 5.49196896033e-06
0.0045 -0.0315 1.21243981844e-05
0.0045 -0.0305 1.97220558307e-05
0.0045 -0.0295 1.67136094377e-05
0.0045 -0.0285 2.01527950961e-05
0.0045 -0.0275 2.8398137252e-05
0.0045 -0.0265 4.83396574585e-05
0.0045 -0.0255 9.29468945937e-05
0.0045 -0.0245 0.000193692388469
0.0045 -0.0235 0.000468101103153
0.0045 -0.0225 0.00120206833728
0.0045 -0.0215 0.00291679359799
0.0045 -0.0205 0.00691144549654
0.0045 -0.0195 0.0129297009772
0.0045 -0.0185 0.0171150330145
0.0045 -0.0175 0.017385133091
0.0045 -0.0165 0.0161500593662
0.0045 -0.0155 0.015294434675
0.0045 -0.0145 0.0139416917028
0.0045 -0.0135 0.0108589931389
0.0045 -0.0125 0.00951220492192
0.0045 -0.0115 0.0178274841019
0.0045 -0.0105 0.0293093332566
0.0045 -0.0095 0.0377572774654
0.0045 -0.0085 0.0417205592434
0.0045 -0.0075 0.0408628294102
0.0045 -0.0065 0.0367577371269
0.0045 -0.0055 0.0325052499818
0.0045 -0.0045 0.0309436758237
0.0045 -0.0035 0.0326638358008
0.0045 -0.0025 0.0362443454754
0.0045 -0.0015 0.0397022675118
0.0045 -0.0005 0.0415714656777
0.0045 0.0005 0.0413580708861
0.0045 0.0015 0.0395206888157
0.0045 0.0025 0.0369092463516
0.0045 0.0035 0.0343278353813
0.0045 0.0045 0.0324080443985
0.0045 0.0055 0.0314955665108
0.0045 0.0065 0.0315851127108
0.0045 0.0075 0.0322929304892
0.0045 0.0085 0.0329710801808
0.0045 0.0095 0.0329824455947
0.0045 0.0105 0.0317713318911
0.0045 0.0115 0.0286769775653
0.0045 0.0125 0.0230042284162
0.0045 0.0135 0.0150823086758
0.0045 0.0145 0.00733615579031
0.0045 0.0155 0.00263571691816
0.0045 0.0165 0.000893277198524
0.0045 0.0175 0.000305436736744
0.0045 0.0185 9.76075581911e-05
0.0045 0.0195 4.27199911359e-05
0.0045 0.0205 2.41867739543e-05
0.0045 0.0215 1.65476042748e-05
0.0045 0.0225 1.29135602647e-05
0.0045 0.0235 1.1053833552e-05
0.0045 0.0245 1.01897166899e-05
0.0045 0.0255 9.9340240514e-06
0.0045 0.0265 9.99582567287e-06
0.0045 0.0275 1.00793863187e-05
0.0045 0.0285 1.00124556853e-05
0.0045 0.0295 9.45697987155e-06
0.0045 0.0305 1.01046282821e-05
0.0045 0.0315 5.80727772997e-06
0.0055 -0.0315 1.30288418522e-05
0.0055 -0.0305 2.06450363123e-05
0.0055 -0.0295 1.69428247843e-05
0.0055 -0.0285 2.16212544312e-05
0.0055 -0.0275 3.41861601107e-05
0.0055 -0.0265 6.75908827845e-05
0.0055 -0.0255 0.000150021622741
0.0055 -0.0245 0.000376757973641
0.0055 -0.0235 0.00101716102115
0.0055 -0.0225 0.00270179596804
0.0055 -0.0215 0.00667438755213
0.0055 -0.0205 0.0129825902962
0.0055 -0.0195 0.0180317461742
0.0055 -0.0185 0.0179674845342
0.0055 -0.0175 0.0138872464796
0.0055 -0.0165 0.00998853643479
0.0055 -0.0155 0.00852939152191
0.0055 -0.0145 0.00883141241256
0.0055 -0.0135 0.00864468162815
0.0055 -0.0125 0.00652431782769
0.0055 -0.0115 0.00954426381893
0.0055 -0.0105 0.0197893761517
0.0055 -0.0095 0.0295755861849
0.0055 -0.0085 0.0362296269155
0.0055 -0.0075 0.0390283958813
0.0055 -0.0065 0.039044156246
0.0055 -0.0055 0.0381320914909
0.0055 -0.0045 0.0380738398656
0.0055 -0.0035 0.0394952382117
0.0055 -0.0025 0.0413091169966
0.0055 -0.0015 0.0416971833371
0.0055 -0.0005 0.0396609446307
0.0055 0.0005 0.0355130821213
0.0055 0.0015 0.0304570403973
0.0055 0.0025 0.0257238697334
0.0055 0.0035 0.0221049063204
0.0055 0.0045 0.0200270876168
0.0055 0.0055 0.0196366127342
0.0055 0.0065 0.0209264307291
0.0055 0.0075 0.02364749849
0.0055 0.0085 0.0271087067201
0.0055 0.0095 0.0301921765574
0.0055 0.0105 0.0318479041457
0.0055 0.0115 0.031499822494
0.0055 0.0125 0.028500511975
0.0055 0.0135 0.0219827859332
0.0055 0.0145 0.0129697746549
0.0055 0.0155 0.00535627662225
0.0055 0.0165 0.00165773503041
0.0055 0.0175 0.000507371297127
0.0055 0.0185 0.000155514927526
0.0055 0.0195 7.17845152084e-05
0.0055 0.0205 4.17209575662e-05
0.0055 0.0215 2.85905248546e-05
0.0055 0.0225 2.11639613768e-05
0.0055 0.0235 1.66667364213e-05
0.0055 0.0245 1.40138882607e-05
0.0055 0.0255 1.25387371134e-05
0.0055 0.0265 1.17260470393e-05
0.0055 0.0275 1.11438413321e-05
0.0055 0.0285 1.05779253745e-05
0.0055 0.0295 9.71065802813e-06
0.0055 0.0305 1.04742146594e-05
0.0055 0.0315 6.11300152566e-06
0.0065 -0.0315 1.38517013744e-05
0.0065 -0.0305 2.15855181264e-05
0.0065 -0.0295 1.74384854455e-05
0.0065 -0.0285 2.35122550126e-05
0.0065 -0.0275 4.1196237353e-05
0.0065 -0.0265 9.53334034292e-05
0.0065 -0.0255 0.000265060146997
0.0065 -0.0245 0.000760027647679
0.0065 -0.0235 0.00208260276764
0.0065 -0.0225 0.00557101795557
0.0065 -0.0215 0.0118252262328
0.0065 -0.0205 0.0176143227221
0.0065 -0.0195 0.0183115434954
0.0065 -0.0185 0.0135303001847
0.0065 -0.0175 0.00756497705309
0.0065 -0.0165 0.00390675346067
0.0065 -0.0155 0.00270399332586
0.0065 -0.0145 0.00319492226898
0.0065 -0.0135 0.00434527203297
0.0065 -0.0125 0.00454487455206
0.0065 -0.0115 0.00405319648566
0.0065 -0.0105 0.0101330189321
0.0065 -0.0095 0.0193557583393
0.0065 -0.0085 0.0274842115046
0.0065 -0.0075 0.0327192743326
0.0065 -0.0065 0.0351306525759
0.0065 -0.0055 0.0359466857389
0.0065 -0.0045 0.0364614747741
0.0065 -0.0035 0.0369476684607
0.0065 -0.0025 0.0362043348337
0.0065 -0.0015 0.0328634612066
0.0065 -0.0005 0.0271491604813
0.0065 0.0005 0.0207638521342
0.0065 0.0015 0.0152941519596
0.0065 0.0025 0.0113530414497
0.0065 0.0035 0.00889782183355
0.0065 0.0045 0.00773949480224
0.0065 0.0055 0.00778376691846
0.0065 0.0065 0.00919778456202
0.0065 0.0075 0.0123717913056
0.0065 0.0085 0.0174256725841
0.0065 0.0095 0.0234539755578
0.0065 0.0105 0.0286350563135
0.0065 0.0115 0.0314256044725
0.0065 0.0125 0.0312542240818
0.0065 0.0135 0.0273132965275
0.0065 0.0145 0.0189870035438
0.0065 0.0155 0.00929896079408
0.0065 0.0165 0.00311755832183
0.0065 0.0175 0.000926256149192
0.0065 0.0185 0.000316470790722
0.0065 0.0195 0.000143798851778
0.0065 0.0205 9.29465642427e-05
0.0065 0.0215 6.52163622224e-05
0.0065 0.0225 4.49982313911e-05
0.0065 0.0235 3.17780481113e-05
0.0065 0.0245 2.35355507888e-05
0.0065 0.0255 1.81425940187e-05
0.0065 0.0265 1.48515516923e-05
0.0065 0.0275 1.2825754623e-05
0.0065 0.0285 1.14074036917e-05
0.0065 0.0295 1.00726140301e-05
0.0065 0.0305 1.08350869309e-05
0.0065 0.0315 6.37029839727e-06
0.0075 -0.0315 1.45592891807e-05
0.0075 -0.0305 2.24708750388e-05
0.0075 -0.0295 1.81792178806e-05
0.0075 -0.0285 2.59159627978e-05
0.0075 -0.0275 4.98769764749e-05
0.0075 -0.0265 0.000127815015276
0.0075 -0.0255 0.000431020408841
0.0075 -0.0245 0.00133536581924
0.0075 -0.0235 0.0038702411728
0.0075 -0.0225 0.00951632196279
0.0075 -0.0215 0.0162003647878
0.0075 -0.0205 0.018502580966
0.0075 -0.0195 0.0144062885965
0.0075 -0.0185 0.00779718955469
0.0075 -0.0175 0.00330402824142
0.0075 -0.0165 0.00148216684119
0.0075 -0.0155 0.000981970421204
0.0075 -0.0145 0.00114379760853
0.0075 -0.0135 0.00164605209821
0.0075 -0.0125 0.00217401120377
0.0075 -0.0115 0.00213775049498
0.0075 -0.0105 0.00350711448652
0.0075 -0.0095 0.00925154004173
0.0075 -0.0085 0.0163874849964
0.0075 -0.0075 0.0222935824297
0.0075 -0.0065 0.0257477690124
0.0075 -0.0055 0.027047226539
0.0075 -0.0045 0.0270027209908
0.0075 -0.0035 0.0256956552894
0.0075 -0.0025 0.0223684943873
0.0075 -0.0015 0.0171349093882
0.0075 -0.0005 0.0117687499557
0.0075 0.0005 0.00773983160294
0.0075 0.0015 0.00513247705883
0.0075 0.0025 0.00355729022278
0.0075 0.0035 0.00264774814248
0.0075 0.0045 0.00217702223624
0.0075 0.0055 0.00210605145496
0.0075 0.0065 0.00264196417952
0.0075 0.0075 0.00440331159612
0.0075 0.0085 0.00843703885867
0.0075 0.0095 0.0151415961948
0.0075 0.0105 0.0229717889175
0.0075 0.0115 0.0291392864265
0.0075 0.0125 0.0318302634574
0.0075 0.0135 0.0305635595772
0.0075 0.0145 0.0242195699407
0.0075 0.0155 0.0140283839624
0.0075 0.0165 0.00554651747707
0.0075 0.0175 0.00178059520811
0.0075 0.0185 0.000736571832027
0.0075 0.0195 0.00040654826624
0.0075 0.0205 0.000291947625374
0.0075 0.0215 0.000194509418477
0.0075 0.0225 0.000117774852771
0.0075 0.0235 7.77514852666e-05
0.0075 0.0245 4.86428043568e-05
0.0075 0.0255 3.02685205457e-05
0.0075 0.0265 2.08691370506e-05
0.0075 0.0275 1.58184080524e-05
0.0075 0.0285 1.27988473922e-05
0.0075 0.0295 1.0651980458e-05
0.0075 0.0305 1.12687183192e-05
0.0075 0.0315 6.64012906894e-06
0.0085 -0.0315 1.51222574399e-05
0.0085 -0.0305 2.32939535391e-05
0.0085 -0.0295 1.92327340084e-05
0.0085 -0.0285 2.90804448977e-05
0.0085 -0.0275 6.04162503363e-05
0.0085 -0.0265 0.000164154645294
0.0085 -0.0255 0.000608888134189
0.0085 -0.0245 0.00206553917776
0.0085 -0.0235 0.00626164893769
0.0085 -0.0225 0.0133617189357
0.0085 -0.0215 0.018273394626
0.0085 -0.0205 0.0161917953906
0.0085 -0.0195 0.0094734324657
0.0085 -0.0185 0.00401054142109
0.0085 -0.0175 0.00160114605876
0.0085 -0.0165 0.000713105020064
0.0085 -0.0155 0.000483658841879
0.0085 -0.0145 0.000532479015016
0.0085 -0.0135 0.00076277586998
0.0085 -0.0125 0.00101125145452
0.0085 -0.0115 0.0011443960471
0.0085 -0.0105 0.0013477802237
0.0085 -0.0095 0.00307808334905
0.0085 -0.0085 0.0068614424905
0.0085 -0.0075 0.0110240660234
0.0085 -0.0065 0.0137334758536
0.0085 -0.0055 0.014387120108
0.0085 -0.0045 0.0135518649382
0.0085 -0.0035 0.0116603384443
0.0085 -0.0025 0.00866509364937
0.0085 -0.0015 0.00544081149148
0.0085 -0.0005 0.00344517509716
0.0085 0.0005 0.00249494469567
0.0085 0.0015 0.00177173711021
0.0085 0.0025 0.00122205386211
0.0085 0.0035 0.000863033427514
0.0085 0.0045 0.000662543640113
0.0085 0.0055 0.000594090536598
0.0085 0.0065 0.000659118608102
0.0085 0.0075 0.00111623175751
0.0085 0.0085 0.0030824003448
0.0085 0.0095 0.00826614561825
0.0085 0.0105 0.0166105795491
0.0085 0.0115 0.0252712829652
0.0085 0.0125 0.0307664281778
0.0085 0.0135 0.0318547781776
0.0085 0.0145 0.0278424744876
0.0085 0.0155 0.0186671286595
0.0085 0.0165 0.00886573126623
0.0085 0.0175 0.00334097689438
0.0085 0.0185 0.00167688455061
0.0085 0.0195 0.00124576324844
0.0085 0.0205 0.000982176777747
0.0085 0.0215 0.000681048473036
0.0085 0.0225 0.00042664645099
0.0085 0.0235 0.00024002035293
0.0085 0.0245 0.000109153372225
0.0085 0.0255 5.57154325069e-05
0.0085 0.0265 3.31525152964e-05
0.0085 0.0275 2.16973756173e-05
0.0085 0.0285 1.54593639048e-05
0.0085 0.0295 1.17574859392e-05
0.0085 0.0305 1.19440811407e-05
0.0085 0.0315 6.99858886065e-06
0.0095 -0.0315 1.56692245851e-05
0.0095 -0.0305 2.42503145715e-05
0.0095 -0.0295 2.08328321736e-05
0.0095 -0.0285 3.37672181482e-05
0.0095 -0.0275 7.41395148646e-05
0.0095 -0.0265 0.000208518162532
0.0095 -0.0255 0.000801867888095
0.0095 -0.0245 0.00301251557757
0.0095 -0.0235 0.00891349630489
0.0095 -0.0225 0.0163124343588
0.0095 -0.0215 0.0181964508798
0.0095 -0.0205 0.0126628858768
0.0095 -0.0195 0.00572681838666
0.0095 -0.0185 0.00210010321818
0.0095 -0.0175 0.000869067246612
0.0095 -0.0165 0.000404376503102
0.0095 -0.0155 0.000266874553564
0.0095 -0.0145 0.000276517993392
0.0095 -0.0135 0.000385987009831
0.0095 -0.0125 0.00058235018385
0.0095 -0.0115 0.000782055748699
0.0095 -0.0105 0.000947451292241
0.0095 -0.0095 0.00141038366511
0.0095 -0.0085 0.00273983369202
0.0095 -0.0075 0.00464022041534
0.0095 -0.0065 0.00567432905599
0.0095 -0.0055 0.00524809722906
0.0095 -0.0045 0.00436861958047
0.0095 -0.0035 0.003507352807
0.0095 -0.0025 0.00236387316983
0.0095 -0.0015 0.00141071045265
0.0095 -0.0005 0.00104273253362
0.0095 0.0005 0.000853316385083
0.0095 0.0015 0.000587047210168
0.0095 0.0025 0.000387496584464
0.0095 0.0035 0.000267912027068
0.0095 0.0045 0.000206919018711
0.0095 0.0055 0.000202437638517
0.0095 0.0065 0.000231118229642
0.0095 0.0075 0.000305982642311
0.0095 0.0085 0.000919653356659
0.0095 0.0095 0.00403545779266
0.0095 0.0105 0.0112524761258
0.0095 0.0115 0.0208461473374
0.0095 0.0125 0.0285237905291
0.0095 0.0135 0.0315513501885
0.0095 0.0145 0.02948365954
0.0095 0.0155 0.0221353786349
0.0095 0.0165 0.0125161692465
0.0095 0.0175 0.00608491207471
0.0095 0.0185 0.00415707940707
0.0095 0.0195 0.00376421346117
0.0095 0.0205 0.0032122388792
0.0095 0.0215 0.00229658511039
0.0095 0.0225 0.00134982611679
0.0095 0.0235 0.000634765749824
0.0095 0.0245 0.000245935090661
0.0095 0.0255 0.000114691542945
0.0095 0.0265 6.07081955477e-05
0.0095 0.0275 3.46858115345e-05
0.0095 0.0285 2.11663318739e-05
0.0095 0.0295 1.4151182897e-05
0.0095 0.0305 1.33072780055e-05
0.0095 0.0315 7.64991889013e-06
0.0105 -0.0315 1.63204759381e-05
0.0105 -0.0305 2.55646118177e-05
0.0105 -0.0295 2.34060789967e-05
0.0105 -0.0285 4.13216654515e-05
0.0105 -0.0275 9.81026129704e-05
0.0105 -0.0265 0.000282749180126
0.0105 -0.0255 0.00107113064296
0.0105 -0.0245 0.00427184759926
0.0105 -0.0235 0.01160848524
0.0105 -0.0225 0.0182259662544
0.0105 -0.0215 0.0168177152448
0.0105 -0.0205 0.00942465782013
0.0105 -0.0195 0.00354171750563
0.0105 -0.0185 0.00123254246112
0.0105 -0.0175 0.000476319190983
0.0105 -0.0165 0.000245222630326
0.0105 -0.0155 0.000162106050478
0.0105 -0.0145 0.000157876543655
0.0105 -0.0135 0.000210187575818
0.0105 -0.0125 0.000319958224591
0.0105 -0.0115 0.000499223526479
0.0105 -0.0105 0.000688746728129
0.0105 -0.0095 0.00108783306031
0.0105 -0.0085 0.00221293266319
0.0105 -0.0075 0.00384297658756
0.0105 -0.0065 0.00418691554663
0.0105 -0.0055 0.00276166615026
0.0105 -0.0045 0.001515401383
0.0105 -0.0035 0.00105989927525
0.0105 -0.0025 0.000677819019155
0.0105 -0.0015 0.000409261201306
0.0105 -0.0005 0.000299136239985
0.0105 0.0005 0.00023580085543
0.0105 0.0015 0.000175343081667
0.0105 0.0025 0.000121334910678
0.0105 0.0035 8.5504804497e-05
0.0105 0.0045 6.89882188185e-05
0.0105 0.0055 7.31088341167e-05
0.0105 0.0065 8.91523212606e-05
0.0105 0.0075 0.000102769741371
0.0105 0.0085 0.000246258257361
0.0105 0.0095 0.00194653433454
0.0105 0.0105 0.00762809632888
0.0105 0.0115 0.0169289326391
0.0105 0.0125 0.0257363915949
0.0105 0.0135 0.0301022460862
0.0105 0.0145 0.0292612375013
0.0105 0.0155 0.0235283034962
0.0105 0.0165 0.0150837001548
0.0105 0.0175 0.00948264755503
0.0105 0.0185 0.00867105553437
0.0105 0.0195 0.00888840740654
0.0105 0.0205 0.00825781330226
0.0105 0.0215 0.00645725184825
0.0105 0.0225 0.00390438381398
0.0105 0.0235 0.00174049763275
0.0105 0.0245 0.000650446471552
0.0105 0.0255 0.000273806570684
0.0105 0.0265 0.000134169013384
0.0105 0.0275 6.58943195355e-05
0.0105 0.0285 3.37275558288e-05
0.0105 0.0295 1.95708253053e-05
0.0105 0.0305 1.62601387288e-05
0.0105 0.0315 8.98737608649e-06
0.0115 -0.0315 1.70951019127e-05
0.0115 -0.0305 2.73754486848e-05
0.0115 -0.0295 2.75369073895e-05
0.0115 -0.0285 5.36878771079e-05
0.0115 -0.0275 0.00013901474994
0.0115 -0.0265 0.000467245307009
0.0115 -0.0255 0.00165323835088
0.0115 -0.0245 0.00600319016629
0.0115 -0.0235 0.0141929617523
0.0115 -0.0225 0.0191211316207
0.0115 -0.0215 0.0148075723381
0.0115 -0.0205 0.00690594508262
0.0115 -0.0195 0.00236013718262
0.0115 -0.0185 0.000849344436483
0.0115 -0.0175 0.000321756549703
0.0115 -0.0165 0.000160902557233
0.0115 -0.0155 0.000105919656298
0.0115 -0.0145 9.76939592078e-05
0.0115 -0.0135 0.000121737822801
0.0115 -0.0125 0.000177899069416
0.0115 -0.0115 0.000270124908801
0.0115 -0.0105 0.000419526258493
0.0115 -0.0095 0.000794912988078
0.0115 -0.0085 0.00203130344305
0.0115 -0.0075 0.00405548797449
0.0115 -0.0065 0.00406989164641
0.0115 -0.0055 0.00202010420857
0.0115 -0.0045 0.000800386572414
0.0115 -0.0035 0.000435804196723
0.0115 -0.0025 0.000237779227961
0.0115 -0.0015 0.000148225717128
0.0115 -0.0005 0.00010671468551
0.0115 0.0005 8.47032300225e-05
0.0115 0.0015 6.66837115089e-05
0.0115 0.0025 5.08360578837e-05
0.0115 0.0035 3.97270618131e-05
0.0115 0.0045 3.50899312933e-05
0.0115 0.0055 3.60772721344e-05
0.0115 0.0065 4.01873806109e-05
0.0115 0.0075 2.87900218412e-05
0.0115 0.0085 3.90232121402e-05
0.0115 0.0095 0.00106804074765
0.0115 0.0105 0.00566750644205
0.0115 0.0115 0.0142426186848
0.0115 0.0125 0.02319743846
0.0115 0.0135 0.028072261898
0.0115 0.0145 0.0276785747381
0.0115 0.0155 0.022650958982
0.0115 0.0165 0.0151590232565
0.0115 0.0175 0.0111620860311
0.0115 0.0185 0.0118942126542
0.0115 0.0195 0.0127545331521
0.0115 0.0205 0.0128039880384
0.0115 0.0215 0.0117449977162
0.0115 0.0225 0.00878389495496
0.0115 0.0235 0.00481401853464
0.0115 0.0245 0.00199800454511
0.0115 0.0255 0.000833352923274
0.0115 0.0265 0.000367361097852
0.0115 0.0275 0.000140544741367
0.0115 0.0285 6.29045756562e-05
0.0115 0.0295 3.18689167952e-05
0.0115 0.0305 2.26640124874e-05
0.0115 0.0315 1.15436890884e-05
0.0125 -0.0315 1.7939814865e-05
0.0125 -0.0305 2.96708654975e-05
0.0125 -0.0295 3.36871974239e-05
0.0125 -0.0285 7.42492798538e-05
0.0125 -0.0275 0.000201765186876
0.0125 -0.0265 0.000741414843851
0.0125 -0.0255 0.00261118361178
0.0125 -0.0245 0.00822157855242
0.0125 -0.0235 0.016476878604
0.0125 -0.0225 0.0189848458303
0.0125 -0.0215 0.0124809755655
0.0125 -0.0205 0.00493280773512
0.0125 -0.0195 0.00154038538499
0.0125 -0.0185 0.000533123891656
0.0125 -0.0175 0.000220196029871
0.0125 -0.0165 0.000113098494989
0.0125 -0.0155 7.51243672151e-05
0.0125 -0.0145 6.72713234945e-05
0.0125 -0.0135 7.86082311158e-05
0.0125 -0.0125 0.000109569690393
0.0125 -0.0115 0.000169605639356
0.0125 -0.0105 0.000302392299349
0.0125 -0.0095 0.000626012014245
0.0125 -0.0085 0.001930347929
0.0125 -0.0075 0.00421470474334
0.0125 -0.0065 0.00394973131996
0.0125 -0.0055 0.00153769506043
0.0125 -0.0045 0.000439106497954
0.0125 -0.0035 0.000208721427037
0.0125 -0.0025 0.000111142570894
0.0125 -0.0015 6.85777015517e-05
0.0125 -0.0005 4.8590520422e-05
0.0125 0.0005 3.84739451318e-05
0.0125 0.0015 3.20886072742e-05
0.0125 0.0025 2.73296274553e-05
0.0125 0.0035 2.45205600239e-05
0.0125 0.0045 2.41325451491e-05
0.0125 0.0055 2.57142059718e-05
0.0125 0.0065 2.62314487989e-05
0.0125 0.0075 2.54916197136e-05
0.0125 0.0085 6.27603637304e-05
0.0125 0.0095 0.000914285546367
0.0125 0.0105 0.00514466388186
0.0125 0.0115 0.0131831054942
0.0125 0.0125 0.0216198755282
0.0125 0.0135 0.0261183993803
0.0125 0.0145 0.0254415653861
0.0125 0.0155 0.0201474179962
0.0125 0.0165 0.0126906282986
0.0125 0.0175 0.00935509139559
0.0125 0.0185 0.00978437659395
0.0125 0.0195 0.0101730188124
0.0125 0.0205 0.0115646834718
0.0125 0.0215 0.0134284258594
0.0125 0.0225 0.0133004718132
0.0125 0.0235 0.00989752705809
0.0125 0.0245 0.00537694535406
0.0125 0.0255 0.00237673237479
0.0125 0.0265 0.000980296185018
0.0125 0.0275 0.000357796875245
0.0125 0.0285 0.000132963094634
0.0125 0.0295 6.12723611268e-05
0.0125 0.0305 3.83335998717e-05
0.0125 0.0315 1.8257254281e-05
0.0135 -0.0315 1.88978489806e-05
0.0135 -0.0305 3.23347513028e-05
0.0135 -0.0295 4.15368350152e-05
0.0135 -0.0285 0.000103068805634
0.0135 -0.0275 0.000329750401249
0.0135 -0.0265 0.00114230438696
0.0135 -0.0255 0.00391042045445
0.0135 -0.0245 0.0107343973722
0.0135 -0.0235 0.0182015083944
0.0135 -0.0225 0.0178210173194
0.0135 -0.0215 0.0100058523144
0.0135 -0.0205 0.00346752695811
0.0135 -0.0195 0.00101758051923
0.0135 -0.0185 0.000322396832884
0.0135 -0.0175 0.000148120473137
0.0135 -0.0165 8.21949468209e-05
0.0135 -0.0155 5.73673555346e-05
0.0135 -0.0145 5.21069962833e-05
0.0135 -0.0135 6.02132398558e-05
0.0135 -0.0125 8.57237338881e-05
0.0135 -0.0115 0.00014580170851
0.0135 -0.0105 0.000298823775339
0.0135 -0.0095 0.000684169745644
0.0135 -0.0085 0.00222139257207
0.0135 -0.0075 0.00445885921767
0.0135 -0.0065 0.0037990576269
0.0135 -0.0055 0.00132226186957
0.0135 -0.0045 0.000332189852622
0.0135 -0.0035 0.000133301046941
0.0135 -0.0025 6.64154207649e-05
0.0135 -0.0015 4.08290482725e-05
0.0135 -0.0005 2.92042888472e-05
0.0135 0.0005 2.38188328398e-05
0.0135 0.0015 2.11619748715e-05
0.0135 0.0025 2.01550857065e-05
0.0135 0.0035 2.05725824653e-05
0.0135 0.0045 2.20466756491e-05
0.0135 0.0055 2.39175902581e-05
0.0135 0.0065 3.76434328605e-05
0.0135 0.0075 9.42804532858e-05
0.0135 0.0085 0.00023659821562
0.0135 0.0095 0.00146242428878
0.0135 0.0105 0.00608403596758
0.0135 0.0115 0.013962947461
0.0135 0.0125 0.0214395518885
0.0135 0.0135 0.0248223291598
0.0135 0.0145 0.0232669978604
0.0135 0.0155 0.0170647733728
0.0135 0.0165 0.00905452753892
0.0135 0.0175 0.00555926826067
0.0135 0.0185 0.00485765145429
0.0135 0.0195 0.00467634207053
0.0135 0.0205 0.00655262231232
0.0135 0.0215 0.0101716716645
0.0135 0.0225 0.0136363585545
0.0135 0.0235 0.0138721603803
0.0135 0.0245 0.0103153937398
0.0135 0.0255 0.00568701034251
0.0135 0.0265 0.00248300923776
0.0135 0.0275 0.000944722582106
0.0135 0.0285 0.000339203437365
0.0135 0.0295 0.000136092944611
0.0135 0.0305 8.10486879855e-05
0.0135 0.0315 3.64325327809e-05
0.0145 -0.0315 1.98024935319e-05
0.0145 -0.0305 3.50973672482e-05
0.0145 -0.0295 4.99244625128e-05
0.0145 -0.0285 0.000130910434428
0.0145 -0.0275 0.000484721900764
0.0145 -0.0265 0.00168140594066
0.0145 -0.0255 0.005537652467
0.0145 -0.0245 0.01325782656
0.0145 -0.0235 0.0191295661075
0.0145 -0.0225 0.0158530914947
0.0145 -0.0215 0.00759829626092
0.0145 -0.0205 0.00244025878492
0.0145 -0.0195 0.000747404399465
0.0145 -0.0185 0.000236244888495
0.0145 -0.0175 0.000106721484395
0.0145 -0.0165 6.2507443265e-05
0.0145 -0.0155 4.67678072044e-05
0.0145 -0.0145 4.48228048785e-05
0.0145 -0.0135 5.46103077248e-05
0.0145 -0.0125 8.54192674648e-05
0.0145 -0.0115 0.000169737174659
0.0145 -0.0105 0.000404633609107
0.0145 -0.0095 0.00110595878566
0.0145 -0.0085 0.00309267521134
0.0145 -0.0075 0.0047462543573
0.0145 -0.0065 0.00334266395696
0.0145 -0.0055 0.0010799361237
0.0145 -0.0045 0.000280101180154
0.0145 -0.0035 0.000102067248632
0.0145 -0.0025 4.84208956921e-05
0.0145 -0.0015 2.98658552455e-05
0.0145 -0.0005 2.21285746789e-05
0.0145 0.0005 1.90148168184e-05
0.0145 0.0015 1.84661810163e-05
0.0145 0.0025 1.99186592671e-05
0.0145 0.0035 2.29098746774e-05
0.0145 0.0045 2.6413101233e-05
0.0145 0.0055 3.17258625694e-05
0.0145 0.0065 8.05208856535e-05
0.0145 0.0075 0.000233574026686
0.0145 0.0085 0.000700554915555