% Model:              Benchmark260518.mph
% Version:            COMSOL 6.2.0.339
% Date:               May 21 2026, 11:50
% Dimension:          2
% Nodes:              4096
% Expressions:        1
% Description:        速度大小
% Length unit:        m
% x                       y                        spf.U (m/s)
5.0E-4                    -0.0315                  1.4599597550148004E-6
5.0E-4                    -0.0305                  2.935158876383523E-6
5.0E-4                    -0.0295                  3.292536004986685E-6
5.0E-4                    -0.0285                  3.6674948002716725E-6
5.0E-4                    -0.0275                  3.870518724332012E-6
5.0E-4                    -0.0265                  4.063295746237998E-6
5.0E-4                    -0.0255                  4.234679056897773E-6
5.0E-4                    -0.0245                  4.410577575897609E-6
5.0E-4                    -0.0235                  4.601795345234428E-6
5.0E-4                    -0.0225                  4.823364828061889E-6
5.0E-4                    -0.0215                  5.092828830749254E-6
5.0E-4                    -0.0205                  5.4370470677814975E-6
5.0E-4                    -0.0195                  5.9022662708384034E-6
5.0E-4                    -0.0185                  6.59149126253435E-6
5.0E-4                    -0.0175                  7.755533791921337E-6
5.0E-4                    -0.0165                  1.0150794119121672E-5
5.0E-4                    -0.0155                  1.8080823527147266E-5
5.0E-4                    -0.0145                  4.5591921195143364E-5
5.0E-4                    -0.0135                  1.3874641160002097E-4
5.0E-4                    -0.0125                  2.9270898523696084E-4
5.0E-4                    -0.0115                  3.972212585857172E-4
5.0E-4                    -0.0105                  4.287696448927559E-4
5.0E-4                    -0.0095                  0.001136036536651865
5.0E-4                    -0.0085                  0.00497029281549276
5.0E-4                    -0.0075                  0.014553253364572733
5.0E-4                    -0.0065                  0.019034493246025217
5.0E-4                    -0.0055                  0.014299845843669378
5.0E-4                    -0.0045                  0.009283724641479968
5.0E-4                    -0.0035                  0.004738561865827173
5.0E-4                    -0.0025                  0.0018118188291407257
5.0E-4                    -0.0015                  5.216350497256807E-4
5.0E-4                    -5.0E-4                  2.2035091658150632E-4
5.0E-4                    5.0E-4                   4.0081687655328375E-4
5.0E-4                    0.0015                   0.0015575823273402834
5.0E-4                    0.0025                   0.005097839389202617
5.0E-4                    0.0035                   0.01104733476349662
5.0E-4                    0.0045                   0.018202744720880626
5.0E-4                    0.0055                   0.024399525487069716
5.0E-4                    0.0065                   0.028145711142065943
5.0E-4                    0.0075                   0.019030701364548826
5.0E-4                    0.0085                   0.0046827981855573795
5.0E-4                    0.0095                   3.330751785549841E-4
5.0E-4                    0.0105                   3.84281445402294E-4
5.0E-4                    0.0115                   1.9137753232042193E-4
5.0E-4                    0.0125                   1.4507912995482525E-4
5.0E-4                    0.0135                   8.42248305000376E-5
5.0E-4                    0.0145                   3.134553319485612E-5
5.0E-4                    0.0155                   1.3318909098182488E-5
5.0E-4                    0.0165                   7.471385308901637E-6
5.0E-4                    0.0175                   5.770345534217199E-6
5.0E-4                    0.0185                   5.156983935939596E-6
5.0E-4                    0.0195                   4.776527688426115E-6
5.0E-4                    0.0205                   4.55571759721955E-6
5.0E-4                    0.0215                   4.385486793842869E-6
5.0E-4                    0.0225                   4.240387193398135E-6
5.0E-4                    0.0235                   4.108418476407864E-6
5.0E-4                    0.0245                   3.977961097892256E-6
5.0E-4                    0.0255                   3.841566594512846E-6
5.0E-4                    0.0265                   3.692009591138149E-6
5.0E-4                    0.0275                   3.5160254917517148E-6
5.0E-4                    0.0285                   3.2918659631293242E-6
5.0E-4                    0.0295                   2.9365352404634173E-6
5.0E-4                    0.0305                   2.624281629959592E-6
5.0E-4                    0.0315                   1.2989772031273543E-6
0.0015                    -0.0315                  2.8552381694268886E-6
0.0015                    -0.0305                  5.65864817178073E-6
0.0015                    -0.0295                  6.0808384002578316E-6
0.0015                    -0.0285                  6.494689858966431E-6
0.0015                    -0.0275                  6.6419945641005855E-6
0.0015                    -0.0265                  6.799631494478982E-6
0.0015                    -0.0255                  6.960559835374297E-6
0.0015                    -0.0245                  7.15824296159523E-6
0.0015                    -0.0235                  7.408755722510213E-6
0.0015                    -0.0225                  7.735047060770097E-6
0.0015                    -0.0215                  8.166271820951563E-6
0.0015                    -0.0205                  8.748915077059281E-6
0.0015                    -0.0195                  9.571154552103561E-6
0.0015                    -0.0185                  1.0841637736448153E-5
0.0015                    -0.0175                  1.3127966342798736E-5
0.0015                    -0.0165                  1.8316696291351354E-5
0.0015                    -0.0155                  3.407689621396804E-5
0.0015                    -0.0145                  8.576592093971968E-5
0.0015                    -0.0135                  2.5438560152397883E-4
0.0015                    -0.0125                  5.469823210914345E-4
0.0015                    -0.0115                  8.458226384835821E-4
0.0015                    -0.0105                  0.001613539637319879
0.0015                    -0.0095                  0.005111474001523974
0.0015                    -0.0085                  0.012825165583580099
0.0015                    -0.0075                  0.019287457686826256
0.0015                    -0.0065                  0.017915524432135153
0.0015                    -0.0055                  0.011619145055018086
0.0015                    -0.0045                  0.005942125097366129
0.0015                    -0.0035                  0.0022232264176285446
0.0015                    -0.0025                  7.093679598922762E-4
0.0015                    -0.0015                  2.6294298823526397E-4
0.0015                    -5.0E-4                  1.4451819883731586E-4
0.0015                    5.0E-4                   2.9397578741733053E-4
0.0015                    0.0015                   9.914243972148817E-4
0.0015                    0.0025                   0.0032673501814793
0.0015                    0.0035                   0.008310352944843495
0.0015                    0.0045                   0.015676412851103196
0.0015                    0.0055                   0.023060338648895687
0.0015                    0.0065                   0.02830243464494983
0.0015                    0.0075                   0.02558609670236099
0.0015                    0.0085                   0.01352373748334102
0.0015                    0.0095                   0.002868002990087975
0.0015                    0.0105                   5.771202298700979E-4
0.0015                    0.0115                   5.281535794928789E-4
0.0015                    0.0125                   2.589754315302325E-4
0.0015                    0.0135                   1.4387354238003299E-4
0.0015                    0.0145                   5.5765977581173935E-5
0.0015                    0.0155                   2.413947763858035E-5
0.0015                    0.0165                   1.316050193187226E-5
0.0015                    0.0175                   9.480129028455393E-6
0.0015                    0.0185                   8.114714148079359E-6
0.0015                    0.0195                   7.433612875131744E-6
0.0015                    0.0205                   7.07813179937376E-6
0.0015                    0.0215                   6.852540643383397E-6
0.0015                    0.0225                   6.69042589710362E-6
0.0015                    0.0235                   6.563634489916208E-6
0.0015                    0.0245                   6.454185321456356E-6
0.0015                    0.0255                   6.352092364430294E-6
0.0015                    0.0265                   6.2502338386494075E-6
0.0015                    0.0275                   6.127398625084598E-6
0.0015                    0.0285                   5.9574296717929445E-6
0.0015                    0.0295                   5.542166959564872E-6
0.0015                    0.0305                   5.091979731885671E-6
0.0015                    0.0315                   2.536969865580861E-6
0.0025                    -0.0315                  3.0238264096676523E-6
0.0025                    -0.0305                  5.783474192901047E-6
0.0025                    -0.0295                  5.9097095472711974E-6
0.0025                    -0.0285                  6.136186957186996E-6
0.0025                    -0.0275                  6.067656904884185E-6
0.0025                    -0.0265                  5.998028770503699E-6
0.0025                    -0.0255                  5.959711156679673E-6
0.0025                    -0.0245                  5.991878945202686E-6
0.0025                    -0.0235                  6.113740781187669E-6
0.0025                    -0.0225                  6.347829034990482E-6
0.0025                    -0.0215                  6.722706180815024E-6
0.0025                    -0.0205                  7.288219432986596E-6
0.0025                    -0.0195                  8.156659803392204E-6
0.0025                    -0.0185                  9.620916248868709E-6
0.0025                    -0.0175                  1.2530118803506168E-5
0.0025                    -0.0165                  1.9470004246891072E-5
0.0025                    -0.0155                  3.8071166620512474E-5
0.0025                    -0.0145                  9.127350296777604E-5
0.0025                    -0.0135                  2.4507827264581025E-4
0.0025                    -0.0125                  6.197795268375679E-4
0.0025                    -0.0115                  0.0013789040987124033
0.0025                    -0.0105                  0.004139645235229598
0.0025                    -0.0095                  0.010313575831238495
0.0025                    -0.0085                  0.016861275188817058
0.0025                    -0.0075                  0.018768515397213765
0.0025                    -0.0065                  0.014392403328191151
0.0025                    -0.0055                  0.007833608568619171
0.0025                    -0.0045                  0.0033592610500108705
0.0025                    -0.0035                  0.0012188062775914648
0.0025                    -0.0025                  4.4669285628412005E-4
0.0025                    -0.0015                  1.6064021061533304E-4
0.0025                    -5.0E-4                  9.922071586795978E-5
0.0025                    5.0E-4                   1.9691716686254268E-4
0.0025                    0.0015                   6.248239011726836E-4
0.0025                    0.0025                   0.0019607615222550744
0.0025                    0.0035                   0.005519601935309239
0.0025                    0.0045                   0.012094502199275822
0.0025                    0.0055                   0.020088887436434874
0.0025                    0.0065                   0.02680857201241242
0.0025                    0.0075                   0.027978545037344076
0.0025                    0.0085                   0.020853733899832954
0.0025                    0.0095                   0.009647361351906213
0.0025                    0.0105                   0.002048694592200814
0.0025                    0.0115                   6.794456773373897E-4
0.0025                    0.0125                   2.5901783522674877E-4
0.0025                    0.0135                   1.3565536261924823E-4
0.0025                    0.0145                   5.417925325806118E-5
0.0025                    0.0155                   2.4501576571297177E-5
0.0025                    0.0165                   1.2918285971792037E-5
0.0025                    0.0175                   8.194080908454644E-6
0.0025                    0.0185                   6.326599813169695E-6
0.0025                    0.0195                   5.575673577047397E-6
0.0025                    0.0205                   5.269450019701858E-6
0.0025                    0.0215                   5.16952932227381E-6
0.0025                    0.0225                   5.172432379870031E-6
0.0025                    0.0235                   5.233824006498309E-6
0.0025                    0.0245                   5.33459266427202E-6
0.0025                    0.0255                   5.46425875006119E-6
0.0025                    0.0265                   5.613776876120073E-6
0.0025                    0.0275                   5.747472906538154E-6
0.0025                    0.0285                   5.822045987257967E-6
0.0025                    0.0295                   5.543565453444618E-6
0.0025                    0.0305                   5.147540657626099E-6
0.0025                    0.0315                   2.588359951017748E-6
0.0035                    -0.0315                  3.2933492513094863E-6
0.0035                    -0.0305                  6.036877035667159E-6
0.0035                    -0.0295                  6.009047612657031E-6
0.0035                    -0.0285                  6.403591982163984E-6
0.0035                    -0.0275                  6.421197163565495E-6
0.0035                    -0.0265                  6.365469912678369E-6
0.0035                    -0.0255                  6.291315574962337E-6
0.0035                    -0.0245                  6.275133898962839E-6
0.0035                    -0.0235                  6.356255563419659E-6
0.0035                    -0.0225                  6.574596876900205E-6
0.0035                    -0.0215                  6.97932637060238E-6
0.0035                    -0.0205                  7.65979108826118E-6
0.0035                    -0.0195                  8.818202136386204E-6
0.0035                    -0.0185                  1.09629194386577E-5
0.0035                    -0.0175                  1.5401119976729906E-5
0.0035                    -0.0165                  2.56188635978377E-5
0.0035                    -0.0155                  5.0651725055434197E-5
0.0035                    -0.0145                  1.1593052717687444E-4
0.0035                    -0.0135                  2.878273137691081E-4
0.0035                    -0.0125                  8.672033826070887E-4
0.0035                    -0.0115                  0.0028284898041203935
0.0035                    -0.0105                  0.007762842192823993
0.0035                    -0.0095                  0.014277830142641007
0.0035                    -0.0085                  0.017809785020723782
0.0035                    -0.0075                  0.015801372725673547
0.0035                    -0.0065                  0.009890443515286262
0.0035                    -0.0055                  0.0045127832485187015
0.0035                    -0.0045                  0.0017841515452281889
0.0035                    -0.0035                  6.554936575782698E-4
0.0035                    -0.0025                  2.177715851096212E-4
0.0035                    -0.0015                  7.673066304243735E-5
0.0035                    -5.0E-4                  5.880288286828057E-5
0.0035                    5.0E-4                   1.121553270527905E-4
0.0035                    0.0015                   3.5063313714558074E-4
0.0035                    0.0025                   0.0011149059536776271
0.0035                    0.0035                   0.0032782522749755594
0.0035                    0.0045                   0.008205495902030926
0.0035                    0.0055                   0.015758631169475023
0.0035                    0.0065                   0.023669690097802017
0.0035                    0.0075                   0.028015204584671324
0.0035                    0.0085                   0.025548883654603553
0.0035                    0.0095                   0.016928829781947312
0.0035                    0.0105                   0.00702097117529304
0.0035                    0.0115                   0.0016927568001415818
0.0035                    0.0125                   4.8267195482195214E-4
0.0035                    0.0135                   2.1762211453638588E-4
0.0035                    0.0145                   7.555650732197537E-5
0.0035                    0.0155                   3.345770846150013E-5
0.0035                    0.0165                   1.6514202037295776E-5
0.0035                    0.0175                   9.757674830764435E-6
0.0035                    0.0185                   7.024322903172893E-6
0.0035                    0.0195                   5.914752475964066E-6
0.0035                    0.0205                   5.493807122608759E-6
0.0035                    0.0215                   5.384963814273911E-6
0.0035                    0.0225                   5.4287248904432E-6
0.0035                    0.0235                   5.5537310490928265E-6
0.0035                    0.0245                   5.725888217171709E-6
0.0035                    0.0255                   5.922045215701071E-6
0.0035                    0.0265                   6.11452901147605E-6
0.0035                    0.0275                   6.2350893997974536E-6
0.0035                    0.0285                   6.20079299374966E-6
0.0035                    0.0295                   5.7003805577173185E-6
0.0035                    0.0305                   5.223352297777853E-6
0.0035                    0.0315                   2.6658294872385324E-6
0.0045                    -0.0315                  3.4766599371004813E-6
0.0045                    -0.0305                  6.14000949941831E-6
0.0045                    -0.0295                  5.869574615269569E-6
0.0045                    -0.0285                  6.342055864040017E-6
0.0045                    -0.0275                  6.481053376627643E-6
0.0045                    -0.0265                  6.5068814524123885E-6
0.0045                    -0.0255                  6.455643116330988E-6
0.0045                    -0.0245                  6.429251143952898E-6
0.0045                    -0.0235                  6.496341238019528E-6
0.0045                    -0.0225                  6.727865676991582E-6
0.0045                    -0.0215                  7.216361137537311E-6
0.0045                    -0.0205                  8.133192598334882E-6
0.0045                    -0.0195                  9.862205217885804E-6
0.0045                    -0.0185                  1.3314421969445332E-5
0.0045                    -0.0175                  2.0743868439052215E-5
0.0045                    -0.0165                  3.7686038352105E-5
0.0045                    -0.0155                  7.942096952989439E-5
0.0045                    -0.0145                  1.8824259543775333E-4
0.0045                    -0.0135                  5.324934782708235E-4
0.0045                    -0.0125                  0.0016814586319527335
0.0045                    -0.0115                  0.005417400644061643
0.0045                    -0.0105                  0.011802693320352567
0.0045                    -0.0095                  0.016693878340273107
0.0045                    -0.0085                  0.016433640886767537
0.0045                    -0.0075                  0.01157393986672066
0.0045                    -0.0065                  0.005837768959250082
0.0045                    -0.0055                  0.0023242717690120877
0.0045                    -0.0045                  8.974338575698578E-4
0.0045                    -0.0035                  3.2723786247703497E-4
0.0045                    -0.0025                  1.1378850178015919E-4
0.0045                    -0.0015                  4.5982423744967285E-5
0.0045                    -5.0E-4                  3.5797143281846745E-5
0.0045                    5.0E-4                   6.073296691975041E-5
0.0045                    0.0015                   1.8611105416515677E-4
0.0045                    0.0025                   6.108475824784929E-4
0.0045                    0.0035                   0.0017723576341977926
0.0045                    0.0045                   0.004829141041733586
0.0045                    0.0055                   0.010837847066545865
0.0045                    0.0065                   0.018971634550968536
0.0045                    0.0075                   0.025761597337741218
0.0045                    0.0085                   0.027371921594847
0.0045                    0.0095                   0.02252482436494392
0.0045                    0.0105                   0.013231281190531807
0.0045                    0.0115                   0.004932143871729136
0.0045                    0.0125                   0.0013169884618905669
0.0045                    0.0135                   4.709571329724337E-4
0.0045                    0.0145                   1.5253240053130553E-4
0.0045                    0.0155                   5.309542030144818E-5
0.0045                    0.0165                   2.2874514704173144E-5
0.0045                    0.0175                   1.2354145803516796E-5
0.0045                    0.0185                   8.129059681638036E-6
0.0045                    0.0195                   6.42568722902581E-6
0.0045                    0.0205                   5.787774737501709E-6
0.0045                    0.0215                   5.6239722989390656E-6
0.0045                    0.0225                   5.6790024708259935E-6
0.0045                    0.0235                   5.8391645494075965E-6
0.0045                    0.0245                   6.0469688899970204E-6
0.0045                    0.0255                   6.259052490378772E-6
0.0045                    0.0265                   6.424336124986037E-6
0.0045                    0.0275                   6.450328197901746E-6
0.0045                    0.0285                   6.261866429780462E-6
0.0045                    0.0295                   5.627248272569268E-6
0.0045                    0.0305                   5.202996742852097E-6
0.0045                    0.0315                   2.710646407413379E-6
0.0055                    -0.0315                  3.637873444337602E-6
0.0055                    -0.0305                  6.248680945542235E-6
0.0055                    -0.0295                  5.7407320041830485E-6
0.0055                    -0.0285                  6.215852717369806E-6
0.0055                    -0.0275                  6.429589237957309E-6
0.0055                    -0.0265                  6.545594813900266E-6
0.0055                    -0.0255                  6.549851675120677E-6
0.0055                    -0.0245                  6.544776851495638E-6
0.0055                    -0.0235                  6.62581279482168E-6
0.0055                    -0.0225                  6.912233338998347E-6
0.0055                    -0.0215                  7.579771056969632E-6
0.0055                    -0.0205                  8.965861686779553E-6
0.0055                    -0.0195                  1.1809906538496658E-5
0.0055                    -0.0185                  1.787760419035293E-5
0.0055                    -0.0175                  3.134724780433093E-5
0.0055                    -0.0165                  6.387814438062946E-5
0.0055                    -0.0155                  1.4698535582787775E-4
0.0055                    -0.0145                  4.1205695428019734E-4
0.0055                    -0.0135                  0.0011985843199324997
0.0055                    -0.0125                  0.003625779549279208
0.0055                    -0.0115                  0.009212568371752288
0.0055                    -0.0105                  0.015493391787020895
0.0055                    -0.0095                  0.017265331704379983
0.0055                    -0.0085                  0.013417768931149118
0.0055                    -0.0075                  0.007409445902848843
0.0055                    -0.0065                  0.0030783787932292367
0.0055                    -0.0055                  0.0011496652633635528
0.0055                    -0.0045                  4.2080145005298473E-4
0.0055                    -0.0035                  1.4430068155591865E-4
0.0055                    -0.0025                  5.4850416907859416E-5
0.0055                    -0.0015                  2.790828611585521E-5
0.0055                    -5.0E-4                  2.354853473717753E-5
0.0055                    5.0E-4                   3.900404358383993E-5
0.0055                    0.0015                   1.0247084645823352E-4
0.0055                    0.0025                   3.124214384903316E-4
0.0055                    0.0035                   9.054108559913034E-4
0.0055                    0.0045                   0.002509204026220889
0.0055                    0.0055                   0.006395729347975509
0.0055                    0.0065                   0.013386795815134085
0.0055                    0.0075                   0.021525029063864328
0.0055                    0.0085                   0.0266330802477004
0.0055                    0.0095                   0.025882382250834515
0.0055                    0.0105                   0.01914379203281113
0.0055                    0.0115                   0.00978536126586485
0.0055                    0.0125                   0.0033393017941566066
0.0055                    0.0135                   0.0010070748686950455
0.0055                    0.0145                   3.2030038251779156E-4
0.0055                    0.0155                   9.163818701694997E-5
0.0055                    0.0165                   3.652104398587384E-5
0.0055                    0.0175                   1.743387129155624E-5
0.0055                    0.0185                   1.029856136173599E-5
0.0055                    0.0195                   7.435080328405801E-6
0.0055                    0.0205                   6.36694734860864E-6
0.0055                    0.0215                   6.0547433827809956E-6
0.0055                    0.0225                   6.069532642955349E-6
0.0055                    0.0235                   6.223943658067396E-6
0.0055                    0.0245                   6.4233820555428685E-6
0.0055                    0.0255                   6.600042343456814E-6
0.0055                    0.0265                   6.685931238325809E-6
0.0055                    0.0275                   6.590375798073042E-6
0.0055                    0.0285                   6.280074502627664E-6
0.0055                    0.0295                   5.5826807156874455E-6
0.0055                    0.0305                   5.223165325812647E-6
0.0055                    0.0315                   2.761438098813165E-6
0.0065                    -0.0315                  3.782446508968399E-6
0.0065                    -0.0305                  6.355862290415473E-6
0.0065                    -0.0295                  5.6215163420775125E-6
0.0065                    -0.0285                  6.050976284142557E-6
0.0065                    -0.0275                  6.279225935938401E-6
0.0065                    -0.0265                  6.449681134088423E-6
0.0065                    -0.0255                  6.508046460195132E-6
0.0065                    -0.0245                  6.5443406127722845E-6
0.0065                    -0.0235                  6.676343317406609E-6
0.0065                    -0.0225                  7.0925512487820814E-6
0.0065                    -0.0215                  8.117993885907924E-6
0.0065                    -0.0205                  1.0399086190267813E-5
0.0065                    -0.0195                  1.5383214359011703E-5
0.0065                    -0.0185                  2.6423078831418712E-5
0.0065                    -0.0175                  5.2584577855230825E-5
0.0065                    -0.0165                  1.1901029549262222E-4
0.0065                    -0.0155                  3.253835020697666E-4
0.0065                    -0.0145                  9.420067812143908E-4
0.0065                    -0.0135                  0.0026523867980659155
0.0065                    -0.0125                  0.006994754212814242
0.0065                    -0.0115                  0.013568769856886015
0.0065                    -0.0105                  0.017667953244868792
0.0065                    -0.0095                  0.015614418552090276
0.0065                    -0.0085                  0.00953454222058006
0.0065                    -0.0075                  0.004188163356451781
0.0065                    -0.0065                  0.001538575864767253
0.0065                    -0.0055                  5.481210786398444E-4