% Model:              Benchmark260518.mph
% Version:            COMSOL 6.2.0.339
% Date:               May 20 2026, 05:33
% Dimension:          2
% Nodes:              4096
% Expressions:        1
% Description:        速度大小
% Length unit:        m
% x                       y                        spf.U (m/s)
5.0E-4                    -0.0315                  2.3083679090189864E-6
5.0E-4                    -0.0305                  4.449311269223103E-6
5.0E-4                    -0.0295                  4.729121902080351E-6
5.0E-4                    -0.0285                  5.198361381646251E-6
5.0E-4                    -0.0275                  5.490924057979631E-6
5.0E-4                    -0.0265                  5.8018741429417896E-6
5.0E-4                    -0.0255                  6.109762649545221E-6
5.0E-4                    -0.0245                  6.454933127894135E-6
5.0E-4                    -0.0235                  6.796134518027971E-6
5.0E-4                    -0.0225                  7.160694264813718E-6
5.0E-4                    -0.0215                  7.5930304502831285E-6
5.0E-4                    -0.0205                  8.120407611179595E-6
5.0E-4                    -0.0195                  8.857465854132693E-6
5.0E-4                    -0.0185                  1.0334806787237222E-5
5.0E-4                    -0.0175                  1.3522454156022883E-5
5.0E-4                    -0.0165                  1.9992093120231355E-5
5.0E-4                    -0.0155                  3.576831873934306E-5
5.0E-4                    -0.0145                  7.756768026478397E-5
5.0E-4                    -0.0135                  1.7292298161526146E-4
5.0E-4                    -0.0125                  2.81111544931869E-4
5.0E-4                    -0.0115                  3.2623114212698126E-4
5.0E-4                    -0.0105                  3.441410374005635E-4
5.0E-4                    -0.0095                  4.926320221264615E-4
5.0E-4                    -0.0085                  9.066565699260494E-4
5.0E-4                    -0.0075                  0.0015823745758568604
5.0E-4                    -0.0065                  0.002440288655093527
5.0E-4                    -0.0055                  0.0033748046187037336
5.0E-4                    -0.0045                  0.004294255299289
5.0E-4                    -0.0035                  0.0051319605313600095
5.0E-4                    -0.0025                  0.005859198269769201
5.0E-4                    -0.0015                  0.006466193872872123
5.0E-4                    -5.0E-4                  0.006939600887593067
5.0E-4                    5.0E-4                   0.007251306426618832
5.0E-4                    0.0015                   0.007345086464394273
5.0E-4                    0.0025                   0.0071339089448959735
5.0E-4                    0.0035                   0.00652925350497474
5.0E-4                    0.0045                   0.00549378218798755
5.0E-4                    0.0055                   0.004104956112155585
5.0E-4                    0.0065                   0.0025686400691023134
5.0E-4                    0.0075                   0.0014373981479686498
5.0E-4                    0.0085                   0.002176449058462295
5.0E-4                    0.0095                   0.0033131594816303367
5.0E-4                    0.0105                   0.00354856239416548
5.0E-4                    0.0115                   0.0029931978008906346
5.0E-4                    0.0125                   0.0024094238873702454
5.0E-4                    0.0135                   0.003990390355932738
5.0E-4                    0.0145                   0.02916066669388616
5.0E-4                    0.0155                   0.049571101140738906
5.0E-4                    0.0165                   0.03971821161349223
5.0E-4                    0.0175                   0.015412756825919456
5.0E-4                    0.0185                   6.098736226304264E-4
5.0E-4                    0.0195                   5.149978591472857E-4
5.0E-4                    0.0205                   1.2660334947967844E-4
5.0E-4                    0.0215                   6.603494266751237E-5
5.0E-4                    0.0225                   3.902388454622135E-5
5.0E-4                    0.0235                   1.4872683762907247E-5
5.0E-4                    0.0245                   6.2010144737820984E-6
5.0E-4                    0.0255                   3.141218091268854E-6
5.0E-4                    0.0265                   2.0332100694953206E-6
5.0E-4                    0.0275                   1.6352364506858274E-6
5.0E-4                    0.0285                   1.4926045545165333E-6
5.0E-4                    0.0295                   1.4223167940769687E-6
5.0E-4                    0.0305                   1.3811951355544689E-6
5.0E-4                    0.0315                   7.078105173199088E-7
0.0015                    -0.0315                  4.440995702261891E-6
0.0015                    -0.0305                  8.4211007721253E-6
0.0015                    -0.0295                  8.522185170185233E-6
0.0015                    -0.0285                  8.939705223082424E-6
0.0015                    -0.0275                  9.119280056077562E-6
0.0015                    -0.0265                  9.38023458979497E-6
0.0015                    -0.0255                  9.704888274794525E-6
0.0015                    -0.0245                  1.0156015892336272E-5
0.0015                    -0.0235                  1.0714489931331442E-5
0.0015                    -0.0225                  1.1413267621705035E-5
0.0015                    -0.0215                  1.2287027193009572E-5
0.0015                    -0.0205                  1.3366563323554841E-5
0.0015                    -0.0195                  1.4869430915807066E-5
0.0015                    -0.0185                  1.7642266567965945E-5
0.0015                    -0.0175                  2.3447166477642487E-5
0.0015                    -0.0165                  3.6088767412764606E-5
0.0015                    -0.0155                  6.74940274152538E-5
0.0015                    -0.0145                  1.4607383622857178E-4
0.0015                    -0.0135                  3.0540450930429053E-4
0.0015                    -0.0125                  5.047342466739098E-4
0.0015                    -0.0115                  7.366969330676698E-4
0.0015                    -0.0105                  0.0012337577050186256
0.0015                    -0.0095                  0.0023365243778680966
0.0015                    -0.0085                  0.004064274636927206
0.0015                    -0.0075                  0.006190081958685617
0.0015                    -0.0065                  0.008440820560145479
0.0015                    -0.0055                  0.010561355880955997
0.0015                    -0.0045                  0.012398388805130238
0.0015                    -0.0035                  0.013907149566155814
0.0015                    -0.0025                  0.015101951584360528
0.0015                    -0.0015                  0.016031412135429565
0.0015                    -5.0E-4                  0.016739516294507085
0.0015                    5.0E-4                   0.01721402735700977
0.0015                    0.0015                   0.017385232934518925
0.0015                    0.0025                   0.01715045956903879
0.0015                    0.0035                   0.016395332647110274
0.0015                    0.0045                   0.015038871028854725
0.0015                    0.0055                   0.013101150050710934
0.0015                    0.0065                   0.010636189422487907
0.0015                    0.0075                   0.0075737505459212645
0.0015                    0.0085                   0.004168798209298326
0.0015                    0.0095                   0.002725398025451126
0.0015                    0.0105                   0.004230443300962445
0.0015                    0.0115                   0.0048105159193245805
0.0015                    0.0125                   0.0034860682074073267
0.0015                    0.0135                   0.012201819038314255
0.0015                    0.0145                   0.03619601648860453
0.0015                    0.0155                   0.04811257835355858
0.0015                    0.0165                   0.03599734770290359
0.0015                    0.0175                   0.013497430417617433
0.0015                    0.0185                   9.424598112418416E-4
0.0015                    0.0195                   0.0011596995985706604
0.0015                    0.0205                   3.8039066556087934E-4
0.0015                    0.0215                   1.3695665876072252E-4
0.0015                    0.0225                   6.849540915191592E-5
0.0015                    0.0235                   2.720299309384253E-5
0.0015                    0.0245                   1.1794579331713642E-5
0.0015                    0.0255                   6.084018731808345E-6
0.0015                    0.0265                   3.960759168567262E-6
0.0015                    0.0275                   3.204923788876094E-6
0.0015                    0.0285                   2.9700809679003624E-6
0.0015                    0.0295                   2.866636446124911E-6
0.0015                    0.0305                   2.7594158928781947E-6
0.0015                    0.0315                   1.4048373118122068E-6
0.0025                    -0.0315                  4.750306896424607E-6
0.0025                    -0.0305                  8.559575055683736E-6
0.0025                    -0.0295                  8.005600941053484E-6
0.0025                    -0.0285                  8.069869102657326E-6
0.0025                    -0.0275                  7.885794839008313E-6
0.0025                    -0.0265                  7.789815447103624E-6
0.0025                    -0.0255                  7.824188151803257E-6
0.0025                    -0.0245                  8.096336923317237E-6
0.0025                    -0.0235                  8.696314554678265E-6
0.0025                    -0.0225                  9.690893950382308E-6
0.0025                    -0.0215                  1.1108136553293524E-5
0.0025                    -0.0205                  1.2979779598397767E-5
0.0025                    -0.0195                  1.550886345677246E-5
0.0025                    -0.0185                  1.9424511394730205E-5
0.0025                    -0.0175                  2.6808721408351298E-5
0.0025                    -0.0165                  4.280993957525529E-5
0.0025                    -0.0155                  8.158389850297116E-5
0.0025                    -0.0145                  1.7387045907317985E-4
0.0025                    -0.0135                  3.38107806645824E-4
0.0025                    -0.0125                  6.432492092556158E-4
0.0025                    -0.0115                  0.0014157704831462509
0.0025                    -0.0105                  0.0031348024213402057
0.0025                    -0.0095                  0.005804644127134775
0.0025                    -0.0085                  0.008867662291572346
0.0025                    -0.0075                  0.011753639310443266
0.0025                    -0.0065                  0.014130042474980729
0.0025                    -0.0055                  0.015928984581777952
0.0025                    -0.0045                  0.017221070478463954
0.0025                    -0.0035                  0.018089625109669584
0.0025                    -0.0025                  0.01864639476276181
0.0025                    -0.0015                  0.01902312204475044
0.0025                    -5.0E-4                  0.019308808233412827
0.0025                    5.0E-4                   0.01954441096965122
0.0025                    0.0015                   0.019740499122783025
0.0025                    0.0025                   0.01989989182548256
0.0025                    0.0035                   0.020031581654658896
0.0025                    0.0045                   0.020115475781443494
0.0025                    0.0055                   0.020039578684578386
0.0025                    0.0065                   0.019531000377745727
0.0025                    0.0075                   0.01810075501778026
0.0025                    0.0085                   0.015171446236360416
0.0025                    0.0095                   0.01063089359031209
0.0025                    0.0105                   0.005625503217084023
0.0025                    0.0115                   0.0029278791309214087
0.0025                    0.0125                   0.007182005495735264
0.0025                    0.0135                   0.021675553334712643
0.0025                    0.0145                   0.03966733646771146
0.0025                    0.0155                   0.04502879831543467
0.0025                    0.0165                   0.03124626123858662
0.0025                    0.0175                   0.010638125862701657
0.0025                    0.0185                   6.536871872024618E-4
0.0025                    0.0195                   0.0014790549776997719
0.0025                    0.0205                   6.10144775072915E-4
0.0025                    0.0215                   1.8423033190303602E-4
0.0025                    0.0225                   6.531677270652573E-5
0.0025                    0.0235                   2.611996870386682E-5
0.0025                    0.0245                   1.2385681177575172E-5
0.0025                    0.0255                   6.8045786427924276E-6
0.0025                    0.0265                   4.548850039876037E-6
0.0025                    0.0275                   3.7062943573654458E-6
0.0025                    0.0285                   3.4320351284808173E-6
0.0025                    0.0295                   3.229456485413962E-6
0.0025                    0.0305                   2.960837961986421E-6
0.0025                    0.0315                   1.4844317228703022E-6
0.0035                    -0.0315                  5.290255400018303E-6
0.0035                    -0.0305                  9.075223181308072E-6
0.0035                    -0.0295                  8.11759928654335E-6
0.0035                    -0.0285                  8.374003467390817E-6
0.0035                    -0.0275                  8.308507303806674E-6
0.0035                    -0.0265                  8.275082199066121E-6
0.0035                    -0.0255                  8.370078278962184E-6
0.0035                    -0.0245                  8.845019903750818E-6
0.0035                    -0.0235                  9.981201573228593E-6
0.0035                    -0.0225                  1.2080250435803584E-5
0.0035                    -0.0215                  1.5427917592908858E-5
0.0035                    -0.0205                  2.027922964856721E-5
0.0035                    -0.0195                  2.6948677403895256E-5
0.0035                    -0.0185                  3.6307578089329495E-5
0.0035                    -0.0175                  5.111926517897245E-5
0.0035                    -0.0165                  8.000133353492325E-5
0.0035                    -0.0155                  1.419875517762231E-4
0.0035                    -0.0145                  2.932280394969552E-4
0.0035                    -0.0135                  5.979517738913646E-4
0.0035                    -0.0125                  0.0013375548594169236
0.0035                    -0.0115                  0.003159254082706387
0.0035                    -0.0105                  0.006264940684972158
0.0035                    -0.0095                  0.00987741592509566
0.0035                    -0.0085                  0.012989689760978211
0.0035                    -0.0075                  0.015135147490404408
0.0035                    -0.0065                  0.01635549850095628
0.0035                    -0.0055                  0.016840353483844054
0.0035                    -0.0045                  0.016817460014319444
0.0035                    -0.0035                  0.016540317268662248
0.0035                    -0.0025                  0.016216628353300542
0.0035                    -0.0015                  0.01596869074544846
0.0035                    -5.0E-4                  0.015858940973512557
0.0035                    5.0E-4                   0.015934272740489006
0.0035                    0.0015                   0.016234458064234337
0.0035                    0.0025                   0.016803096458260405
0.0035                    0.0035                   0.017715594981805503
0.0035                    0.0045                   0.019055309230423853
0.0035                    0.0055                   0.020773594415225742
0.0035                    0.0065                   0.022554022346523712
0.0035                    0.0075                   0.02383077102353141
0.0035                    0.0085                   0.023852355224270243
0.0035                    0.0095                   0.02201999222187872
0.0035                    0.0105                   0.018708946197083177
0.0035                    0.0115                   0.01601165445538546
0.0035                    0.0125                   0.018512854327607204
0.0035                    0.0135                   0.02873702549512476
0.0035                    0.0145                   0.039252457894989455
0.0035                    0.0155                   0.040037346212948736
0.0035                    0.0165                   0.025881157500894755
0.0035                    0.0175                   0.007888462819192095
0.0035                    0.0185                   9.278336277608422E-4
0.0035                    0.0195                   0.0018200850916037627
0.0035                    0.0205                   8.701135968896889E-4
0.0035                    0.0215                   2.588040031197456E-4
0.0035                    0.0225                   7.424609188246622E-5
0.0035                    0.0235                   2.8125124938850128E-5
0.0035                    0.0245                   1.4744516452208595E-5
0.0035                    0.0255                   8.725394355365072E-6
0.0035                    0.0265                   5.946386170265667E-6
0.0035                    0.0275                   4.768154838036852E-6
0.0035                    0.0285                   4.237422472688988E-6
0.0035                    0.0295                   3.7494141976008104E-6
0.0035                    0.0305                   3.2456039173235255E-6
0.0035                    0.0315                   1.6068411309979593E-6
0.0045                    -0.0315                  5.638539262592061E-6
0.0045                    -0.0305                  9.335372014701006E-6
0.0045                    -0.0295                  7.975886063005915E-6
0.0045                    -0.0285                  8.371878190000312E-6
0.0045                    -0.0275                  8.55885367067241E-6
0.0045                    -0.0265                  8.809996390347688E-6
0.0045                    -0.0255                  9.277583757495514E-6
0.0045                    -0.0245                  1.0446205518970753E-5
0.0045                    -0.0235                  1.3075356252840043E-5
0.0045                    -0.0225                  1.8222659042478586E-5
0.0045                    -0.0215                  2.6962125560935778E-5
0.0045                    -0.0205                  4.0748313207732574E-5
0.0045                    -0.0195                  6.158089495713665E-5
0.0045                    -0.0185                  9.055256252598006E-5
0.0045                    -0.0175                  1.29667235974223E-4
0.0045                    -0.0165                  1.9246870687526964E-4
0.0045                    -0.0155                  3.399161938152496E-4
0.0045                    -0.0145                  6.487121601166242E-4
0.0045                    -0.0135                  0.0012496697530488823
0.0045                    -0.0125                  0.002750256360046473
0.0045                    -0.0115                  0.00578198502818494
0.0045                    -0.0105                  0.00967991293618664
0.0045                    -0.0095                  0.01298148077438932
0.0045                    -0.0085                  0.014881619103987455
0.0045                    -0.0075                  0.015424116034312816
0.0045                    -0.0065                  0.014901670578951738
0.0045                    -0.0055                  0.013678938431064892
0.0045                    -0.0045                  0.012227694791133526
0.0045                    -0.0035                  0.010920778993211666
0.0045                    -0.0025                  0.009907052811623749
0.0045                    -0.0015                  0.009200735883077182
0.0045                    -5.0E-4                  0.00880585434163129
0.0045                    5.0E-4                   0.008735848503695515
0.0045                    0.0015                   0.00900424506541604
0.0045                    0.0025                   0.009641939915918366
0.0045                    0.0035                   0.01074559667459991
0.0045                    0.0045                   0.012486860759770065
0.0045                    0.0055                   0.015012598326984594
0.0045                    0.0065                   0.018255059517700928
0.0045                    0.0075                   0.021826154885419547
0.0045                    0.0085                   0.02494724907866656
0.0045                    0.0095                   0.026682466744453848
0.0045                    0.0105                   0.026504550390348058
0.0045                    0.0115                   0.025075268544533857
0.0045                    0.0125                   0.025053742521725895
0.0045                    0.0135                   0.029176900204872826
0.0045                    0.0145                   0.03416019834330943
0.0045                    0.0155                   0.032965920320251016
0.0045                    0.0165                   0.020859500509009192
0.0045                    0.0175                   0.006374526078855298
0.0045                    0.0185                   8.169353261999541E-4
0.0045                    0.0195                   0.0021908181327025223
0.0045                    0.0205                   0.0012491672645816515
0.0045                    0.0215                   3.6445967430533566E-4
0.0045                    0.0225                   8.863448775260991E-5
0.0045                    0.0235                   3.436720506736739E-5
0.0045                    0.0245                   1.9337000632332102E-5
0.0045                    0.0255                   1.1535513644948666E-5
0.0045                    0.0265                   7.650572537679524E-6
0.0045                    0.0275                   5.87561358308744E-6
0.0045                    0.0285                   4.969674636115873E-6
0.0045                    0.0295                   4.200400113005228E-6
0.0045                    0.0305                   3.5141259765772662E-6
0.0045                    0.0315                   1.7268094201484343E-6
0.0055                    -0.0315                  5.995848532377939E-6
0.0055                    -0.0305                  9.638980095084685E-6
0.0055                    -0.0295                  7.862236751583152E-6
0.0055                    -0.0285                  8.361652006860059E-6
0.0055                    -0.0275                  8.856186930317807E-6
0.0055                    -0.0265                  9.635329703240026E-6
0.0055                    -0.0255                  1.0995914492504869E-5
0.0055                    -0.0245                  1.394439382246029E-5
0.0055                    -0.0235                  2.0324900344186345E-5
0.0055                    -0.0225                  3.393928747992862E-5
0.0055                    -0.0215                  6.058071406932745E-5
0.0055                    -0.0205                  1.035904614542113E-4
0.0055                    -0.0195                  1.709849303626059E-4
0.0055                    -0.0185                  2.758286895525685E-4
0.0055                    -0.0175                  4.188663696854953E-4
0.0055                    -0.0165                  6.424285191632936E-4
0.0055                    -0.0155                  0.0010716810068689261
0.0055                    -0.0145                  0.0017041681751416952
0.0055                    -0.0135                  0.0026775473579660667
0.0055                    -0.0125                  0.004859865236078988
0.0055                    -0.0115                  0.00854775471865618
0.0055                    -0.0105                  0.012238485218937016
0.0055                    -0.0095                  0.014357904364742052
0.0055                    -0.0085                  0.01460018270608188
0.0055                    -0.0075                  0.01327236200395388
0.0055                    -0.0065                  0.010889130454301517
0.0055                    -0.0055                  0.00832779758124446
0.0055                    -0.0045                  0.006264651201898263
0.0055                    -0.0035                  0.00483701466212525
0.0055                    -0.0025                  0.0038908967021440773
0.0055                    -0.0015                  0.0032646287255339293
0.0055                    -5.0E-4                  0.0028777655043617607
0.0055                    5.0E-4                   0.002720790168650549
0.0055                    0.0015                   0.0027941783297031468
0.0055                    0.0025                   0.00309271486763179
0.0055                    0.0035                   0.003716461463765106
0.0055                    0.0045                   0.004869327062497259
0.0055                    0.0055                   0.006718115863735842
0.0055                    0.0065                   0.009413902013115856
0.0055                    0.0075                   0.013051530475496984
0.0055                    0.0085                   0.017331565823068454
0.0055                    0.0095                   0.021453526291280882
0.0055                    0.0105                   0.024271943101906987
0.0055                    0.0115                   0.02483803875523949
0.0055                    0.0125                   0.02360140002319152
0.0055                    0.0135                   0.023339654148478862
0.0055                    0.0145                   0.025126805292017395
0.0055                    0.0155                   0.024561512286465515
0.0055                    0.0165                   0.01769275976143664
0.0055                    0.0175                   0.008388281249347497
0.0055                    0.0185                   0.0020550507525647715
0.0055                    0.0195                   0.0018470031952411983
0.0055                    0.0205                   0.0014982007721623506
0.0055                    0.0215                   4.836654058742719E-4
0.0055                    0.0225                   1.1603131688487667E-4
0.0055                    0.0235                   5.572152160393137E-5
0.0055                    0.0245                   2.884213318197718E-5
0.0055                    0.0255                   1.598636619634655E-5
0.0055                    0.0265                   1.0015949560629569E-5
0.0055                    0.0275                   7.209858264876118E-6
0.0055                    0.0285                   5.787471046689707E-6
0.0055                    0.0295                   4.726664321073983E-6
0.0055                    0.0305                   3.854677357979581E-6
0.0055                    0.0315                   1.8730556202150982E-6
0.0065                    -0.0315                  6.296436188986268E-6
0.0065                    -0.0305                  9.904847865117291E-6
0.0065                    -0.0295                  7.762039203142719E-6
0.0065                    -0.0285                  8.349539307217036E-6
0.0065                    -0.0275                  9.215410348806278E-6
0.0065                    -0.0265                  1.0822373657505576E-5
0.0065                    -0.0255                  1.3870254116041888E-5
0.0065                    -0.0245                  2.0638624489769464E-5
0.0065                    -0.0235                  3.6524528599173396E-5
0.0065                    -0.0225                  7.336902616966485E-5
0.0065                    -0.0215                  1.632481076918347E-4
0.0065                    -0.0205                  3.323011221583609E-4
0.0065                    -0.0195                  5.8315303879986E-4
0.0065                    -0.0185                  9.477988588958939E-4
0.0065                    -0.0175                  0.0015016539695618043
0.0065                    -0.0165                  0.0023397654791117092
0.0065                    -0.0155                  0.0033192960153963285
0.0065                    -0.0145                  0.004093444122707712
0.0065                    -0.0135                  0.004879411017720425
0.0065                    -0.0125                  0.0068943190021204396
0.0065                    -0.0115                  0.010378173666070356
0.0065                    -0.0105                  0.013302292705814246
0.0065                    -0.0095                  0.014173440042891304
0.0065                    -0.0085                  0.012838175184845077
0.0065                    -0.0075                  0.00980973510336801
0.0065                    -0.0065                  0.0063719455890082705
0.0065                    -0.0055                  0.003776397344772871