% Model:              Benchmark260518细网格.mph
% Version:            COMSOL 6.2.0.339
% Date:               May 26 2026, 15:40
% Dimension:          2
% Nodes:              4096
% Expressions:        1
% Description:        速度大小
% Length unit:        m
% x                       y                        spf.U (m/s)
5.0E-4                    -0.0315                  3.454412920362119E-6
5.0E-4                    -0.0305                  4.494528641806985E-6
5.0E-4                    -0.0295                  5.1766826281126495E-6
5.0E-4                    -0.0285                  5.721389585780751E-6
5.0E-4                    -0.0275                  6.091312687112317E-6
5.0E-4                    -0.0265                  6.420612636906333E-6
5.0E-4                    -0.0255                  6.684813180021118E-6
5.0E-4                    -0.0245                  6.859066680955859E-6
5.0E-4                    -0.0235                  6.990192109383188E-6
5.0E-4                    -0.0225                  7.0128987071070665E-6
5.0E-4                    -0.0215                  6.910589870413455E-6
5.0E-4                    -0.0205                  6.698200226755726E-6
5.0E-4                    -0.0195                  6.46335922894612E-6
5.0E-4                    -0.0185                  5.934232527141854E-6
5.0E-4                    -0.0175                  5.151782432777388E-6
5.0E-4                    -0.0165                  4.892433806551892E-6
5.0E-4                    -0.0155                  4.7487931021552865E-6
5.0E-4                    -0.0145                  4.992809940329523E-6
5.0E-4                    -0.0135                  7.70798081563826E-6
5.0E-4                    -0.0125                  2.1538174052707972E-5
5.0E-4                    -0.0115                  1.1834982842940629E-4
5.0E-4                    -0.0105                  5.206698485957069E-4
5.0E-4                    -0.0095                  0.0015778713410671472
5.0E-4                    -0.0085                  0.0022967605023048385
5.0E-4                    -0.0075                  0.03415125324936776
5.0E-4                    -0.0065                  0.046478683910000956
5.0E-4                    -0.0055                  0.04395903697554665
5.0E-4                    -0.0045                  0.033564452144307096
5.0E-4                    -0.0035                  0.021050374362876885
5.0E-4                    -0.0025                  0.007528943044882639
5.0E-4                    -0.0015                  0.00109938906328975
5.0E-4                    -5.0E-4                  1.1362195549168735E-4
5.0E-4                    5.0E-4                   6.51993201265284E-5
5.0E-4                    0.0015                   2.956983127053048E-4
5.0E-4                    0.0025                   0.0019911114776695552
5.0E-4                    0.0035                   0.011134275431288608
5.0E-4                    0.0045                   0.021615399064490184
5.0E-4                    0.0055                   0.029886758782800213
5.0E-4                    0.0065                   0.03558679461782539
5.0E-4                    0.0075                   0.03181564951422435
5.0E-4                    0.0085                   0.0029474268386391646
5.0E-4                    0.0095                   0.0018815552438183594
5.0E-4                    0.0105                   0.0010355986202910668
5.0E-4                    0.0115                   3.2018113010183187E-4
5.0E-4                    0.0125                   7.558213441119578E-5
5.0E-4                    0.0135                   1.792554770548631E-5
5.0E-4                    0.0145                   8.6081014587915E-6
5.0E-4                    0.0155                   7.70548300452764E-6
5.0E-4                    0.0165                   7.444806288799773E-6
5.0E-4                    0.0175                   6.860215407247302E-6
5.0E-4                    0.0185                   7.068579017107765E-6
5.0E-4                    0.0195                   7.488110533259121E-6
5.0E-4                    0.0205                   7.619471859745044E-6
5.0E-4                    0.0215                   7.801340621539621E-6
5.0E-4                    0.0225                   7.787424981285349E-6
5.0E-4                    0.0235                   7.74841748136356E-6
5.0E-4                    0.0245                   7.588831383732338E-6
5.0E-4                    0.0255                   7.3960795911578035E-6
5.0E-4                    0.0265                   7.125434397235871E-6
5.0E-4                    0.0275                   6.791572006357302E-6
5.0E-4                    0.0285                   6.349834796863189E-6
5.0E-4                    0.0295                   5.84428645887235E-6
5.0E-4                    0.0305                   4.9651808709601734E-6
5.0E-4                    0.0315                   3.777031712401018E-6
0.0015                    -0.0315                  4.461874453264996E-6
0.0015                    -0.0305                  5.8621904850589404E-6
0.0015                    -0.0295                  6.235341606613108E-6
0.0015                    -0.0285                  6.198903320290502E-6
0.0015                    -0.0275                  6.130817466991496E-6
0.0015                    -0.0265                  6.093422063504482E-6
0.0015                    -0.0255                  6.070834482645755E-6
0.0015                    -0.0245                  6.0560951192817444E-6
0.0015                    -0.0235                  6.047055601000966E-6
0.0015                    -0.0225                  6.094096477660695E-6
0.0015                    -0.0215                  6.2553378055789545E-6
0.0015                    -0.0205                  6.644144191907096E-6
0.0015                    -0.0195                  7.418043583880748E-6
0.0015                    -0.0185                  8.761408035569628E-6
0.0015                    -0.0175                  1.0722373449283359E-5
0.0015                    -0.0165                  1.321827515443366E-5
0.0015                    -0.0155                  1.5971608831030506E-5
0.0015                    -0.0145                  1.861629516371312E-5
0.0015                    -0.0135                  2.6630247686788757E-5
0.0015                    -0.0125                  6.456596166994065E-5
0.0015                    -0.0115                  3.408561697277059E-4
0.0015                    -0.0105                  0.0015050898865832858
0.0015                    -0.0095                  0.002248512973673845
0.0015                    -0.0085                  0.009019055123530432
0.0015                    -0.0075                  0.03957313746099849
0.0015                    -0.0065                  0.04746809506077783
0.0015                    -0.0055                  0.043124759227835235
0.0015                    -0.0045                  0.03173341966852421
0.0015                    -0.0035                  0.01722252450719255
0.0015                    -0.0025                  0.004125923867762959
0.0015                    -0.0015                  5.964400549713642E-4
0.0015                    -5.0E-4                  8.976820324454676E-5
0.0015                    5.0E-4                   6.277591236734336E-5
0.0015                    0.0015                   2.1843742616052718E-4
0.0015                    0.0025                   9.146435711043109E-4
0.0015                    0.0035                   0.005537502016631936
0.0015                    0.0045                   0.01739625059572864
0.0015                    0.0055                   0.028421435220761005
0.0015                    0.0065                   0.03573098996455653
0.0015                    0.0075                   0.036077781228260906
0.0015                    0.0085                   0.013956605927326603
0.0015                    0.0095                   0.0013575279553719292
0.0015                    0.0105                   0.0023597306214509215
0.0015                    0.0115                   0.0010445823538264747
0.0015                    0.0125                   2.3257875584825472E-4
0.0015                    0.0135                   6.92906319837769E-5
0.0015                    0.0145                   4.045957701960664E-5
0.0015                    0.0155                   3.4377521933552624E-5
0.0015                    0.0165                   2.5319533160480635E-5
0.0015                    0.0175                   1.686927838111905E-5
0.0015                    0.0185                   1.1239274587191027E-5
0.0015                    0.0195                   8.291986121490587E-6
0.0015                    0.0205                   7.0898684311716995E-6
0.0015                    0.0215                   6.588303722861175E-6
0.0015                    0.0225                   6.3856459772497E-6
0.0015                    0.0235                   6.324912291297036E-6
0.0015                    0.0245                   6.340199420781234E-6
0.0015                    0.0255                   6.386969637476507E-6
0.0015                    0.0265                   6.460385037227378E-6
0.0015                    0.0275                   6.559340940555195E-6
0.0015                    0.0285                   6.697264835440995E-6
0.0015                    0.0295                   6.795249837551024E-6
0.0015                    0.0305                   6.417047398219433E-6
0.0015                    0.0315                   4.880867025974823E-6
0.0025                    -0.0315                  4.729201740476807E-6
0.0025                    -0.0305                  6.1032525082615745E-6
0.0025                    -0.0295                  7.075871463204314E-6
0.0025                    -0.0285                  7.214447512767586E-6
0.0025                    -0.0275                  7.1438021512701645E-6
0.0025                    -0.0265                  7.04867236937996E-6
0.0025                    -0.0255                  6.983989413857932E-6
0.0025                    -0.0245                  6.9663017784114556E-6
0.0025                    -0.0235                  7.013936211542712E-6
0.0025                    -0.0225                  7.1736114598125684E-6
0.0025                    -0.0215                  7.525540737678825E-6
0.0025                    -0.0205                  8.288251365654199E-6
0.0025                    -0.0195                  1.0107174085452625E-5
0.0025                    -0.0185                  1.48243045828743E-5
0.0025                    -0.0175                  2.36252452413519E-5
0.0025                    -0.0165                  3.2427006443191595E-5
0.0025                    -0.0155                  4.4566823992437114E-5
0.0025                    -0.0145                  6.199209055361646E-5
0.0025                    -0.0135                  8.721344878721883E-5
0.0025                    -0.0125                  1.5796793668340276E-4
0.0025                    -0.0115                  7.949752287476935E-4
0.0025                    -0.0105                  0.0026575418392833904
0.0025                    -0.0095                  3.460051728028643E-4
0.0025                    -0.0085                  0.019276822471168516
0.0025                    -0.0075                  0.04397764470969961
0.0025                    -0.0065                  0.04745536359476807
0.0025                    -0.0055                  0.041196607768187204
0.0025                    -0.0045                  0.02819535819794505
0.0025                    -0.0035                  0.012393840217242064
0.0025                    -0.0025                  0.002251038000420709
0.0025                    -0.0015                  3.3367809053782313E-4
0.0025                    -5.0E-4                  5.3771424110980416E-5
0.0025                    5.0E-4                   3.659940038740343E-5
0.0025                    0.0015                   1.0067416373875234E-4
0.0025                    0.0025                   4.362915801645564E-4
0.0025                    0.0035                   0.002715765446043955
0.0025                    0.0045                   0.011680028485309886
0.0025                    0.0055                   0.02456715924372949
0.0025                    0.0065                   0.03396102917150097
0.0025                    0.0075                   0.03776387671596717
0.0025                    0.0085                   0.026009097756597956
0.0025                    0.0095                   0.006559194627907815
0.0025                    0.0105                   0.0022777156163706746
0.0025                    0.0115                   0.0022459442373248
0.0025                    0.0125                   8.70262453204171E-4
0.0025                    0.0135                   3.4376633077218277E-4
0.0025                    0.0145                   1.8183919555168397E-4
0.0025                    0.0155                   1.1162487263019042E-4
0.0025                    0.0165                   6.575370184620617E-5
0.0025                    0.0175                   4.2726867881192006E-5
0.0025                    0.0185                   2.1671763412613808E-5
0.0025                    0.0195                   1.1908605395220511E-5
0.0025                    0.0205                   8.71089209515184E-6
0.0025                    0.0215                   7.600071580408273E-6
0.0025                    0.0225                   7.184969988736327E-6
0.0025                    0.0235                   7.063549847543712E-6
0.0025                    0.0245                   7.088192401208468E-6
0.0025                    0.0255                   7.203165742266822E-6
0.0025                    0.0265                   7.378436685421975E-6
0.0025                    0.0275                   7.5915013688777395E-6
0.0025                    0.0285                   7.77289188511838E-6
0.0025                    0.0295                   7.70820752157356E-6
0.0025                    0.0305                   6.690116454169254E-6
0.0025                    0.0315                   5.1813244396424034E-6
0.0035                    -0.0315                  4.883833642689298E-6
0.0035                    -0.0305                  5.965007879701554E-6
0.0035                    -0.0295                  7.151517270654288E-6
0.0035                    -0.0285                  7.676286474048565E-6
0.0035                    -0.0275                  7.864565468660652E-6
0.0035                    -0.0265                  7.915262306740076E-6
0.0035                    -0.0255                  7.961622444891806E-6
0.0035                    -0.0245                  8.062226157093099E-6
0.0035                    -0.0235                  8.272245106863286E-6
0.0035                    -0.0225                  8.647405831475571E-6
0.0035                    -0.0215                  9.337608294457555E-6
0.0035                    -0.0205                  1.0967700824029957E-5
0.0035                    -0.0195                  1.5770159646487334E-5
0.0035                    -0.0185                  3.082599282437222E-5
0.0035                    -0.0175                  6.321365432499412E-5
0.0035                    -0.0165                  9.268697298592971E-5
0.0035                    -0.0155                  1.4202079884266004E-4
0.0035                    -0.0145                  3.985466822742391E-4
0.0035                    -0.0135                  7.158768252320963E-4
0.0035                    -0.0125                  0.00104601811798119
0.0035                    -0.0115                  0.0018943256091098284
0.0035                    -0.0105                  0.002802531352874004
0.0035                    -0.0095                  0.006142263165280716
0.0035                    -0.0085                  0.029196912208021085
0.0035                    -0.0075                  0.04648147807886456
0.0035                    -0.0065                  0.046451448344136205
0.0035                    -0.0055                  0.03792716865706266
0.0035                    -0.0045                  0.023059741597745945
0.0035                    -0.0035                  0.008012424857277696
0.0035                    -0.0025                  0.0012448384684956614
0.0035                    -0.0015                  1.8633920207721335E-4
0.0035                    -5.0E-4                  2.9920946564441952E-5
0.0035                    5.0E-4                   1.811002827951106E-5
0.0035                    0.0015                   4.507255858446593E-5
0.0035                    0.0025                   2.027176581781696E-4
0.0035                    0.0035                   0.0012778708419330241
0.0035                    0.0045                   0.0067994510862752645
0.0035                    0.0055                   0.018655354420078
0.0035                    0.0065                   0.03007597875372648
0.0035                    0.0075                   0.0369331599076332
0.0035                    0.0085                   0.03355020008227723
0.0035                    0.0095                   0.01783040316615754
0.0035                    0.0105                   0.0025044987636462708
0.0035                    0.0115                   0.0023435909251389537
0.0035                    0.0125                   0.0027078274047503876
0.0035                    0.0135                   0.0019604035918717308
0.0035                    0.0145                   9.885709227619563E-4
0.0035                    0.0155                   3.6151583660853193E-4
0.0035                    0.0165                   2.660970197959407E-4
0.0035                    0.0175                   1.4104161852206726E-4
0.0035                    0.0185                   4.912633704510419E-5
0.0035                    0.0195                   1.998658934825381E-5
0.0035                    0.0205                   1.1722355494675793E-5
0.0035                    0.0215                   9.184569883165135E-6
0.0035                    0.0225                   8.38547561737207E-6
0.0035                    0.0235                   8.145405773886748E-6
0.0035                    0.0245                   8.10738742917563E-6
0.0035                    0.0255                   8.181889527258637E-6
0.0035                    0.0265                   8.304144538698568E-6
0.0035                    0.0275                   8.406299215914058E-6
0.0035                    0.0285                   8.330271937410864E-6
0.0035                    0.0295                   7.850645931015375E-6
0.0035                    0.0305                   6.58454555286436E-6
0.0035                    0.0315                   5.369082810806254E-6
0.0045                    -0.0315                  5.011135230335051E-6
0.0045                    -0.0305                  5.832248758788969E-6
0.0045                    -0.0295                  7.022430874962256E-6
0.0045                    -0.0285                  7.79808814340966E-6
0.0045                    -0.0275                  8.288774985177826E-6
0.0045                    -0.0265                  8.591681795605775E-6
0.0045                    -0.0255                  8.85196805766277E-6
0.0045                    -0.0245                  9.153768229016079E-6
0.0045                    -0.0235                  9.588421061438578E-6
0.0045                    -0.0225                  1.0303751206351275E-5
0.0045                    -0.0215                  1.185350845884703E-5
0.0045                    -0.0205                  1.6071741512240593E-5
0.0045                    -0.0195                  2.940707373899366E-5
0.0045                    -0.0185                  7.607737528554663E-5
0.0045                    -0.0175                  2.363743445558736E-4
0.0045                    -0.0165                  3.9465102659908463E-4
0.0045                    -0.0155                  5.648010032636237E-4
0.0045                    -0.0145                  0.0017670717056391411
0.0045                    -0.0135                  0.00313721812111412
0.0045                    -0.0125                  0.0037510085951947695
0.0045                    -0.0115                  0.0032541193390810985
0.0045                    -0.0105                  8.743125959837984E-4
0.0045                    -0.0095                  0.014948346201992337
0.0045                    -0.0085                  0.03744692359417483
0.0045                    -0.0075                  0.047494008529567575
0.0045                    -0.0065                  0.04443688420474719
0.0045                    -0.0055                  0.03344354046503553
0.0045                    -0.0045                  0.01727322277104253
0.0045                    -0.0035                  0.004579255612985101
0.0045                    -0.0025                  6.295565175811101E-4
0.0045                    -0.0015                  9.697038190220028E-5
0.0045                    -5.0E-4                  1.6841251868799167E-5
0.0045                    5.0E-4                   9.737496126505621E-6
0.0045                    0.0015                   2.1292784872603923E-5
0.0045                    0.0025                   7.911990238197806E-5
0.0045                    0.0035                   5.058165128760174E-4
0.0045                    0.0045                   0.003245245827424742
0.0045                    0.0055                   0.01213438114098322
0.0045                    0.0065                   0.02442418499348992
0.0045                    0.0075                   0.034023769104851796
0.0045                    0.0085                   0.036445355626663116
0.0045                    0.0095                   0.028200356537716922
0.0045                    0.0105                   0.012662795054476674
0.0045                    0.0115                   0.00192238644209857
0.0045                    0.0125                   0.0019646915858775775
0.0045                    0.0135                   0.0024663228553202013
0.0045                    0.0145                   0.002636031108983929
0.0045                    0.0155                   0.002475712848416395
0.0045                    0.0165                   0.0017123728479628182
0.0045                    0.0175                   6.07562203121021E-4
0.0045                    0.0185                   1.404141522564319E-4
0.0045                    0.0195                   4.078190897997354E-5
0.0045                    0.0205                   1.797824699681896E-5
0.0045                    0.0215                   1.1563041660369986E-5
0.0045                    0.0225                   9.814424064581168E-6
0.0045                    0.0235                   9.344497793424081E-6
0.0045                    0.0245                   9.183959162258861E-6
0.0045                    0.0255                   9.135840530014444E-6
0.0045                    0.0265                   9.089353108357082E-6
0.0045                    0.0275                   8.947849133807814E-6
0.0045                    0.0285                   8.549403490240157E-6
0.0045                    0.0295                   7.787816129312553E-6
0.0045                    0.0305                   6.494719456028894E-6
0.0045                    0.0315                   5.5349618913486204E-6
0.0055                    -0.0315                  5.113735448907472E-6
0.0055                    -0.0305                  5.739844320937769E-6
0.0055                    -0.0295                  6.8657035218468616E-6
0.0055                    -0.0285                  7.74809619748308E-6
0.0055                    -0.0275                  8.455831396435276E-6
0.0055                    -0.0265                  9.020935485687866E-6
0.0055                    -0.0255                  9.546184781027706E-6
0.0055                    -0.0245                  1.0125106957884807E-5
0.0055                    -0.0235                  1.0895165853330125E-5
0.0055                    -0.0225                  1.221058573146122E-5
0.0055                    -0.0215                  1.6081428672044294E-5
0.0055                    -0.0205                  2.911331391584687E-5
0.0055                    -0.0195                  7.835789683811352E-5
0.0055                    -0.0185                  3.210849153802674E-4
0.0055                    -0.0175                  0.001359073291987032
0.0055                    -0.0165                  0.0033700695725829995
0.0055                    -0.0155                  0.0046842434488855965
0.0055                    -0.0145                  0.004696606656204768
0.0055                    -0.0135                  0.003378987597828382
0.0055                    -0.0125                  0.0028981617404245474
0.0055                    -0.0115                  0.002150708376123469
0.0055                    -0.0105                  0.005816199315888858
0.0055                    -0.0095                  0.02488545145052825
0.0055                    -0.0085                  0.04275667868325595
0.0055                    -0.0075                  0.04695950598068037
0.0055                    -0.0065                  0.040965756643367775
0.0055                    -0.0055                  0.02764963519433551
0.0055                    -0.0045                  0.011671196551932354
0.0055                    -0.0035                  0.002368479624128311
0.0055                    -0.0025                  3.033288452749563E-4
0.0055                    -0.0015                  4.5316318189207124E-5
0.0055                    -5.0E-4                  1.1527553619955902E-5
0.0055                    5.0E-4                   6.819030202398028E-6
0.0055                    0.0015                   1.1111975832757164E-5
0.0055                    0.0025                   3.1583859960544E-5
0.0055                    0.0035                   1.9387169321165797E-4
0.0055                    0.0045                   0.0013154516938301782
0.0055                    0.0055                   0.006472913717653522
0.0055                    0.0065                   0.017420624188117028
0.0055                    0.0075                   0.028607592777618162
0.0055                    0.0085                   0.034995083850381824
0.0055                    0.0095                   0.03333945481831952
0.0055                    0.0105                   0.023602704559742706
0.0055                    0.0115                   0.011616145742812384
0.0055                    0.0125                   0.00583420317509238
0.0055                    0.0135                   0.008620937495060054
0.0055                    0.0145                   0.010701269254751514
0.0055                    0.0155                   0.009879356941972315
0.0055                    0.0165                   0.0075577297259470854
0.0055                    0.0175                   0.003334040051256069
0.0055                    0.0185                   7.263237061970948E-4
0.0055                    0.0195                   1.1571582076035198E-4
0.0055                    0.0205                   3.3479161742826586E-5
0.0055                    0.0215                   1.5912094933622164E-5
0.0055                    0.0225                   1.1619198298806522E-5
0.0055                    0.0235                   1.0604702240319613E-5
0.0055                    0.0245                   1.0216532935703235E-5
0.0055                    0.0255                   9.958049982546424E-6
0.0055                    0.0265                   9.655820763864947E-6
0.0055                    0.0275                   9.231153948181169E-6
0.0055                    0.0285                   8.590886146255086E-6
0.0055                    0.0295                   7.702254681276926E-6
0.0055                    0.0305                   6.457042834502082E-6
0.0055                    0.0315                   5.684243278449278E-6
0.0065                    -0.0315                  5.196367587384555E-6
0.0065                    -0.0305                  5.672148746541437E-6
0.0065                    -0.0295                  6.726633985020743E-6
0.0065                    -0.0285                  7.658547566006933E-6
0.0065                    -0.0275                  8.511941558946382E-6
0.0065                    -0.0265                  9.28993463659479E-6
0.0065                    -0.0255                  1.006295274338195E-5
0.0065                    -0.0245                  1.095739372105862E-5
0.0065                    -0.0235                  1.2315223192004354E-5
0.0065                    -0.0225                  1.501880500454214E-5
0.0065                    -0.0215                  2.4405321492621798E-5
0.0065                    -0.0205                  6.0221779115144625E-5
0.0065                    -0.0195                  2.2943552381925612E-4
0.0065                    -0.0185                  0.0014978581278758504
0.0065                    -0.0175                  0.006072753084227217
0.0065                    -0.0165                  0.01124892489053994
0.0065                    -0.0155                  0.013839569393015854
0.0065                    -0.0145                  0.014747213271022325
0.0065                    -0.0135                  0.011789225688470623
0.0065                    -0.0125                  0.004804124042793747
0.0065                    -0.0115                  0.00431482746859127
0.0065                    -0.0105                  0.015030085864241165
0.0065                    -0.0095                  0.03355089648975014
0.0065                    -0.0085                  0.044980982294389224
0.0065                    -0.0075                  0.045051666252268106
0.0065                    -0.0065                  0.03620668652585108
0.0065                    -0.0055                  0.021200556177712337