% Model:              Benchmark260518.mph
% Version:            COMSOL 6.2.0.339
% Date:               May 19 2026, 22:24
% Dimension:          2
% Nodes:              4096
% Expressions:        1
% Description:        速度大小
% Length unit:        m
% x                       y                        spf.U (m/s)
5.0E-4                    -0.0315                  1.2149300499297974E-6
5.0E-4                    -0.0305                  2.4609584983790958E-6
5.0E-4                    -0.0295                  2.7636327956316767E-6
5.0E-4                    -0.0285                  3.0812570383852105E-6
5.0E-4                    -0.0275                  3.2820437183301354E-6
5.0E-4                    -0.0265                  3.4661284234376577E-6
5.0E-4                    -0.0255                  3.6334097560808595E-6
5.0E-4                    -0.0245                  3.7954734441701797E-6
5.0E-4                    -0.0235                  3.950187509770161E-6
5.0E-4                    -0.0225                  4.112270421513931E-6
5.0E-4                    -0.0215                  4.307360147110961E-6
5.0E-4                    -0.0205                  4.571233704690358E-6
5.0E-4                    -0.0195                  4.97282976275558E-6
5.0E-4                    -0.0185                  5.667059437211354E-6
5.0E-4                    -0.0175                  6.911236214653776E-6
5.0E-4                    -0.0165                  1.0012598440369328E-5
5.0E-4                    -0.0155                  1.9659735555373198E-5
5.0E-4                    -0.0145                  5.134233948155774E-5
5.0E-4                    -0.0135                  1.7289238579329614E-4
5.0E-4                    -0.0125                  4.43672498736841E-4
5.0E-4                    -0.0115                  9.192993470398388E-4
5.0E-4                    -0.0105                  0.001867082351094904
5.0E-4                    -0.0095                  0.0033051583080680636
5.0E-4                    -0.0085                  0.004627844428552001
5.0E-4                    -0.0075                  0.005183233780402121
5.0E-4                    -0.0065                  0.004778681077248587
5.0E-4                    -0.0055                  0.0036286853824768596
5.0E-4                    -0.0045                  0.0019467237706874275
5.0E-4                    -0.0035                  0.0014342909763981324
5.0E-4                    -0.0025                  0.0025599037883762524
5.0E-4                    -0.0015                  0.03320146084946132
5.0E-4                    -5.0E-4                  0.06557184093995923
5.0E-4                    5.0E-4                   0.06552361438086271
5.0E-4                    0.0015                   0.032895715212449377
5.0E-4                    0.0025                   0.002574713807700674
5.0E-4                    0.0035                   0.002199371317554586
5.0E-4                    0.0045                   0.0019992966168616917
5.0E-4                    0.0055                   0.0018096482425531914
5.0E-4                    0.0065                   0.0013688524833578891
5.0E-4                    0.0075                   8.491876216441879E-4
5.0E-4                    0.0085                   4.379503936179833E-4
5.0E-4                    0.0095                   1.9713396935282254E-4
5.0E-4                    0.0105                   7.299631302566323E-5
5.0E-4                    0.0115                   2.549584322993867E-5
5.0E-4                    0.0125                   1.3324366506579727E-5
5.0E-4                    0.0135                   8.968154367377892E-6
5.0E-4                    0.0145                   6.538716618413892E-6
5.0E-4                    0.0155                   4.918325009036509E-6
5.0E-4                    0.0165                   3.957226560259803E-6
5.0E-4                    0.0175                   3.5595936403486133E-6
5.0E-4                    0.0185                   3.4833739345992738E-6
5.0E-4                    0.0195                   3.456893414382046E-6
5.0E-4                    0.0205                   3.439814053807476E-6
5.0E-4                    0.0215                   3.4393549953580573E-6
5.0E-4                    0.0225                   3.4192797010859984E-6
5.0E-4                    0.0235                   3.3773510319325684E-6
5.0E-4                    0.0245                   3.3212040422379046E-6
5.0E-4                    0.0255                   3.2533133676062877E-6
5.0E-4                    0.0265                   3.1591823155592582E-6
5.0E-4                    0.0275                   3.0341357620088284E-6
5.0E-4                    0.0285                   2.8488371896025376E-6
5.0E-4                    0.0295                   2.6004294342157464E-6
5.0E-4                    0.0305                   2.436385242662899E-6
5.0E-4                    0.0315                   1.2317449914583753E-6
0.0015                    -0.0315                  2.3793392517138277E-6
0.0015                    -0.0305                  4.775868723311681E-6
0.0015                    -0.0295                  5.194160812183882E-6
0.0015                    -0.0285                  5.558662218061944E-6
0.0015                    -0.0275                  5.706011749815034E-6
0.0015                    -0.0265                  5.845776772610804E-6
0.0015                    -0.0255                  5.982363857057235E-6
0.0015                    -0.0245                  6.133618360484041E-6
0.0015                    -0.0235                  6.299998810444915E-6
0.0015                    -0.0225                  6.5018640228732746E-6
0.0015                    -0.0215                  6.7787340691128526E-6
0.0015                    -0.0205                  7.2017217628175875E-6
0.0015                    -0.0195                  7.927650843195807E-6
0.0015                    -0.0185                  9.316724339142106E-6
0.0015                    -0.0175                  1.2204568964305605E-5
0.0015                    -0.0165                  1.9504924685827794E-5
0.0015                    -0.0155                  4.060979487600099E-5
0.0015                    -0.0145                  1.0747678900003136E-4
0.0015                    -0.0135                  3.776342204949215E-4
0.0015                    -0.0125                  0.001097191936325973
0.0015                    -0.0115                  0.002902341892771471
0.0015                    -0.0105                  0.0062320124334307725
0.0015                    -0.0095                  0.01007444113566558
0.0015                    -0.0085                  0.01303054870302065
0.0015                    -0.0075                  0.01458304808891802
0.0015                    -0.0065                  0.014876633447218358
0.0015                    -0.0055                  0.013973475490015248
0.0015                    -0.0045                  0.011318902566775067
0.0015                    -0.0035                  0.006937288677261777
0.0015                    -0.0025                  0.009369899471686557
0.0015                    -0.0015                  0.036247276725824736
0.0015                    -5.0E-4                  0.060787808385766945
0.0015                    5.0E-4                   0.06180553986758077
0.0015                    0.0015                   0.03719635119527077
0.0015                    0.0025                   0.007486586421675665
0.0015                    0.0035                   0.004526665231191562
0.0015                    0.0045                   0.004727107320514399
0.0015                    0.0055                   0.0045352153419347535
0.0015                    0.0065                   0.0038493836640263912
0.0015                    0.0075                   0.002705039830354478
0.0015                    0.0085                   0.0014751996599041426
0.0015                    0.0095                   6.365164888149193E-4
0.0015                    0.0105                   2.3850028810336953E-4
0.0015                    0.0115                   9.048279238752194E-5
0.0015                    0.0125                   5.1554657229018415E-5
0.0015                    0.0135                   3.3122652852386733E-5
0.0015                    0.0145                   2.168717187481155E-5
0.0015                    0.0155                   1.446458193297687E-5
0.0015                    0.0165                   1.0090592569579358E-5
0.0015                    0.0175                   7.813670315550389E-6
0.0015                    0.0185                   6.775179843282216E-6
0.0015                    0.0195                   6.2541743519720804E-6
0.0015                    0.0205                   5.96639577503626E-6
0.0015                    0.0215                   5.809257364285231E-6
0.0015                    0.0225                   5.699904943629123E-6
0.0015                    0.0235                   5.613647722581674E-6
0.0015                    0.0245                   5.5498596426400096E-6
0.0015                    0.0255                   5.507042058867698E-6
0.0015                    0.0265                   5.4691782886058065E-6
0.0015                    0.0275                   5.418809773121376E-6
0.0015                    0.0285                   5.31979372319686E-6
0.0015                    0.0295                   5.0605848716612966E-6
0.0015                    0.0305                   4.794016737858678E-6
0.0015                    0.0315                   2.421861155335881E-6
0.0025                    -0.0315                  2.4607195620736457E-6
0.0025                    -0.0305                  4.858990364498202E-6
0.0025                    -0.0295                  5.173486011613002E-6
0.0025                    -0.0285                  5.405023917180656E-6
0.0025                    -0.0275                  5.326222933814809E-6
0.0025                    -0.0265                  5.214634634189458E-6
0.0025                    -0.0255                  5.110604245182759E-6
0.0025                    -0.0245                  5.048928167922813E-6
0.0025                    -0.0235                  5.045199060171466E-6
0.0025                    -0.0225                  5.1215115120929215E-6
0.0025                    -0.0215                  5.32103318877988E-6
0.0025                    -0.0205                  5.747238698279611E-6
0.0025                    -0.0195                  6.6592886946829455E-6
0.0025                    -0.0185                  8.691382030970425E-6
0.0025                    -0.0175                  1.3549948082020057E-5
0.0025                    -0.0165                  2.575119912745694E-5
0.0025                    -0.0155                  5.987411757014313E-5
0.0025                    -0.0145                  1.6202683804491846E-4
0.0025                    -0.0135                  5.867605808992987E-4
0.0025                    -0.0125                  0.002124177617943947
0.0025                    -0.0115                  0.005963513631683638
0.0025                    -0.0105                  0.011113579085622903
0.0025                    -0.0095                  0.015087314839339462
0.0025                    -0.0085                  0.017331737425818287
0.0025                    -0.0075                  0.01883635203497767
0.0025                    -0.0065                  0.020517810313113043
0.0025                    -0.0055                  0.02238206870901736
0.0025                    -0.0045                  0.023157912402821217
0.0025                    -0.0035                  0.020923681650720373
0.0025                    -0.0025                  0.019379414199742054
0.0025                    -0.0015                  0.034108666940955074
0.0025                    -5.0E-4                  0.05187984521394521
0.0025                    5.0E-4                   0.05535004735838017
0.0025                    0.0015                   0.04073499102485409
0.0025                    0.0025                   0.016034036480440883
0.0025                    0.0035                   0.002781336338853143
0.0025                    0.0045                   0.004174187847025905
0.0025                    0.0055                   0.004940574258387642
0.0025                    0.0065                   0.005326612901394839
0.0025                    0.0075                   0.004872526181953573
0.0025                    0.0085                   0.003402255032508506
0.0025                    0.0095                   0.001707696037984328
0.0025                    0.0105                   6.695321978604555E-4
0.0025                    0.0115                   2.846637037014469E-4
0.0025                    0.0125                   1.5260995592461434E-4
0.0025                    0.0135                   8.412517335432761E-5
0.0025                    0.0145                   5.006779591345847E-5
0.0025                    0.0155                   2.9313445538258995E-5
0.0025                    0.0165                   1.7232343198336134E-5
0.0025                    0.0175                   1.0917221478651343E-5
0.0025                    0.0185                   7.849483661240265E-6
0.0025                    0.0195                   6.384934242986674E-6
0.0025                    0.0205                   5.630695384379916E-6
0.0025                    0.0215                   5.206899071137569E-6
0.0025                    0.0225                   4.968368460183905E-6
0.0025                    0.0235                   4.8580780078006745E-6
0.0025                    0.0245                   4.855248090256231E-6
0.0025                    0.0255                   4.947119814868597E-6
0.0025                    0.0265                   5.115853297726181E-6
0.0025                    0.0275                   5.311645056996745E-6
0.0025                    0.0285                   5.472351043530737E-6
0.0025                    0.0295                   5.306732932402899E-6
0.0025                    0.0305                   4.966831644073846E-6
0.0025                    0.0315                   2.5058940411328354E-6
0.0035                    -0.0315                  2.6035192447659563E-6
0.0035                    -0.0305                  5.005105353763956E-6
0.0035                    -0.0295                  5.319239649092864E-6
0.0035                    -0.0285                  5.73157824775625E-6
0.0035                    -0.0275                  5.730358733567813E-6
0.0035                    -0.0265                  5.609840644316267E-6
0.0035                    -0.0255                  5.446732307277667E-6
0.0035                    -0.0245                  5.31369942159646E-6
0.0035                    -0.0235                  5.250327819639447E-6
0.0035                    -0.0225                  5.303549036676145E-6
0.0035                    -0.0215                  5.5540471179442344E-6
0.0035                    -0.0205                  6.185104558982086E-6
0.0035                    -0.0195                  7.664817854927243E-6
0.0035                    -0.0185                  1.1233424908837095E-5
0.0035                    -0.0175                  2.004620360124921E-5
0.0035                    -0.0165                  4.341112839447795E-5
0.0035                    -0.0155                  1.0936569283141978E-4
0.0035                    -0.0145                  3.412629271679416E-4
0.0035                    -0.0135                  0.0011572192202330253
0.0035                    -0.0125                  0.004157585646148796
0.0035                    -0.0115                  0.009990611632133092
0.0035                    -0.0105                  0.015083365398096932
0.0035                    -0.0095                  0.016771595378067543
0.0035                    -0.0085                  0.01630361977518253
0.0035                    -0.0075                  0.0156899036264006
0.0035                    -0.0065                  0.01650888755991875
0.0035                    -0.0055                  0.019353133286843942
0.0035                    -0.0045                  0.023364298984013293
0.0035                    -0.0035                  0.0254142297480755
0.0035                    -0.0025                  0.02317062715869852
0.0035                    -0.0015                  0.026382588143746062
0.0035                    -5.0E-4                  0.03879968061539173
0.0035                    5.0E-4                   0.04612780239364237
0.0035                    0.0015                   0.042670867986744215
0.0035                    0.0025                   0.0292079674624418
0.0035                    0.0035                   0.01472226180688198
0.0035                    0.0045                   0.005450105252533176
0.0035                    0.0055                   7.79664244560617E-4
0.0035                    0.0065                   0.002837807460414245
0.0035                    0.0075                   0.004780317846929363
0.0035                    0.0085                   0.005009107126253569
0.0035                    0.0095                   0.0036638529387322235
0.0035                    0.0105                   0.001969198479618041
0.0035                    0.0115                   8.650990681064065E-4
0.0035                    0.0125                   3.815653026926796E-4
0.0035                    0.0135                   1.9406932332798242E-4
0.0035                    0.0145                   1.082713017108864E-4
0.0035                    0.0155                   5.548645420180381E-5
0.0035                    0.0165                   2.884273973165436E-5
0.0035                    0.0175                   1.5936457617383272E-5
0.0035                    0.0185                   1.0211548618448255E-5
0.0035                    0.0195                   7.704371492025446E-6
0.0035                    0.0205                   6.533831244974825E-6
0.0035                    0.0215                   5.9374522340766155E-6
0.0035                    0.0225                   5.624577621539854E-6
0.0035                    0.0235                   5.492586877907503E-6
0.0035                    0.0245                   5.504541627787989E-6
0.0035                    0.0255                   5.634755644110631E-6
0.0035                    0.0265                   5.839975805461659E-6
0.0035                    0.0275                   6.029677662054511E-6
0.0035                    0.0285                   6.079304033914165E-6
0.0035                    0.0295                   5.663435765180167E-6
0.0035                    0.0305                   5.166275317419255E-6
0.0035                    0.0315                   2.62441935375071E-6
0.0045                    -0.0315                  2.6934795459825522E-6
0.0045                    -0.0305                  5.040232746221745E-6
0.0045                    -0.0295                  5.2520903610292906E-6
0.0045                    -0.0285                  5.765181191386882E-6
0.0045                    -0.0275                  5.880087976221529E-6
0.0045                    -0.0265                  5.819536254762322E-6
0.0045                    -0.0255                  5.65531803256977E-6
0.0045                    -0.0245                  5.491225941530954E-6
0.0045                    -0.0235                  5.402402604488515E-6
0.0045                    -0.0225                  5.478539809506422E-6
0.0045                    -0.0215                  5.8698923018738155E-6
0.0045                    -0.0205                  6.903471550217806E-6
0.0045                    -0.0195                  9.403138529659945E-6
0.0045                    -0.0185                  1.5664629939236815E-5
0.0045                    -0.0175                  3.253259936463572E-5
0.0045                    -0.0165                  7.967249745809187E-5
0.0045                    -0.0155                  2.358269473436601E-4
0.0045                    -0.0145                  7.437360129571184E-4
0.0045                    -0.0135                  0.002363662719323803
0.0045                    -0.0125                  0.007087833165849059
0.0045                    -0.0115                  0.01387784509122784
0.0045                    -0.0105                  0.017428533534117916
0.0045                    -0.0095                  0.016031968731393658
0.0045                    -0.0085                  0.012362495792695896
0.0045                    -0.0075                  0.009281442725277457
0.0045                    -0.0065                  0.008376014240985032
0.0045                    -0.0055                  0.009658689557507693
0.0045                    -0.0045                  0.01254369098640533
0.0045                    -0.0035                  0.01563040310172665
0.0045                    -0.0025                  0.016125177801438642
0.0045                    -0.0015                  0.015569090841103073
0.0045                    -5.0E-4                  0.023837408226723616
0.0045                    5.0E-4                   0.03528946524741421
0.0045                    0.0015                   0.04129479505103456
0.0045                    0.0025                   0.039503577646960095
0.0045                    0.0035                   0.03245634708192645
0.0045                    0.0045                   0.023649385779702416
0.0045                    0.0055                   0.015721995018759236
0.0045                    0.0065                   0.009180233062438274
0.0045                    0.0075                   0.0038093828649164345
0.0045                    0.0085                   0.0021219778194940487
0.0045                    0.0095                   0.003549956481567693
0.0045                    0.0105                   0.0032175280566125323
0.0045                    0.0115                   0.0019380180160624484
0.0045                    0.0125                   8.754865295574851E-4
0.0045                    0.0135                   3.656525421493725E-4
0.0045                    0.0145                   1.8224520513380896E-4
0.0045                    0.0155                   9.239606452984257E-5
0.0045                    0.0165                   4.3056429989298374E-5
0.0045                    0.0175                   2.2018832992208957E-5
0.0045                    0.0185                   1.3153341513414747E-5
0.0045                    0.0195                   9.248016631918531E-6
0.0045                    0.0205                   7.505651349503358E-6
0.0045                    0.0215                   6.688829153942139E-6
0.0045                    0.0225                   6.295428216118974E-6
0.0045                    0.0235                   6.143354632502236E-6
0.0045                    0.0245                   6.162030270768967E-6
0.0045                    0.0255                   6.299494261233947E-6
0.0045                    0.0265                   6.479038246018933E-6
0.0045                    0.0275                   6.570006649207263E-6
0.0045                    0.0285                   6.4357021392945094E-6
0.0045                    0.0295                   5.8217798646604135E-6
0.0045                    0.0305                   5.275377489563631E-6
0.0045                    0.0315                   2.7113118979570727E-6
0.0055                    -0.0315                  2.7663559537644545E-6
0.0055                    -0.0305                  5.087417480933797E-6
0.0055                    -0.0295                  5.207702111663682E-6
0.0055                    -0.0285                  5.762839496366474E-6
0.0055                    -0.0275                  5.964949500854928E-6
0.0055                    -0.0265                  5.985153470557097E-6
0.0055                    -0.0255                  5.862160709129888E-6
0.0055                    -0.0245                  5.711605455342349E-6
0.0055                    -0.0235                  5.647265385818644E-6
0.0055                    -0.0225                  5.823224875318172E-6
0.0055                    -0.0215                  6.506159246511067E-6
0.0055                    -0.0205                  8.269272190913878E-6
0.0055                    -0.0195                  1.2531617039970018E-5
0.0055                    -0.0185                  2.320395294272376E-5
0.0055                    -0.0175                  5.433690596515614E-5
0.0055                    -0.0165                  1.6008213873118282E-4
0.0055                    -0.0155                  5.027171785225406E-4
0.0055                    -0.0145                  0.0014497804209298222
0.0055                    -0.0135                  0.004333734774585064
0.0055                    -0.0125                  0.010530661255762092
0.0055                    -0.0115                  0.016853336121064273
0.0055                    -0.0105                  0.017922613755950667
0.0055                    -0.0095                  0.013648008588747729
0.0055                    -0.0085                  0.008071145526125601
0.0055                    -0.0075                  0.00449510930999193
0.0055                    -0.0065                  0.0033636948654978734
0.0055                    -0.0055                  0.0033820274243198762
0.0055                    -0.0045                  0.0036259644042229166
0.0055                    -0.0035                  0.004355299996544528
0.0055                    -0.0025                  0.005530516414516251
0.0055                    -0.0015                  0.005918506780227857
0.0055                    -5.0E-4                  0.01083579573419939
0.0055                    5.0E-4                   0.022901786631850572
0.0055                    0.0015                   0.034470109553192976
0.0055                    0.0025                   0.04065035756434838
0.0055                    0.0035                   0.04157727423560392
0.0055                    0.0045                   0.03867556095783817
0.0055                    0.0055                   0.03352967651633703
0.0055                    0.0065                   0.027205927098018664
0.0055                    0.0075                   0.02011303415365745
0.0055                    0.0085                   0.012755386108649368
0.0055                    0.0095                   0.006248918950749989
0.0055                    0.0105                   0.0021267865431714664
0.0055                    0.0115                   0.0017720949389794364
0.0055                    0.0125                   0.0014011391730083637
0.0055                    0.0135                   6.141257219995143E-4
0.0055                    0.0145                   2.316558279797688E-4
0.0055                    0.0155                   1.2110910281583206E-4
0.0055                    0.0165                   5.8133650050791726E-5
0.0055                    0.0175                   3.0271784266225057E-5
0.0055                    0.0185                   1.7381322992649054E-5
0.0055                    0.0195                   1.1519848090503907E-5
0.0055                    0.0205                   8.916978589626403E-6
0.0055                    0.0215                   7.729570004632826E-6
0.0055                    0.0225                   7.190496846674765E-6
0.0055                    0.0235                   6.990832891894611E-6
0.0055                    0.0245                   6.99492064606566E-6
0.0055                    0.0255                   7.105042766646099E-6
0.0055                    0.0265                   7.20506585702565E-6
0.0055                    0.0275                   7.145340303800039E-6
0.0055                    0.0285                   6.8190578386471995E-6
0.0055                    0.0295                   6.0392462728734035E-6
0.0055                    0.0305                   5.434601261603847E-6
0.0055                    0.0315                   2.805564822847519E-6
0.0065                    -0.0315                  2.8286050712296905E-6
0.0065                    -0.0305                  5.135265064745846E-6
0.0065                    -0.0295                  5.180224697781546E-6
0.0065                    -0.0285                  5.75460720792803E-6
0.0065                    -0.0275                  6.007321503730029E-6
0.0065                    -0.0265                  6.093474841041182E-6
0.0065                    -0.0255                  6.029981398253487E-6
0.0065                    -0.0245                  5.939132902201814E-6
0.0065                    -0.0235                  5.9786077182908864E-6
0.0065                    -0.0225                  6.397572878018136E-6
0.0065                    -0.0215                  7.649482321652421E-6
0.0065                    -0.0205                  1.0747429462061585E-5
0.0065                    -0.0195                  1.8061393770098158E-5
0.0065                    -0.0185                  3.688155917337635E-5
0.0065                    -0.0175                  8.948794216420719E-5
0.0065                    -0.0165                  2.950259044756684E-4
0.0065                    -0.0155                  9.265880183700768E-4
0.0065                    -0.0145                  0.0026708737864826956
0.0065                    -0.0135                  0.0071506961559595255
0.0065                    -0.0125                  0.014010401732825802
0.0065                    -0.0115                  0.018477874909383896
0.0065                    -0.0105                  0.01662824617149012
0.0065                    -0.0095                  0.010480731805946636
0.0065                    -0.0085                  0.004944700204306156
0.0065                    -0.0075                  0.002287045258440821
0.0065                    -0.0065                  0.0016372585596923007
0.0065                    -0.0055                  0.0015316305411199652