% Model:              Benchmark260518.mph
% Version:            COMSOL 6.2.0.339
% Date:               May 20 2026, 19:59
% Dimension:          2
% Nodes:              4096
% Expressions:        1
% Description:        速度大小
% Length unit:        m
% x                       y                        spf.U (m/s)
% mirrored_by_python_y_to_minus_y, coord_match_decimals=12
0.0005 -0.0315 3.60995590688e-06
0.0005 -0.0305 7.11056640356e-06
0.0005 -0.0295 7.74783420056e-06
0.0005 -0.0285 8.93285881263e-06
0.0005 -0.0275 1.05956411572e-05
0.0005 -0.0265 1.37877838535e-05
0.0005 -0.0255 2.05237080361e-05
0.0005 -0.0245 3.81897609658e-05
0.0005 -0.0235 0.000140248721127
0.0005 -0.0225 0.000304959661008
0.0005 -0.0215 0.000675136364193
0.0005 -0.0205 0.00146854538668
0.0005 -0.0195 0.00306846627867
0.0005 -0.0185 0.00523951973196
0.0005 -0.0175 0.00655646091176
0.0005 -0.0165 0.00663824288376
0.0005 -0.0155 0.00643454646731
0.0005 -0.0145 0.00804683125573
0.0005 -0.0135 0.0127112153475
0.0005 -0.0125 0.0193950933452
0.0005 -0.0115 0.0273321738519
0.0005 -0.0105 0.033434622433
0.0005 -0.0095 0.0360121468778
0.0005 -0.0085 0.0239210293895
0.0005 -0.0075 0.00655462965228
0.0005 -0.0065 0.000908771974381
0.0005 -0.0055 0.00137108652723
0.0005 -0.0045 0.00145581109724
0.0005 -0.0035 0.000940233700887
0.0005 -0.0025 0.000805634117556
0.0005 -0.0015 0.00185399421385
0.0005 -0.0005 0.00305944353998
0.0005 0.0005 0.00408590571052
0.0005 0.0015 0.00471769525024
0.0005 0.0025 0.00483235678556
0.0005 0.0035 0.00440359743145
0.0005 0.0045 0.0035411596146
0.0005 0.0055 0.00246950538335
0.0005 0.0065 0.00145971186606
0.0005 0.0075 0.000759788861077
0.0005 0.0085 0.000461548419639
0.0005 0.0095 0.000363822856509
0.0005 0.0105 0.000255465824246
0.0005 0.0115 0.000123225395066
0.0005 0.0125 4.23654914056e-05
0.0005 0.0135 1.78688151469e-05
0.0005 0.0145 1.01363024352e-05
0.0005 0.0155 7.64713937085e-06
0.0005 0.0165 6.56354055867e-06
0.0005 0.0175 5.98239316645e-06
0.0005 0.0185 5.67324106213e-06
0.0005 0.0195 5.48008126444e-06
0.0005 0.0205 5.33970191245e-06
0.0005 0.0215 5.21352028838e-06
0.0005 0.0225 5.08001962528e-06
0.0005 0.0235 4.93614651515e-06
0.0005 0.0245 4.7841317813e-06
0.0005 0.0255 4.62004980454e-06
0.0005 0.0265 4.44187818373e-06
0.0005 0.0275 4.22949966259e-06
0.0005 0.0285 3.97631869953e-06
0.0005 0.0295 3.54736804676e-06
0.0005 0.0305 3.12988223658e-06
0.0005 0.0315 1.5396055503e-06
0.0015 -0.0315 6.97683606294e-06
0.0015 -0.0305 1.33213636714e-05
0.0015 -0.0295 1.38555103961e-05
0.0015 -0.0285 1.58631192313e-05
0.0015 -0.0275 1.95360545977e-05
0.0015 -0.0265 2.79231537736e-05
0.0015 -0.0255 4.79582234625e-05
0.0015 -0.0245 9.99665525928e-05
0.0015 -0.0235 0.00020727064712
0.0015 -0.0225 0.000510884610955
0.0015 -0.0215 0.00144899875215
0.0015 -0.0205 0.00353626048075
0.0015 -0.0195 0.00597535806154
0.0015 -0.0185 0.00803323603932
0.0015 -0.0175 0.00938327657165
0.0015 -0.0165 0.00946565391314
0.0015 -0.0155 0.00837057270136
0.0015 -0.0145 0.0075224187195
0.0015 -0.0135 0.00993694728793
0.0015 -0.0125 0.0156865045745
0.0015 -0.0115 0.0235311869239
0.0015 -0.0105 0.0306417770349
0.0015 -0.0095 0.0346988016376
0.0015 -0.0085 0.0312411627326
0.0015 -0.0075 0.0190614873874
0.0015 -0.0065 0.00820294530104
0.0015 -0.0055 0.0038097614224
0.0015 -0.0045 0.0034567791183
0.0015 -0.0035 0.00534102962296
0.0015 -0.0025 0.00803246055764
0.0015 -0.0015 0.0107676880704
0.0015 -0.0005 0.0131554478869
0.0015 0.0005 0.0149008579303
0.0015 0.0015 0.0157717875619
0.0015 0.0025 0.0156402759127
0.0015 0.0035 0.0144605050383
0.0015 0.0045 0.0123180092176
0.0015 0.0055 0.00947487728236
0.0015 0.0065 0.00639726843528
0.0015 0.0075 0.00366393121257
0.0015 0.0085 0.00180858763238
0.0015 0.0095 0.000924971253523
0.0015 0.0105 0.000513225456298
0.0015 0.0115 0.000229718039431
0.0015 0.0125 7.87121301857e-05
0.0015 0.0135 3.33289497227e-05
0.0015 0.0145 1.81066970984e-05
0.0015 0.0155 1.25883925037e-05
0.0015 0.0165 1.02952586147e-05
0.0015 0.0175 9.21073661178e-06
0.0015 0.0185 8.68796884286e-06
0.0015 0.0195 8.40580277618e-06
0.0015 0.0205 8.22632663819e-06
0.0015 0.0215 8.08188023477e-06
0.0015 0.0225 7.94162808002e-06
0.0015 0.0235 7.80186027682e-06
0.0015 0.0245 7.66824331809e-06
0.0015 0.0255 7.54158718672e-06
0.0015 0.0265 7.42291282685e-06
0.0015 0.0275 7.28555667672e-06
0.0015 0.0285 7.11299672609e-06
0.0015 0.0295 6.62934670389e-06
0.0015 0.0305 6.05778718626e-06
0.0015 0.0315 3.00979894523e-06
0.0025 -0.0315 7.42818130459e-06
0.0025 -0.0305 1.33849181988e-05
0.0025 -0.0295 1.32489768068e-05
0.0025 -0.0285 1.62459387402e-05
0.0025 -0.0275 2.31712512959e-05
0.0025 -0.0265 4.06544479162e-05
0.0025 -0.0255 8.42606162831e-05
0.0025 -0.0245 0.000185087280808
0.0025 -0.0235 0.000461684641828
0.0025 -0.0225 0.00124652583456
0.0025 -0.0215 0.00346784037076
0.0025 -0.0205 0.00712361483676
0.0025 -0.0195 0.00973947970994
0.0025 -0.0185 0.0103430380256
0.0025 -0.0175 0.0104135210302
0.0025 -0.0165 0.010335705683
0.0025 -0.0155 0.0095130224861
0.0025 -0.0145 0.00774471173472
0.0025 -0.0135 0.00716495591145
0.0025 -0.0125 0.0111024745419
0.0025 -0.0115 0.0185138772602
0.0025 -0.0105 0.0262946701788
0.0025 -0.0095 0.0317051707893
0.0025 -0.0085 0.0325759769015
0.0025 -0.0075 0.0280845537357
0.0025 -0.0065 0.0216561149305
0.0025 -0.0055 0.0176718368691
0.0025 -0.0045 0.017361435614
0.0025 -0.0035 0.0191971097839
0.0025 -0.0025 0.0217013584113
0.0025 -0.0015 0.0239489275502
0.0025 -0.0005 0.0254568933669
0.0025 0.0005 0.0261408568152
0.0025 0.0015 0.026108329565
0.0025 0.0025 0.0254285562773
0.0025 0.0035 0.0240642741992
0.0025 0.0045 0.0218735576809
0.0025 0.0055 0.0186856251001
0.0025 0.0065 0.0144770811079
0.0025 0.0075 0.00964607306848
0.0025 0.0085 0.0051650950936
0.0025 0.0095 0.0021996168672
0.0025 0.0105 0.000854147895296
0.0025 0.0115 0.000308396862402
0.0025 0.0125 9.73725359376e-05
0.0025 0.0135 4.08274467651e-05
0.0025 0.0145 2.00182995611e-05
0.0025 0.0155 1.18324803099e-05
0.0025 0.0165 8.41164442184e-06
0.0025 0.0175 6.96897638439e-06
0.0025 0.0185 6.36684274215e-06
0.0025 0.0195 6.12695388267e-06
0.0025 0.0205 6.03680714564e-06
0.0025 0.0215 6.01304074829e-06
0.0025 0.0225 6.02910521945e-06
0.0025 0.0235 6.08209533112e-06
0.0025 0.0245 6.17856347979e-06
0.0025 0.0255 6.32397571999e-06
0.0025 0.0265 6.51418766913e-06
0.0025 0.0275 6.70719675611e-06
0.0025 0.0285 6.84015481491e-06
0.0025 0.0295 6.55477531271e-06
0.0025 0.0305 6.12264603498e-06
0.0025 0.0315 3.0882119285e-06
0.0035 -0.0315 8.25303972248e-06
0.0035 -0.0305 1.42858566801e-05
0.0035 -0.0295 1.41928689675e-05
0.0035 -0.0285 1.98112749442e-05
0.0035 -0.0275 3.33365420862e-05
0.0035 -0.0265 6.79488069949e-05
0.0035 -0.0255 0.000153403767177
0.0035 -0.0245 0.00039647687167
0.0035 -0.0235 0.00108419386454
0.0035 -0.0225 0.00300549725959
0.0035 -0.0215 0.006882057517
0.0035 -0.0205 0.0107148063628
0.0035 -0.0195 0.0113208587831
0.0035 -0.0185 0.00931936750666
0.0035 -0.0175 0.00759356452757
0.0035 -0.0165 0.00714168591213
0.0035 -0.0155 0.00720654226426
0.0035 -0.0145 0.0066546726206
0.0035 -0.0135 0.00524512635
0.0035 -0.0125 0.0064123677816
0.0035 -0.0115 0.0126486052403
0.0035 -0.0105 0.0204920587847
0.0035 -0.0095 0.0270549021422
0.0035 -0.0085 0.0305702462096
0.0035 -0.0075 0.0306510404607
0.0035 -0.0065 0.0289656173595
0.0035 -0.0055 0.027694053683
0.0035 -0.0045 0.0279466882791
0.0035 -0.0035 0.0292648859783
0.0035 -0.0025 0.0306014063471
0.0035 -0.0015 0.031197506359
0.0035 -0.0005 0.0309602975427
0.0035 0.0005 0.0302593272441
0.0035 0.0015 0.0294900695125
0.0035 0.0025 0.0288093292189
0.0035 0.0035 0.0280696086432
0.0035 0.0045 0.026957479213
0.0035 0.0055 0.025080358405
0.0035 0.0065 0.021914715169
0.0035 0.0075 0.0170706212422
0.0035 0.0085 0.0109975512461
0.0035 0.0095 0.00540559727394
0.0035 0.0105 0.00200831962825
0.0035 0.0115 0.000650330154658
0.0035 0.0125 0.000203645147917
0.0035 0.0135 7.1463103182e-05
0.0035 0.0145 3.18068733443e-05
0.0035 0.0155 1.69151971088e-05
0.0035 0.0165 1.07497357243e-05
0.0035 0.0175 8.09817305447e-06
0.0035 0.0185 6.98781395709e-06
0.0035 0.0195 6.52700617121e-06
0.0035 0.0205 6.34028589146e-06
0.0035 0.0215 6.28342918688e-06
0.0035 0.0225 6.30752617665e-06
0.0035 0.0235 6.40300929653e-06
0.0035 0.0245 6.57168916933e-06
0.0035 0.0255 6.80481678868e-06
0.0035 0.0265 7.06956506555e-06
0.0035 0.0275 7.27117266764e-06
0.0035 0.0285 7.29334828292e-06
0.0035 0.0295 6.755921915e-06
0.0035 0.0305 6.25962703297e-06
0.0035 0.0315 3.21972739583e-06
0.0045 -0.0315 8.95256390066e-06
0.0045 -0.0305 1.51242301194e-05
0.0045 -0.0295 1.52741149811e-05
0.0045 -0.0285 2.43351556741e-05
0.0045 -0.0275 4.88504620514e-05
0.0045 -0.0265 0.000114355617866
0.0045 -0.0255 0.00030602169758
0.0045 -0.0245 0.000861686430944
0.0045 -0.0235 0.00241905455076
0.0045 -0.0225 0.00597206649458
0.0045 -0.0215 0.0104401913124
0.0045 -0.0205 0.0121005498345
0.0045 -0.0195 0.00956049635704
0.0045 -0.0185 0.00577200547385
0.0045 -0.0175 0.00352735728297
0.0045 -0.0165 0.00292690964272
0.0045 -0.0155 0.00321050979634
0.0045 -0.0145 0.00364521647252
0.0045 -0.0135 0.00340390801724
0.0045 -0.0125 0.00304064933626
0.0045 -0.0115 0.00689090921727
0.0045 -0.0105 0.0137038394805
0.0045 -0.0095 0.0205493416386
0.0045 -0.0085 0.0255149470409
0.0045 -0.0075 0.0279274231666
0.0045 -0.0065 0.0287460720651
0.0045 -0.0055 0.0293113971224
0.0045 -0.0045 0.0301531520668
0.0045 -0.0035 0.030754488522
0.0045 -0.0025 0.0302876974927
0.0045 -0.0015 0.0285833074974
0.0045 -0.0005 0.0263376400395
0.0045 0.0005 0.024424912661
0.0045 0.0015 0.0234220368595
0.0045 0.0025 0.0235066874608
0.0045 0.0035 0.0244426626424
0.0045 0.0045 0.0255905862087
0.0045 0.0055 0.0261478591914
0.0045 0.0065 0.0254427358582
0.0045 0.0075 0.0227645161044
0.0045 0.0085 0.0175058230497
0.0045 0.0095 0.0104755141156
0.0045 0.0105 0.00448080728349
0.0045 0.0115 0.00146770399631
0.0045 0.0125 0.000486510666032
0.0045 0.0135 0.000156763431272
0.0045 0.0145 5.8295735543e-05
0.0045 0.0155 2.7578533968e-05
0.0045 0.0165 1.55101544691e-05
0.0045 0.0175 1.05358430753e-05
0.0045 0.0185 8.40782553148e-06
0.0045 0.0195 7.43420167067e-06
0.0045 0.0205 6.96094400697e-06
0.0045 0.0215 6.73587330411e-06
0.0045 0.0225 6.67247681284e-06
0.0045 0.0235 6.74639680365e-06
0.0045 0.0245 6.93983976868e-06
0.0045 0.0255 7.20878449933e-06
0.0045 0.0265 7.47042287942e-06
0.0045 0.0275 7.58052681977e-06
0.0045 0.0285 7.42232070636e-06
0.0045 0.0295 6.71028771332e-06
0.0045 0.0305 6.25679463202e-06
0.0045 0.0315 3.27960231627e-06
0.0055 -0.0315 9.7660372508e-06
0.0055 -0.0305 1.62647453838e-05
0.0055 -0.0295 1.67810104735e-05
0.0055 -0.0285 2.96543738276e-05
0.0055 -0.0275 6.96384783798e-05
0.0055 -0.0265 0.000202929967607
0.0055 -0.0255 0.00060711976162
0.0055 -0.0245 0.00172856418631
0.0055 -0.0235 0.00464076432097
0.0055 -0.0225 0.0092597639046
0.0055 -0.0215 0.012204405061
0.0055 -0.0205 0.0104910994942
0.0055 -0.0195 0.00603597260155
0.0055 -0.0185 0.00261992366991
0.0055 -0.0175 0.0012676103631
0.0055 -0.0165 0.000968165818972
0.0055 -0.0155 0.00105108951059
0.0055 -0.0145 0.00129397575296
0.0055 -0.0135 0.00146903539342
0.0055 -0.0125 0.0014223830182
0.0055 -0.0115 0.00285066946876
0.0055 -0.0105 0.00725244587525
0.0055 -0.0095 0.01288800464
0.0055 -0.0085 0.0178050271717
0.0055 -0.0075 0.0209679028479
0.0055 -0.0065 0.0227167863383
0.0055 -0.0055 0.0237629759608
0.0055 -0.0045 0.0240859892864
0.0055 -0.0035 0.0230517238244
0.0055 -0.0025 0.0205519580604
0.0055 -0.0015 0.0173889246905
0.0055 -0.0005 0.0145935014911
0.0055 0.0005 0.0128160771138
0.0055 0.0015 0.0123023277404
0.0055 0.0025 0.0131790411361
0.0055 0.0035 0.0155468268468
0.0055 0.0045 0.0190740902983
0.0055 0.0055 0.0227170028002
0.0055 0.0065 0.0251517059941
0.0055 0.0075 0.0254175249594
0.0055 0.0085 0.0226207086344
0.0055 0.0095 0.0162193732395
0.0055 0.0105 0.0083950271268
0.0055 0.0115 0.0030848368069
0.0055 0.0125 0.00101842959176
0.0055 0.0135 0.000357787491889
0.0055 0.0145 0.000124344283662
0.0055 0.0155 4.9294715313e-05
0.0055 0.0165 2.53177726404e-05
0.0055 0.0175 1.6214852477e-05
0.0055 0.0185 1.20078767709e-05
0.0055 0.0195 9.82742491461e-06
0.0055 0.0205 8.57756146188e-06
0.0055 0.0215 7.84163950277e-06
0.0055 0.0225 7.46404397698e-06
0.0055 0.0235 7.3750944083e-06
0.0055 0.0245 7.50233620281e-06
0.0055 0.0255 7.73013294498e-06
0.0055 0.0265 7.90888304018e-06
0.0055 0.0275 7.86832637925e-06
0.0055 0.0285 7.53605571554e-06
0.0055 0.0295 6.7053334434e-06
0.0055 0.0305 6.26333976148e-06
0.0055 0.0315 3.30804268717e-06
0.0065 -0.0315 1.05885668041e-05
0.0065 -0.0305 1.75130479832e-05
0.0065 -0.0295 1.84521513146e-05
0.0065 -0.0285 3.5192354553e-05
0.0065 -0.0275 9.02461179262e-05
0.0065 -0.0265 0.000313817363483
0.0065 -0.0255 0.00101837396591
0.0065 -0.0245 0.00303010771055
0.0065 -0.0235 0.00724973867105
0.0065 -0.0225 0.0114678409103
0.0065 -0.0215 0.0114887076131
0.0065 -0.0205 0.00734991175139
0.0065 -0.0195 0.00320715939408
0.0065 -0.0185 0.00118840061995
0.0065 -0.0175 0.000518048710726
0.0065 -0.0165 0.000391095162126
0.0065 -0.0155 0.000442736273777
0.0065 -0.0145 0.000515374233502
0.0065 -0.0135 0.000582035665867
0.0065 -0.0125 0.000723517114094
0.0065 -0.0115 0.00125448594389
0.0065 -0.0105 0.00311901098726
0.0065 -0.0095 0.00632321585973
0.0065 -0.0085 0.00954682344106
0.0065 -0.0075 0.0117121908334
0.0065 -0.0065 0.0128775581262
0.0065 -0.0055 0.013330059004
0.0065 -0.0045 0.0127915809871
0.0065 -0.0035 0.0109859873156
0.0065 -0.0025 0.00849019808646
0.0065 -0.0015 0.00637179579142
0.0065 -0.0005 0.0050423619817
0.0065 0.0005 0.00436224944916
0.0065 0.0015 0.00430170141759
0.0065 0.0025 0.00499866999676
0.0065 0.0035 0.00694269196458
0.0065 0.0045 0.0107837206678
0.0065 0.0055 0.0163182065474
0.0065 0.0065 0.0218675260139
0.0065 0.0075 0.0253333846929
0.0065 0.0085 0.0254326398252
0.0065 0.0095 0.0211158507882
0.0065 0.0105 0.013139374807
0.0065 0.0115 0.0057294455047
0.0065 0.0125 0.00193979153741
0.0065 0.0135 0.000691411724351
0.0065 0.0145 0.000244154557451
0.0065 0.0155 9.17256118387e-05
0.0065 0.0165 4.81167721545e-05
0.0065 0.0175 2.99262547881e-05
0.0065 0.0185 2.09368637687e-05
0.0065 0.0195 1.56856580766e-05
0.0065 0.0205 1.23837076539e-05
0.0065 0.0215 1.02643582599e-05
0.0065 0.0225 8.99514010346e-06
0.0065 0.0235 8.40140245555e-06
0.0065 0.0245 8.2693798035e-06
0.0065 0.0255 8.33289461733e-06
0.0065 0.0265 8.34674851863e-06
0.0065 0.0275 8.12520392522e-06
0.0065 0.0285 7.63668920906e-06
0.0065 0.0295 6.71521024494e-06
0.0065 0.0305 6.29466175431e-06
0.0065 0.0315 3.34662230534e-06
0.0075 -0.0315 1.14122359892e-05
0.0075 -0.0305 1.87954427507e-05
0.0075 -0.0295 2.01282516529e-05
0.0075 -0.0285 4.03440874516e-05
0.0075 -0.0275 0.000107548314609
0.0075 -0.0265 0.000405143009663
0.0075 -0.0255 0.00145754400656
0.0075 -0.0245 0.00452555125422
0.0075 -0.0235 0.0094533105333
0.0075 -0.0225 0.0120398366639
0.0075 -0.0215 0.00930579749889
0.0075 -0.0205 0.00454311882279
0.0075 -0.0195 0.00166472780513
0.0075 -0.0185 0.000628772789223
0.0075 -0.0175 0.000285540592406
0.0075 -0.0165 0.000204849574308
0.0075 -0.0155 0.000215528194714
0.0075 -0.0145 0.000259957510071
0.0075 -0.0135 0.000357850638926
0.0075 -0.0125 0.000550581729838
0.0075 -0.0115 0.000969150289558
0.0075 -0.0105 0.00195824368903
0.0075 -0.0095 0.00346292521642
0.0075 -0.0085 0.00455036948906
0.0075 -0.0075 0.00469544539679
0.0075 -0.0065 0.00464038305334
0.0075 -0.0055 0.00468464086367
0.0075 -0.0045 0.00424539491135
0.0075 -0.0035 0.003292833292
0.0075 -0.0025 0.00228739057049
0.0075 -0.0015 0.00176314895158
0.0075 -0.0005 0.00158387568725
0.0075 0.0005 0.00138326785231
0.0075 0.0015 0.0013299995937
0.0075 0.0025 0.00155620017269
0.0075 0.0035 0.00237965081877
0.0075 0.0045 0.0047559715806
0.0075 0.0055 0.00975185680887
0.0075 0.0065 0.0167580236119
0.0075 0.0075 0.0230537124354
0.0075 0.0085 0.0260263999324
0.0075 0.0095 0.0243009454542
0.0075 0.0105 0.0177233278285
0.0075 0.0115 0.00931117245221
0.0075 0.0125 0.00355693701654
0.0075 0.0135 0.00125889416825
0.0075 0.0145 0.000507721771983
0.0075 0.0155 0.000215164971603
0.0075 0.0165 0.000111093325972
0.0075 0.0175 7.08475075498e-05
0.0075 0.0185 4.65779637667e-05
0.0075 0.0195 3.16496421082e-05
0.0075 0.0205 2.24502351464e-05
0.0075 0.0215 1.62835645041e-05
0.0075 0.0225 1.24291529559e-05
0.0075 0.0235 1.04117503107e-05
0.0075 0.0245 9.53282836211e-06
0.0075 0.0255 9.15710782525e-06
0.0075 0.0265 8.8621545759e-06
0.0075 0.0275 8.40096546891e-06
0.0075 0.0285 7.74613388708e-06
0.0075 0.0295 6.74070320862e-06
0.0075 0.0305 6.34539558948e-06
0.0075 0.0315 3.39413959644e-06
0.0085 -0.0315 1.22459363012e-05
0.0085 -0.0305 2.00834346038e-05
0.0085 -0.0295 2.16424173178e-05
0.0085 -0.0285 4.44299196592e-05
0.0085 -0.0275 0.000121836658255
0.0085 -0.0265 0.000478168012898
0.0085 -0.0255 0.00188124525261
0.0085 -0.0245 0.00587505390448
0.0085 -0.0235 0.0109256241265
0.0085 -0.0225 0.0115297844826
0.0085 -0.0215 0.00705821984954
0.0085 -0.0205 0.00278607072012
0.0085 -0.0195 0.00094577115106
0.0085 -0.0185 0.000341949033672
0.0085 -0.0175 0.000174335090687
0.0085 -0.0165 0.000123472544102
0.0085 -0.0155 0.000124976611371
0.0085 -0.0145 0.000161369520719
0.0085 -0.0135 0.000245452438985
0.0085 -0.0125 0.000436671486627
0.0085 -0.0115 0.000935447768425
0.0085 -0.0105 0.00216037268827
0.0085 -0.0095 0.00361333333987
0.0085 -0.0085 0.00378089076299
0.0085 -0.0075 0.0025194587705
0.0085 -0.0065 0.00141117161782
0.0085 -0.0055 0.00123090166021
0.0085 -0.0045 0.00108720766182
0.0085 -0.0035 0.000835889117331
0.0085 -0.0025 0.000613078314669
0.0085 -0.0015 0.00052287122902
0.0085 -0.0005 0.000510905824233
0.0085 0.0005 0.000447007150382
0.0085 0.0015 0.000463889473283
0.0085 0.0025 0.000586615168085
0.0085 0.0035 0.000868124594182
0.0085 0.0045 0.00187251854459
0.0085 0.0055 0.00511904369833
0.0085 0.0065 0.0115749032777
0.0085 0.0075 0.0193647040443
0.0085 0.0085 0.0247920010299
0.0085 0.0095 0.0255753617354
0.0085 0.0105 0.0212020073064
0.0085 0.0115 0.0133102874072
0.0085 0.0125 0.00616012244693
0.0085 0.0135 0.00244516198382
0.0085 0.0145 0.00115929830315
0.0085 0.0155 0.000639569094466
0.0085 0.0165 0.000374155632273
0.0085 0.0175 0.000220793919412
0.0085 0.0185 0.000124003475613
0.0085 0.0195 8.19314543171e-05
0.0085 0.0205 5.29826531098e-05
0.0085 0.0215 3.19350906437e-05
0.0085 0.0225 2.02816278299e-05
0.0085 0.0235 1.4510873087e-05
0.0085 0.0245 1.16931862582e-05
0.0085 0.0255 1.0328276177e-05
0.0085 0.0265 9.4816058356e-06
0.0085 0.0275 8.68397618485e-06
0.0085 0.0285 7.84046662721e-06
0.0085 0.0295 6.75837758691e-06
0.0085 0.0305 6.39490264937e-06
0.0085 0.0315 3.44107311544e-06
0.0095 -0.0315 1.3107809399e-05
0.0095 -0.0305 2.13891812008e-05
0.0095 -0.0295 2.28884469279e-05
0.0095 -0.0285 4.73006661622e-05
0.0095 -0.0275 0.000132143857297
0.0095 -0.0265 0.000533934088506
0.0095 -0.0255 0.00221107631357
0.0095 -0.0245 0.00684472410405
0.0095 -0.0235 0.0117849415491
0.0095 -0.0225 0.0108012773906
0.0095 -0.0215 0.00544771062344
0.0095 -0.0205 0.00180745535531
0.0095 -0.0195 0.000604052070452
0.0095 -0.0185 0.000234678101636
0.0095 -0.0175 0.000121197979729
0.0095 -0.0165 8.64185693287e-05
0.0095 -0.0155 8.70269483696e-05
0.0095 -0.0145 0.000116692709641
0.0095 -0.0135 0.000191284841922
0.0095 -0.0125 0.000370236303035
0.0095 -0.0115 0.000992100216402
0.0095 -0.0105 0.00264862365132
0.0095 -0.0095 0.00409783009786
0.0095 -0.0085 0.00342989914238
0.0095 -0.0075 0.00169306785263
0.0095 -0.0065 0.000681667676113
0.0095 -0.0055 0.000425339451225
0.0095 -0.0045 0.000324659352687
0.0095 -0.0035 0.000230271287796
0.0095 -0.0025 0.000182595578964
0.0095 -0.0015 0.000159940382755
0.0095 -0.0005 0.000148677026208
0.0095 0.0005 0.00014332694021
0.0095 0.0015 0.000168321679903
0.0095 0.0025 0.000238727398923
0.0095 0.0035 0.000390396028414
0.0095 0.0045 0.000826655388908
0.0095 0.0055 0.0025988488421
0.0095 0.0065 0.00754607680353
0.0095 0.0075 0.0153377607057
0.0095 0.0085 0.0223221862908
0.0095 0.0095 0.0251029089701
0.0095 0.0105 0.0228917783951
0.0095 0.0115 0.0167249146999
0.0095 0.0125 0.00964205787989
0.0095 0.0135 0.00497974888813
0.0095 0.0145 0.00296312140521
0.0095 0.0155 0.00200906391251
0.0095 0.0165 0.00132635534519
0.0095 0.0175 0.000792678460964
0.0095 0.0185 0.000460128959121
0.0095 0.0195 0.000286531711956
0.0095 0.0205 0.000154772586702
0.0095 0.0215 7.28490334014e-05
0.0095 0.0225 3.83548520399e-05
0.0095 0.0235 2.23513047254e-05
0.0095 0.0245 1.52208973354e-05
0.0095 0.0255 1.19872128547e-05
0.0095 0.0265 1.02291818125e-05
0.0095 0.0275 8.96526151813e-06
0.0095 0.0285 7.91001307933e-06
0.0095 0.0295 6.76581403744e-06
0.0095 0.0305 6.44612612243e-06
0.0095 0.0315 3.49039958395e-06
0.0105 -0.0315 1.40215395893e-05
0.0105 -0.0305 2.2730774624e-05
0.0105 -0.0295 2.38909357712e-05
0.0105 -0.0285 4.90549929581e-05
0.0105 -0.0275 0.000137503895931
0.0105 -0.0265 0.000563829942818
0.0105 -0.0255 0.00237147571305
0.0105 -0.0245 0.00731294176412
0.0105 -0.0235 0.0121987865956
0.0105 -0.0225 0.0104035388193
0.0105 -0.0215 0.00466136149825
0.0105 -0.0205 0.0013574158689
0.0105 -0.0195 0.000426875554969
0.0105 -0.0185 0.000186223369211
0.0105 -0.0175 0.000100374329987
0.0105 -0.0165 7.2543260295e-05
0.0105 -0.0155 7.44180928382e-05
0.0105 -0.0145 0.000103867181254
0.0105 -0.0135 0.000183171701303
0.0105 -0.0125 0.000394358650411
0.0105 -0.0115 0.00121846702856
0.0105 -0.0105 0.00323322802445
0.0105 -0.0095 0.00425728801082
0.0105 -0.0085 0.00272940660925
0.0105 -0.0075 0.00101230519255
0.0105 -0.0065 0.00036148275094
0.0105 -0.0055 0.000179165120086
0.0105 -0.0045 0.000121246956192
0.0105 -0.0035 8.82247175149e-05
0.0105 -0.0025 6.90465382156e-05
0.0105 -0.0015 6.11450612401e-05
0.0105 -0.0005 5.96994627257e-05
0.0105 0.0005 6.34962657405e-05
0.0105 0.0015 7.46134874534e-05
0.0105 0.0025 0.000103953151523
0.0105 0.0035 0.000192029549043
0.0105 0.0045 0.000443245623625
0.0105 0.0055 0.00143204758227
0.0105 0.0065 0.00497075572
0.0105 0.0075 0.0118791595448
0.0105 0.0085 0.0193509106249
0.0105 0.0095 0.0232951693841
0.0105 0.0105 0.0225561667611
0.0105 0.0115 0.0183082031432
0.0105 0.0125 0.0128789284615
0.0105 0.0135 0.00909846371533
0.0105 0.0145 0.00721576212493
0.0105 0.0155 0.00586130122809
0.0105 0.0165 0.00433494973548
0.0105 0.0175 0.00274849264851
0.0105 0.0185 0.00156740419013
0.0105 0.0195 0.000879629581169
0.0105 0.0205 0.000449127095618
0.0105 0.0215 0.000189972844968
0.0105 0.0225 7.57643303519e-05
0.0105 0.0235 3.56156343848e-05
0.0105 0.0245 2.07932380241e-05
0.0105 0.0255 1.44192540347e-05
0.0105 0.0265 1.12235547069e-05
0.0105 0.0275 9.30252081216e-06
0.0105 0.0285 7.99257981554e-06
0.0105 0.0295 6.79424461219e-06
0.0105 0.0305 6.5224316938e-06
0.0105 0.0315 3.55266999499e-06
0.0115 -0.0315 1.49347021594e-05
0.0115 -0.0305 2.4040660088e-05
0.0115 -0.0295 2.4718051404e-05
0.0115 -0.0285 5.00329279281e-05
0.0115 -0.0275 0.000138288985444
0.0115 -0.0265 0.000563744186044
0.0115 -0.0255 0.00233864245634
0.0115 -0.0245 0.00723645728846
0.0115 -0.0235 0.012233977983
0.0115 -0.0225 0.0105310932481
0.0115 -0.0215 0.00470861878226
0.0115 -0.0205 0.00135581079242
0.0115 -0.0195 0.000430065911059
0.0115 -0.0185 0.000187545010621
0.0115 -0.0175 0.00010130528138
0.0115 -0.0165 7.45754117779e-05
0.0115 -0.0155 8.04714647108e-05
0.0115 -0.0145 0.000119627390765
0.0115 -0.0135 0.000228163002127
0.0115 -0.0125 0.000507614624008
0.0115 -0.0115 0.00165117376823
0.0115 -0.0105 0.00381967713968
0.0115 -0.0095 0.00399190151469
0.0115 -0.0085 0.00187614020325
0.0115 -0.0075 0.000544589210559
0.0115 -0.0065 0.000198984812847
0.0115 -0.0055 9.57280869592e-05
0.0115 -0.0045 5.91248526965e-05
0.0115 -0.0035 4.24975915856e-05
0.0115 -0.0025 3.41756861819e-05
0.0115 -0.0015 3.09261091706e-05
0.0115 -0.0005 3.16309034645e-05
0.0115 0.0005 3.61909910707e-05
0.0115 0.0015 4.50257219936e-05
0.0115 0.0025 6.20244161148e-05
0.0115 0.0035 0.000124590257332
0.0115 0.0045 0.000317952834382
0.0115 0.0055 0.00100175850589
0.0115 0.0065 0.00370509547421
0.0115 0.0075 0.00961372429909
0.0115 0.0085 0.016622839372
0.0115 0.0095 0.0206746698013
0.0115 0.0105 0.0204149832011
0.0115 0.0115 0.0173161427387
0.0115 0.0125 0.0140010114144
0.0115 0.0135 0.0127419704731
0.0115 0.0145 0.0125948973694
0.0115 0.0155 0.0119420496794
0.0115 0.0165 0.0102421239184
0.0115 0.0175 0.00753550397599
0.0115 0.0185 0.00456201323008
0.0115 0.0195 0.00232295436086
0.0115 0.0205 0.00105966893801
0.0115 0.0215 0.000414286480198
0.0115 0.0225 0.000135821756966
0.0115 0.0235 5.74780133101e-05
0.0115 0.0245 3.01242398617e-05
0.0115 0.0255 1.8505838707e-05
0.0115 0.0265 1.29042603243e-05
0.0115 0.0275 9.91401608807e-06
0.0115 0.0285 8.21171639742e-06
0.0115 0.0295 6.91819351943e-06
0.0115 0.0305 6.66525212799e-06
0.0115 0.0315 3.64390850892e-06
0.0125 -0.0315 1.57869161175e-05
0.0125 -0.0305 2.51936154173e-05
0.0125 -0.0295 2.52883066038e-05
0.0125 -0.0285 5.0604785165e-05
0.0125 -0.0275 0.000136710998783
0.0125 -0.0265 0.000540228654431
0.0125 -0.0255 0.0021314599532
0.0125 -0.0245 0.00661044647876
0.0125 -0.0235 0.0118318152373
0.0125 -0.0225 0.0111551083957
0.0125 -0.0215 0.00560375567996
0.0125 -0.0205 0.00178850529265
0.0125 -0.0195 0.000593474922035
0.0125 -0.0185 0.00023537614161
0.0125 -0.0175 0.000123008965129
0.0125 -0.0165 9.30145150211e-05
0.0125 -0.0155 0.000107910517988
0.0125 -0.0145 0.000175929546078
0.0125 -0.0135 0.000360947314719
0.0125 -0.0125 0.000912661239541
0.0125 -0.0115 0.00257091834837
0.0125 -0.0105 0.00432396516862
0.0125 -0.0095 0.00339997274339
0.0125 -0.0085 0.00121061586141
0.0125 -0.0075 0.000312902579212
0.0125 -0.0065 0.000122271065698
0.0125 -0.0055 5.84877491221e-05
0.0125 -0.0045 3.58964869129e-05
0.0125 -0.0035 2.61731634487e-05
0.0125 -0.0025 2.20242510605e-05
0.0125 -0.0015 2.10972401331e-05
0.0125 -0.0005 2.32598990514e-05
0.0125 0.0005 2.93048442203e-05
0.0125 0.0015 4.06313324871e-05
0.0125 0.0025 6.16286446638e-05
0.0125 0.0035 0.000137864519696
0.0125 0.0045 0.000379223663217
0.0125 0.0055 0.00112778630693
0.0125 0.0065 0.00373091891718
0.0125 0.0075 0.00906238810015
0.0125 0.0085 0.0149596582612
0.0125 0.0095 0.0179635859155
0.0125 0.0105 0.0170375109406
0.0125 0.0115 0.0138988502077
0.0125 0.0125 0.01196430746
0.0125 0.0135 0.0128272214412
0.0125 0.0145 0.014267517534
0.0125 0.0155 0.0150516898793
0.0125 0.0165 0.0148885890517
0.0125 0.0175 0.0131428165602
0.0125 0.0185 0.00957032670063
0.0125 0.0195 0.00537959029193
0.0125 0.0205 0.00227904302078
0.0125 0.0215 0.000763987796808
0.0125 0.0225 0.000240342372332
0.0125 0.0235 9.99028556554e-05
0.0125 0.0245 4.84194407178e-05
0.0125 0.0255 2.6759388791e-05
0.0125 0.0265 1.63225217544e-05
0.0125 0.0275 1.12725414765e-05
0.0125 0.0285 8.80595242743e-06
0.0125 0.0295 7.25277293507e-06
0.0125 0.0305 6.93056775557e-06
0.0125 0.0315 3.78454208482e-06
0.0135 -0.0315 1.64012724159e-05
0.0135 -0.0305 2.59341527522e-05
0.0135 -0.0295 2.53069963702e-05
0.0135 -0.0285 5.02512376404e-05
0.0135 -0.0275 0.000134619553968
0.0135 -0.0265 0.000508479983025
0.0135 -0.0255 0.00180321708259
0.0135 -0.0245 0.00547859023497
0.0135 -0.0235 0.010842207236
0.0135 -0.0225 0.0119993478829
0.0135 -0.0215 0.00732543274316
0.0135 -0.0205 0.002727152493
0.0135 -0.0195 0.000869250927006
0.0135 -0.0185 0.000323773484167
0.0135 -0.0175 0.000171803500216
0.0135 -0.0165 0.000135460039979
0.0135 -0.0155 0.000173621818162
0.0135 -0.0145 0.00031313114245
0.0135 -0.0135 0.000727773992762
0.0135 -0.0125 0.00190080882967
0.0135 -0.0115 0.00382215197576
0.0135 -0.0105 0.00432737076192
0.0135 -0.0095 0.00251240407732
0.0135 -0.0085 0.000787586177346
0.0135 -0.0075 0.000216762910895
0.0135 -0.0065 8.1478320216e-05
0.0135 -0.0055 4.03178334161e-05
0.0135 -0.0045 2.56249102087e-05
0.0135 -0.0035 1.97432612136e-05
0.0135 -0.0025 1.77396634895e-05
0.0135 -0.0015 1.84446550364e-05
0.0135 -0.0005 2.25247194281e-05
0.0135 0.0005 3.17995304243e-05
0.0135 0.0015 5.12671711207e-05
0.0135 0.0025 9.8226187731e-05
0.0135 0.0035 0.000252632709901
0.0135 0.0045 0.000690902333507
0.0135 0.0055 0.00198099356637
0.0135 0.0065 0.00529827827481
0.0135 0.0075 0.0105194133318
0.0135 0.0085 0.0149330543555
0.0135 0.0095 0.0160734116041
0.0135 0.0105 0.0135216748312
0.0135 0.0115 0.00913334017484
0.0135 0.0125 0.00721462965266
0.0135 0.0135 0.00807987645295
0.0135 0.0145 0.00933885606672
0.0135 0.0155 0.0111516146445
0.0135 0.0165 0.0134340766745
0.0135 0.0175 0.0149713382457
0.0135 0.0185 0.0139403619806
0.0135 0.0195 0.00985898960709
0.0135 0.0205 0.00482298256516
0.0135 0.0215 0.00164549019312
0.0135 0.0225 0.000531751243533
0.0135 0.0235 0.000202332326539
0.0135 0.0245 9.41233275357e-05
0.0135 0.0255 4.50168408603e-05
0.0135 0.0265 2.34331166383e-05
0.0135 0.0275 1.42375050725e-05
0.0135 0.0285 1.01320995465e-05
0.0135 0.0295 7.9509702952e-06
0.0135 0.0305 7.3889610583e-06
0.0135 0.0315 3.99913509914e-06
0.0145 -0.0315 1.6671521568e-05
0.0145 -0.0305 2.61030473786e-05
0.0145 -0.0295 2.45066471191e-05
0.0145 -0.0285 4.73890587743e-05
0.0145 -0.0275 0.000126531837349
0.0145 -0.0265 0.000452804843434
0.0145 -0.0255 0.00136391110277
0.0145 -0.0245 0.00395636834641
0.0145 -0.0235 0.00913389305264
0.0145 -0.0225 0.0124611951566
0.0145 -0.0215 0.00950008021153
0.0145 -0.0205 0.00420996602649
0.0145 -0.0195 0.00133060529819
0.0145 -0.0185 0.000503774366718
0.0145 -0.0175 0.000264174781706
0.0145 -0.0165 0.000230986299831
0.0145 -0.0155 0.000333588173922
0.0145 -0.0145 0.00068965782778
0.0145 -0.0135 0.00165179610904
0.0145 -0.0125 0.00336031287638
0.0145 -0.0115 0.00452153595298
0.0145 -0.0105 0.00349459766933
0.0145 -0.0095 0.00149989227759
0.0145 -0.0085 0.000444265533791
0.0145 -0.0075 0.000144319967067
0.0145 -0.0065 5.70842927054e-05
0.0145 -0.0055 3.02014963377e-05
0.0145 -0.0045 2.05607848349e-05
0.0145 -0.0035 1.70506018336e-05
0.0145 -0.0025 1.65551867276e-05
0.0145 -0.0015 1.8956600043e-05
0.0145 -0.0005 2.60042809307e-05
0.0145 0.0005 4.17418532112e-05
0.0145 0.0015 7.52969360239e-05
0.0145 0.0025 0.000184237112506
0.0145 0.0035 0.000532892956479
0.0145 0.0045 0.0014770802416