% Model:              Benchmark260518.mph
% Version:            COMSOL 6.2.0.339
% Date:               May 20 2026, 10:14
% Dimension:          2
% Nodes:              4096
% Expressions:        1
% Description:        速度大小
% Length unit:        m
% x                       y                        spf.U (m/s)
5.0E-4                    -0.0315                  1.9385437470271264E-6
5.0E-4                    -0.0305                  3.89694968762152E-6
5.0E-4                    -0.0295                  4.3874620837243E-6
5.0E-4                    -0.0285                  4.901886350159541E-6
5.0E-4                    -0.0275                  5.18011451742728E-6
5.0E-4                    -0.0265                  5.447469712722241E-6
5.0E-4                    -0.0255                  5.677657207327611E-6
5.0E-4                    -0.0245                  5.8946769526845685E-6
5.0E-4                    -0.0235                  6.0945948492649006E-6
5.0E-4                    -0.0225                  6.273483764777879E-6
5.0E-4                    -0.0215                  6.421429497752058E-6
5.0E-4                    -0.0205                  6.54087340606293E-6
5.0E-4                    -0.0195                  6.643352298794513E-6
5.0E-4                    -0.0185                  6.744848175348745E-6
5.0E-4                    -0.0175                  6.86072235244702E-6
5.0E-4                    -0.0165                  7.00153590218979E-6
5.0E-4                    -0.0155                  7.1882222866928406E-6
5.0E-4                    -0.0145                  7.441846130727324E-6
5.0E-4                    -0.0135                  7.80508043761548E-6
5.0E-4                    -0.0125                  8.419521635593739E-6
5.0E-4                    -0.0115                  9.566055677438198E-6
5.0E-4                    -0.0105                  1.1563278930176818E-5
5.0E-4                    -0.0095                  1.7147552398761245E-5
5.0E-4                    -0.0085                  3.560710696586564E-5
5.0E-4                    -0.0075                  9.0775417788103E-5
5.0E-4                    -0.0065                  2.492358879404585E-4
5.0E-4                    -0.0055                  5.121220510225436E-4
5.0E-4                    -0.0045                  7.900804705541788E-4
5.0E-4                    -0.0035                  0.0012491582380499263
5.0E-4                    -0.0025                  0.0022408632067552722
5.0E-4                    -0.0015                  0.003641665323809053
5.0E-4                    -5.0E-4                  0.004967399625029128
5.0E-4                    5.0E-4                   0.005732518022416711
5.0E-4                    0.0015                   0.005654759741833652
5.0E-4                    0.0025                   0.00476054250206863
5.0E-4                    0.0035                   0.003340649297169627
5.0E-4                    0.0045                   0.001957390326317774
5.0E-4                    0.0055                   0.002581334338590894
5.0E-4                    0.0065                   0.004222905378710616
5.0E-4                    0.0075                   0.004442263677294758
5.0E-4                    0.0085                   0.0032561500439626436
5.0E-4                    0.0095                   0.002064853089039415
5.0E-4                    0.0105                   0.0015460643878288788
5.0E-4                    0.0115                   0.0013347113822368673
5.0E-4                    0.0125                   0.0021562898514835413
5.0E-4                    0.0135                   0.004312140799515002
5.0E-4                    0.0145                   0.04473203668621343
5.0E-4                    0.0155                   0.07915460563493235
5.0E-4                    0.0165                   0.06466752717084676
5.0E-4                    0.0175                   0.02537934005235282
5.0E-4                    0.0185                   7.044042720848204E-4
5.0E-4                    0.0195                   6.239981123253895E-4
5.0E-4                    0.0205                   1.4194248262827498E-4
5.0E-4                    0.0215                   5.966004192282689E-5
5.0E-4                    0.0225                   3.0155659683106926E-5
5.0E-4                    0.0235                   1.0712754577807387E-5
5.0E-4                    0.0245                   4.2299858597837645E-6
5.0E-4                    0.0255                   2.115647761333498E-6
5.0E-4                    0.0265                   1.3974077478035137E-6
5.0E-4                    0.0275                   1.1491536838933317E-6
5.0E-4                    0.0285                   1.0631241215146064E-6
5.0E-4                    0.0295                   1.0260806857767393E-6
5.0E-4                    0.0305                   1.0055556405937838E-6
5.0E-4                    0.0315                   5.188088493018375E-7
0.0015                    -0.0315                  3.779102831373809E-6
0.0015                    -0.0305                  7.495262791385134E-6
0.0015                    -0.0295                  8.078670607774982E-6
0.0015                    -0.0285                  8.642055524195747E-6
0.0015                    -0.0275                  8.841143966034786E-6
0.0015                    -0.0265                  9.053976602018994E-6
0.0015                    -0.0255                  9.259310754059223E-6
0.0015                    -0.0245                  9.481639710361E-6
0.0015                    -0.0235                  9.707922850408954E-6
0.0015                    -0.0225                  9.920718683910174E-6
0.0015                    -0.0215                  1.009675565638039E-5
0.0015                    -0.0205                  1.0229469566307192E-5
0.0015                    -0.0195                  1.0329990000271735E-5
0.0015                    -0.0185                  1.0422901015029242E-5
0.0015                    -0.0175                  1.0538539097358888E-5
0.0015                    -0.0165                  1.0705374556656668E-5
0.0015                    -0.0155                  1.0961212946600026E-5
0.0015                    -0.0145                  1.135038945463593E-5
0.0015                    -0.0135                  1.1968278621836992E-5
0.0015                    -0.0125                  1.3079843813629025E-5
0.0015                    -0.0115                  1.5244221126825992E-5
0.0015                    -0.0105                  1.962820825812245E-5
0.0015                    -0.0095                  3.126512197524063E-5
0.0015                    -0.0085                  6.492670330162867E-5
0.0015                    -0.0075                  1.609058182520643E-4
0.0015                    -0.0065                  4.715739156330405E-4
0.0015                    -0.0055                  0.0011023190502916108
0.0015                    -0.0045                  0.002352813914218036
0.0015                    -0.0035                  0.0048861830857095424
0.0015                    -0.0025                  0.008587295038178807
0.0015                    -0.0015                  0.012432857010396543
0.0015                    -5.0E-4                  0.015499444164977345
0.0015                    5.0E-4                   0.017241792752909706
0.0015                    0.0015                   0.01748524565093628
0.0015                    0.0025                   0.016336009805571514
0.0015                    0.0035                   0.014012502647578135
0.0015                    0.0045                   0.01054563554138683
0.0015                    0.0055                   0.006127479458629729
0.0015                    0.0065                   0.004253227649615258
0.0015                    0.0075                   0.006875207373724739
0.0015                    0.0085                   0.0075781316107279145
0.0015                    0.0095                   0.006453143229383569
0.0015                    0.0105                   0.005092616791887622
0.0015                    0.0115                   0.004059642986813582
0.0015                    0.0125                   0.004207049059202058
0.0015                    0.0135                   0.01276243460735735
0.0015                    0.0145                   0.054257592487035294
0.0015                    0.0155                   0.07806480707126591
0.0015                    0.0165                   0.060145465029565186
0.0015                    0.0175                   0.022792210438981202
0.0015                    0.0185                   0.0010620345568014172
0.0015                    0.0195                   0.0014192509195481203
0.0015                    0.0205                   3.8276463913111566E-4
0.0015                    0.0215                   1.3018227693043202E-4
0.0015                    0.0225                   5.4615750259231394E-5
0.0015                    0.0235                   1.96854834033679E-5
0.0015                    0.0245                   8.126561801312637E-6
0.0015                    0.0255                   4.188466856113525E-6
0.0015                    0.0265                   2.7950390719386056E-6
0.0015                    0.0275                   2.301979142653475E-6
0.0015                    0.0285                   2.1482053351450976E-6
0.0015                    0.0295                   2.0972402694700722E-6
0.0015                    0.0305                   2.0309164796706774E-6
0.0015                    0.0315                   1.039472346402864E-6
0.0025                    -0.0315                  3.9761518492654E-6
0.0025                    -0.0305                  7.625636007644157E-6
0.0025                    -0.0295                  7.818631286151436E-6
0.0025                    -0.0285                  8.107065906858932E-6
0.0025                    -0.0275                  7.993118071492981E-6
0.0025                    -0.0265                  7.867923484862927E-6
0.0025                    -0.0255                  7.775157080118204E-6
0.0025                    -0.0245                  7.748016673336576E-6
0.0025                    -0.0235                  7.775872154639676E-6
0.0025                    -0.0225                  7.83242078415336E-6
0.0025                    -0.0215                  7.883245871367286E-6
0.0025                    -0.0205                  7.900525837034452E-6
0.0025                    -0.0195                  7.875852026854093E-6
0.0025                    -0.0185                  7.82619883451442E-6
0.0025                    -0.0175                  7.791408398328687E-6
0.0025                    -0.0165                  7.824682403487589E-6
0.0025                    -0.0155                  7.981637927294614E-6
0.0025                    -0.0145                  8.332720556930341E-6
0.0025                    -0.0135                  9.019753730797992E-6
0.0025                    -0.0125                  1.0389865291759795E-5
0.0025                    -0.0115                  1.3288711455346895E-5
0.0025                    -0.0105                  2.0022004768012485E-5
0.0025                    -0.0095                  3.646814910381967E-5
0.0025                    -0.0085                  8.001856179564801E-5
0.0025                    -0.0075                  2.0010168477911042E-4
0.0025                    -0.0065                  6.606296958539486E-4
0.0025                    -0.0055                  0.002054198802933811
0.0025                    -0.0045                  0.00546014010418807
0.0025                    -0.0035                  0.0109388032846145
0.0025                    -0.0025                  0.016656613000730434
0.0025                    -0.0015                  0.02106088376771061
0.0025                    -5.0E-4                  0.023914329936047692
0.0025                    5.0E-4                   0.02557925248472664
0.0025                    0.0015                   0.026446682709340526
0.0025                    0.0025                   0.026710166877649946
0.0025                    0.0035                   0.02621435039408206
0.0025                    0.0045                   0.024387269879639108
0.0025                    0.0055                   0.020329857342835073
0.0025                    0.0065                   0.013293111798542041
0.0025                    0.0075                   0.004832771670786339
0.0025                    0.0085                   0.004515421897902783
0.0025                    0.0095                   0.00782605965981504
0.0025                    0.0105                   0.0079078423677683
0.0025                    0.0115                   0.006534202515533316
0.0025                    0.0125                   0.0038192810007376104
0.0025                    0.0135                   0.023318324503802255
0.0025                    0.0145                   0.0613942185484409
0.0025                    0.0155                   0.0756967145749549
0.0025                    0.0165                   0.05410234208736801
0.0025                    0.0175                   0.01866417274013544
0.0025                    0.0185                   5.848366713910384E-4
0.0025                    0.0195                   0.0017802815658329914
0.0025                    0.0205                   5.132654334420291E-4
0.0025                    0.0215                   1.4206370660552761E-4
0.0025                    0.0225                   4.864261025228836E-5
0.0025                    0.0235                   1.878818506652926E-5
0.0025                    0.0245                   8.540211622602828E-6
0.0025                    0.0255                   4.755505041818509E-6
0.0025                    0.0265                   3.313939674666145E-6
0.0025                    0.0275                   2.7764003126640383E-6
0.0025                    0.0285                   2.5946719524300355E-6
0.0025                    0.0295                   2.4685494887563688E-6
0.0025                    0.0305                   2.2502483974395645E-6
0.0025                    0.0315                   1.124701313385433E-6
0.0035                    -0.0315                  4.316077077261176E-6
0.0035                    -0.0305                  7.948436809580191E-6
0.0035                    -0.0295                  7.964594358281744E-6
0.0035                    -0.0285                  8.47739011981406E-6
0.0035                    -0.0275                  8.472503880062623E-6
0.0035                    -0.0265                  8.35681975167618E-6
0.0035                    -0.0255                  8.21235195328546E-6
0.0035                    -0.0245                  8.130308176738367E-6
0.0035                    -0.0235                  8.129200891733915E-6
0.0035                    -0.0225                  8.19485013150343E-6
0.0035                    -0.0215                  8.285066542612435E-6
0.0035                    -0.0205                  8.350327950915068E-6
0.0035                    -0.0195                  8.357425829890534E-6
0.0035                    -0.0185                  8.310818609601028E-6
0.0035                    -0.0175                  8.262658197422531E-6
0.0035                    -0.0165                  8.306313684250705E-6
0.0035                    -0.0155                  8.55664475361065E-6
0.0035                    -0.0145                  9.146314494618209E-6
0.0035                    -0.0135                  1.0312803711082738E-5
0.0035                    -0.0125                  1.2644376484686603E-5
0.0035                    -0.0115                  1.7698656024258885E-5
0.0035                    -0.0105                  2.944578058959354E-5
0.0035                    -0.0095                  5.9508062649478345E-5
0.0035                    -0.0085                  1.4200283413590747E-4
0.0035                    -0.0075                  4.250875316628374E-4
0.0035                    -0.0065                  0.0013838669788256333
0.0035                    -0.0055                  0.004591558424274113
0.0035                    -0.0045                  0.01090765169306572
0.0035                    -0.0035                  0.017937372609299305
0.0035                    -0.0025                  0.02296102339238952
0.0035                    -0.0015                  0.0256813079709697
0.0035                    -5.0E-4                  0.02702742951654051
0.0035                    5.0E-4                   0.027878657236376954
0.0035                    0.0015                   0.02882876759412018
0.0035                    0.0025                   0.030169740895247762
0.0035                    0.0035                   0.031734375241985066
0.0035                    0.0045                   0.03278828676618349
0.0035                    0.0055                   0.032139365046574095
0.0035                    0.0065                   0.028393728455528695
0.0035                    0.0075                   0.020704751428156934
0.0035                    0.0085                   0.010315289318616529
0.0035                    0.0095                   0.0015926437957491184
0.0035                    0.0105                   0.004465826696371959
0.0035                    0.0115                   0.0050515172092752275
0.0035                    0.0125                   0.009038355361759325
0.0035                    0.0135                   0.036589880748929285
0.0035                    0.0145                   0.06642620371006792
0.0035                    0.0155                   0.07163848296404572
0.0035                    0.0165                   0.046536225519535186
0.0035                    0.0175                   0.013684183416152915
0.0035                    0.0185                   8.694928186392411E-4
0.0035                    0.0195                   0.0018519951208426167
0.0035                    0.0205                   5.400238733031663E-4
0.0035                    0.0215                   1.4532857311482962E-4
0.0035                    0.0225                   4.533700512995697E-5
0.0035                    0.0235                   1.8875224261598385E-5
0.0035                    0.0245                   9.402171568328254E-6
0.0035                    0.0255                   5.753771022695861E-6
0.0035                    0.0265                   4.290092706281059E-6
0.0035                    0.0275                   3.7020552853591644E-6
0.0035                    0.0285                   3.4101903965582335E-6
0.0035                    0.0295                   3.072288833458645E-6
0.0035                    0.0305                   2.6069826967499567E-6
0.0035                    0.0315                   1.2659837346832215E-6
0.0045                    -0.0315                  4.554771966119236E-6
0.0045                    -0.0305                  8.092857197874483E-6
0.0045                    -0.0295                  7.81734378586969E-6
0.0045                    -0.0285                  8.447774893212487E-6
0.0045                    -0.0275                  8.608486090134406E-6
0.0045                    -0.0265                  8.59356428613004E-6
0.0045                    -0.0255                  8.468212224051147E-6
0.0045                    -0.0245                  8.369850008701955E-6
0.0045                    -0.0235                  8.366859726422334E-6
0.0045                    -0.0225                  8.48057288678314E-6
0.0045                    -0.0215                  8.680445769639544E-6
0.0045                    -0.0205                  8.901546022114396E-6
0.0045                    -0.0195                  9.078674605914372E-6
0.0045                    -0.0185                  9.193074620691823E-6
0.0045                    -0.0175                  9.31074309170975E-6
0.0045                    -0.0165                  9.595711667273405E-6
0.0045                    -0.0155                  1.0278408521066849E-5
0.0045                    -0.0145                  1.1610116506533585E-5
0.0045                    -0.0135                  1.39342151499042E-5
0.0045                    -0.0125                  1.8214806458397528E-5
0.0045                    -0.0115                  2.7242097277962908E-5
0.0045                    -0.0105                  4.9506919800583176E-5
0.0045                    -0.0095                  1.0974276902005965E-4
0.0045                    -0.0085                  3.140555631343572E-4
0.0045                    -0.0075                  9.670244968126068E-4
0.0045                    -0.0065                  0.0031034122827127432
0.0045                    -0.0055                  0.00893352750134328
0.0045                    -0.0045                  0.017369400950035672
0.0045                    -0.0035                  0.02367084644469123
0.0045                    -0.0025                  0.026169269294464788
0.0045                    -0.0015                  0.02626174576208148
0.0045                    -5.0E-4                  0.02530148782540825
0.0045                    5.0E-4                   0.024318893038467817
0.0045                    0.0015                   0.024303915793110357
0.0045                    0.0025                   0.02589990096639608
0.0045                    0.0035                   0.029057484913054498
0.0045                    0.0045                   0.03297381985910863
0.0045                    0.0055                   0.03630391103020879
0.0045                    0.0065                   0.03742405652589608
0.0045                    0.0075                   0.0348137173519193
0.0045                    0.0085                   0.027748349529032542
0.0045                    0.0095                   0.01779189358619032
0.0045                    0.0105                   0.009367243964138922
0.0045                    0.0115                   0.008792378084248252
0.0045                    0.0125                   0.02253050839710727
0.0045                    0.0135                   0.04832437012913561
0.0045                    0.0145                   0.0674507032781723
0.0045                    0.0155                   0.0653592876986326
0.0045                    0.0165                   0.03796351343702075
0.0045                    0.0175                   0.008658766609550585
0.0045                    0.0185                   0.001318186173978978
0.0045                    0.0195                   0.0016953991272683356
0.0045                    0.0205                   5.708916093221142E-4
0.0045                    0.0215                   1.728360873631053E-4
0.0045                    0.0225                   5.206933433458239E-5
0.0045                    0.0235                   2.146168910518612E-5
0.0045                    0.0245                   1.10893200389523E-5
0.0045                    0.0255                   7.164421886833839E-6
0.0045                    0.0265                   5.511457046606543E-6
0.0045                    0.0275                   4.7602165170538335E-6
0.0045                    0.0285                   4.27761595104405E-6
0.0045                    0.0295                   3.70508859485098E-6
0.0045                    0.0305                   3.002366851916558E-6
0.0045                    0.0315                   1.4228761149519028E-6
0.0055                    -0.0315                  4.761452381663788E-6
0.0055                    -0.0305                  8.246592583118465E-6
0.0055                    -0.0295                  7.701420971046045E-6
0.0055                    -0.0285                  8.368852910019651E-6
0.0055                    -0.0275                  8.654147167777434E-6
0.0055                    -0.0265                  8.766038682945424E-6
0.0055                    -0.0255                  8.704515430086727E-6
0.0055                    -0.0245                  8.618900073652848E-6
0.0055                    -0.0235                  8.630500508997853E-6
0.0055                    -0.0225                  8.825830937767548E-6
0.0055                    -0.0215                  9.225410031012963E-6
0.0055                    -0.0205                  9.779936579630397E-6
0.0055                    -0.0195                  1.0400535258483893E-5
0.0055                    -0.0185                  1.104011912784747E-5
0.0055                    -0.0175                  1.180386642200484E-5
0.0055                    -0.0165                  1.3015806689803296E-5
0.0055                    -0.0155                  1.5212210377860599E-5
0.0055                    -0.0145                  1.8880755159733593E-5
0.0055                    -0.0135                  2.4358719403969562E-5
0.0055                    -0.0125                  3.2840084334586465E-5
0.0055                    -0.0115                  4.987346785162707E-5
0.0055                    -0.0105                  9.370894338388234E-5
0.0055                    -0.0095                  2.3650250156322195E-4
0.0055                    -0.0085                  7.042568833540646E-4
0.0055                    -0.0075                  0.002028272852771054
0.0055                    -0.0065                  0.0061760175313701265
0.0055                    -0.0055                  0.014533178120519467
0.0055                    -0.0045                  0.02314904964520989
0.0055                    -0.0035                  0.027115593892988166
0.0055                    -0.0025                  0.026544248779538312
0.0055                    -0.0015                  0.023427080620494194
0.0055                    -5.0E-4                  0.01931273419066871
0.0055                    5.0E-4                   0.0158431191085831
0.0055                    0.0015                   0.014279610256614405
0.0055                    0.0025                   0.015176257094129654
0.0055                    0.0035                   0.01858411600272333
0.0055                    0.0045                   0.02416711444284347
0.0055                    0.0055                   0.030940967224258074
0.0055                    0.0065                   0.037075092872452524
0.0055                    0.0075                   0.04049258283899301
0.0055                    0.0085                   0.03958442641852765
0.0055                    0.0095                   0.03428395576877206
0.0055                    0.0105                   0.027520968453537454
0.0055                    0.0115                   0.025819171694445486
0.0055                    0.0125                   0.0361066340349344
0.0055                    0.0135                   0.053375719588010684
0.0055                    0.0145                   0.06345326628677234
0.0055                    0.0155                   0.05682846521865523
0.0055                    0.0165                   0.029760829701288606
0.0055                    0.0175                   0.005036766849259288
0.0055                    0.0185                   0.00215635196834022
0.0055                    0.0195                   0.001880235115317907
0.0055                    0.0205                   7.781737108937001E-4
0.0055                    0.0215                   2.4339288240662505E-4
0.0055                    0.0225                   7.1994534456506E-5
0.0055                    0.0235                   2.9571417305664124E-5
0.0055                    0.0245                   1.5411202272494048E-5
0.0055                    0.0255                   9.969392942130918E-6
0.0055                    0.0265                   7.441456816642774E-6
0.0055                    0.0275                   6.152367716488906E-6
0.0055                    0.0285                   5.3104346228827545E-6
0.0055                    0.0295                   4.4494871407474726E-6
0.0055                    0.0305                   3.4848900674141923E-6
0.0055                    0.0315                   1.6117741769187848E-6
0.0065                    -0.0315                  4.941976161340239E-6
0.0065                    -0.0305                  8.392011654373444E-6
0.0065                    -0.0295                  7.5997518228226685E-6
0.0065                    -0.0285                  8.260151144966338E-6
0.0065                    -0.0275                  8.616599694711507E-6
0.0065                    -0.0265                  8.833654412591464E-6
0.0065                    -0.0255                  8.847171096154158E-6
0.0065                    -0.0245                  8.79024471995783E-6
0.0065                    -0.0235                  8.8282496600119E-6
0.0065                    -0.0225                  9.14552112104592E-6
0.0065                    -0.0215                  9.884235034512574E-6
0.0065                    -0.0205                  1.109356250809069E-5
0.0065                    -0.0195                  1.2716283746253662E-5
0.0065                    -0.0185                  1.4702739922288185E-5
0.0065                    -0.0175                  1.728032296260415E-5
0.0065                    -0.0165                  2.125872457079217E-5
0.0065                    -0.0155                  2.8004017073208358E-5
0.0065                    -0.0145                  3.9646345919686714E-5
0.0065                    -0.0135                  5.6610632103370834E-5
0.0065                    -0.0125                  7.60361304213987E-5
0.0065                    -0.0115                  1.072206216958028E-4
0.0065                    -0.0105                  2.0880865285146839E-4
0.0065                    -0.0095                  5.346431793208554E-4
0.0065                    -0.0085                  0.001402727517181967
0.0065                    -0.0075                  0.004005417591963721
0.0065                    -0.0065                  0.010641049483609194
0.0065                    -0.0055                  0.020244953901375217
0.0065                    -0.0045                  0.02712702593067671