% Model:              Benchmark260518.mph
% Version:            COMSOL 6.2.0.339
% Date:               May 21 2026, 08:06
% Dimension:          2
% Nodes:              4096
% Expressions:        1
% Description:        速度大小
% Length unit:        m
% x                       y                        spf.U (m/s)
5.0E-4                    -0.0315                  1.483881149048132E-6
5.0E-4                    -0.0305                  2.953932524152471E-6
5.0E-4                    -0.0295                  3.306287799148606E-6
5.0E-4                    -0.0285                  3.6927599044768654E-6
5.0E-4                    -0.0275                  3.879034994268571E-6
5.0E-4                    -0.0265                  4.0504251319980115E-6
5.0E-4                    -0.0255                  4.181842854195121E-6
5.0E-4                    -0.0245                  4.295962152540884E-6
5.0E-4                    -0.0235                  4.397177731674617E-6
5.0E-4                    -0.0225                  4.486908641473647E-6
5.0E-4                    -0.0215                  4.566804621257209E-6
5.0E-4                    -0.0205                  4.637007788422828E-6
5.0E-4                    -0.0195                  4.695190348701063E-6
5.0E-4                    -0.0185                  4.738144534639241E-6
5.0E-4                    -0.0175                  4.771157215338407E-6
5.0E-4                    -0.0165                  4.795189702056776E-6
5.0E-4                    -0.0155                  4.80689441898882E-6
5.0E-4                    -0.0145                  4.816510252464496E-6
5.0E-4                    -0.0135                  4.827210997184489E-6
5.0E-4                    -0.0125                  4.8409509121186165E-6
5.0E-4                    -0.0115                  4.864718456491276E-6
5.0E-4                    -0.0105                  4.912065614561721E-6
5.0E-4                    -0.0095                  5.001400365079132E-6
5.0E-4                    -0.0085                  5.176112172602839E-6
5.0E-4                    -0.0075                  5.518885710750301E-6
5.0E-4                    -0.0065                  6.139264361222111E-6
5.0E-4                    -0.0055                  7.3764096245358555E-6
5.0E-4                    -0.0045                  1.013230572484463E-5
5.0E-4                    -0.0035                  1.8608015523461404E-5
5.0E-4                    -0.0025                  4.559292537101492E-5
5.0E-4                    -0.0015                  1.3369033606998982E-4
5.0E-4                    -5.0E-4                  2.940631836782637E-4
5.0E-4                    5.0E-4                   4.944420768065547E-4
5.0E-4                    0.0015                   7.869269488394794E-4
5.0E-4                    0.0025                   0.0012764122298056268
5.0E-4                    0.0035                   0.0019348156879869902
5.0E-4                    0.0045                   0.0025677108781654886
5.0E-4                    0.0055                   0.002950392379942898
5.0E-4                    0.0065                   0.0029453458424544324
5.0E-4                    0.0075                   0.002535905767926742
5.0E-4                    0.0085                   0.0018173314637053217
5.0E-4                    0.0095                   9.815007255980488E-4
5.0E-4                    0.0105                   5.74606078547939E-4
5.0E-4                    0.0115                   0.0010140579679382158
5.0E-4                    0.0125                   0.0013162207568447222
5.0E-4                    0.0135                   0.0012404807355012677
5.0E-4                    0.0145                   7.546727368352367E-4
5.0E-4                    0.0155                   0.004291962289253124
5.0E-4                    0.0165                   0.016502317753778372
5.0E-4                    0.0175                   0.02468092649529547
5.0E-4                    0.0185                   0.022079762344688173
5.0E-4                    0.0195                   0.017138835660756285
5.0E-4                    0.0205                   0.011079150507742323
5.0E-4                    0.0215                   0.005665812367123288
5.0E-4                    0.0225                   0.0019625427260562874
5.0E-4                    0.0235                   4.27392277626359E-4
5.0E-4                    0.0245                   8.434730252470933E-5
5.0E-4                    0.0255                   1.878448589295036E-5
5.0E-4                    0.0265                   7.648954304613548E-6
5.0E-4                    0.0275                   4.402960764822127E-6
5.0E-4                    0.0285                   3.555364575821045E-6
5.0E-4                    0.0295                   3.5188718127941515E-6
5.0E-4                    0.0305                   5.91583042789534E-6
5.0E-4                    0.0315                   4.16013698213715E-6
0.0015                    -0.0315                  2.8661825519727687E-6
0.0015                    -0.0305                  5.632444983755168E-6
0.0015                    -0.0295                  6.0202945911487705E-6
0.0015                    -0.0285                  6.4284605268448905E-6
0.0015                    -0.0275                  6.54455513264314E-6
0.0015                    -0.0265                  6.655175278973812E-6
0.0015                    -0.0255                  6.737957348762612E-6
0.0015                    -0.0245                  6.816341349190023E-6
0.0015                    -0.0235                  6.892827657091652E-6
0.0015                    -0.0225                  6.966608386700664E-6
0.0015                    -0.0215                  7.036231055884386E-6
0.0015                    -0.0205                  7.098664479764202E-6
0.0015                    -0.0195                  7.148600804792911E-6
0.0015                    -0.0185                  7.181188015894241E-6
0.0015                    -0.0175                  7.2006553423145435E-6
0.0015                    -0.0165                  7.208053936152988E-6
0.0015                    -0.0155                  7.201350379440717E-6
0.0015                    -0.0145                  7.191429097755037E-6
0.0015                    -0.0135                  7.1833503404069176E-6
0.0015                    -0.0125                  7.181662980693034E-6
0.0015                    -0.0115                  7.199019111867505E-6
0.0015                    -0.0105                  7.260740549347441E-6
0.0015                    -0.0095                  7.408022980576388E-6
0.0015                    -0.0085                  7.724355537954996E-6
0.0015                    -0.0075                  8.365834125203811E-6
0.0015                    -0.0065                  9.611706525703226E-6
0.0015                    -0.0055                  1.2196985618412755E-5
0.0015                    -0.0045                  1.8152860008589257E-5
0.0015                    -0.0035                  3.482303696999561E-5
0.0015                    -0.0025                  8.535748233443685E-5
0.0015                    -0.0015                  2.5440339645643403E-4
0.0015                    -5.0E-4                  6.076816879564905E-4
0.0015                    5.0E-4                   0.0012630312466103161
0.0015                    0.0015                   0.0024929895033512666
0.0015                    0.0025                   0.004297567993424236
0.0015                    0.0035                   0.006253486609568874
0.0015                    0.0045                   0.007887805282753797
0.0015                    0.0055                   0.008882514533455187
0.0015                    0.0065                   0.00910424958459914
0.0015                    0.0075                   0.008564477329713159
0.0015                    0.0085                   0.007366580678982381
0.0015                    0.0095                   0.005673629222012385
0.0015                    0.0105                   0.0037182305063561717
0.0015                    0.0115                   0.0018533332428196483
0.0015                    0.0125                   4.602235717274041E-4
0.0015                    0.0135                   8.756990554465811E-4
0.0015                    0.0145                   0.0042008975717815365
0.0015                    0.0155                   0.012512173329105184
0.0015                    0.0165                   0.02194468830597555
0.0015                    0.0175                   0.024521930614910353
0.0015                    0.0185                   0.020920917495852922
0.0015                    0.0195                   0.015225646254491687
0.0015                    0.0205                   0.009017108508911223
0.0015                    0.0215                   0.0040475441878554935
0.0015                    0.0225                   0.0013013801039019764
0.0015                    0.0235                   3.5125027949962483E-4
0.0015                    0.0245                   8.340339937135444E-5
0.0015                    0.0255                   1.9059187331211153E-5
0.0015                    0.0265                   8.02937475638606E-6
0.0015                    0.0275                   4.626273388210001E-6
0.0015                    0.0285                   3.711451938444496E-6
0.0015                    0.0295                   3.6324649035974642E-6
0.0015                    0.0305                   4.517492142592901E-6
0.0015                    0.0315                   2.7163706126077814E-6
0.0025                    -0.0315                  2.9988509479894965E-6
0.0025                    -0.0305                  5.678135262733557E-6
0.0025                    -0.0295                  5.728422590810011E-6
0.0025                    -0.0285                  5.912323038970324E-6
0.0025                    -0.0275                  5.804547788227267E-6
0.0025                    -0.0265                  5.668364786890797E-6
0.0025                    -0.0255                  5.527930129533836E-6
0.0025                    -0.0245                  5.4071596723737015E-6
0.0025                    -0.0235                  5.308692635425097E-6
0.0025                    -0.0225                  5.232065787718968E-6
0.0025                    -0.0215                  5.172405036058248E-6
0.0025                    -0.0205                  5.1230119487798705E-6
0.0025                    -0.0195                  5.076699239925916E-6
0.0025                    -0.0185                  5.028177422236128E-6
0.0025                    -0.0175                  4.974762123292481E-6
0.0025                    -0.0165                  4.91662095217344E-6
0.0025                    -0.0155                  4.8561503016382955E-6
0.0025                    -0.0145                  4.796318812770084E-6
0.0025                    -0.0135                  4.742128736095985E-6
0.0025                    -0.0125                  4.701212581502477E-6
0.0025                    -0.0115                  4.689070322376237E-6
0.0025                    -0.0105                  4.7385413598002685E-6
0.0025                    -0.0095                  4.914233982245175E-6
0.0025                    -0.0085                  5.332825804694083E-6
0.0025                    -0.0075                  6.212652895993148E-6
0.0025                    -0.0065                  8.02553299414193E-6
0.0025                    -0.0055                  1.1947063267685776E-5
0.0025                    -0.0045                  2.0899428950829044E-5
0.0025                    -0.0035                  4.284032052579379E-5
0.0025                    -0.0025                  1.049573990845807E-4
0.0025                    -0.0015                  3.364272705565958E-4
0.0025                    -5.0E-4                  9.707254306660093E-4
0.0025                    5.0E-4                   0.002500278708555755
0.0025                    0.0015                   0.005144933377227294
0.0025                    0.0025                   0.008210154194646628
0.0025                    0.0035                   0.010812989323400378
0.0025                    0.0045                   0.01262413667308596
0.0025                    0.0055                   0.013738652910620233
0.0025                    0.0065                   0.014330776251379003
0.0025                    0.0075                   0.014466785486028502
0.0025                    0.0085                   0.014079980892433888
0.0025                    0.0095                   0.013021815944318412
0.0025                    0.0105                   0.011288473014348903
0.0025                    0.0115                   0.009233970792802079
0.0025                    0.0125                   0.007714563804583613
0.0025                    0.0135                   0.008250523114526405
0.0025                    0.0145                   0.012297787929523274
0.0025                    0.0155                   0.018668195459601935
0.0025                    0.0165                   0.023251853975914533
0.0025                    0.0175                   0.022947371606263593
0.0025                    0.0185                   0.018570668949336767
0.0025                    0.0195                   0.012508099328422647
0.0025                    0.0205                   0.006663311930327705
0.0025                    0.0215                   0.0026718956648458052
0.0025                    0.0225                   8.576117413662758E-4
0.0025                    0.0235                   2.666341325167657E-4
0.0025                    0.0245                   7.375913087423342E-5
0.0025                    0.0255                   2.106231017715537E-5
0.0025                    0.0265                   9.061431181705919E-6
0.0025                    0.0275                   5.169776824925058E-6
0.0025                    0.0285                   3.963702261741561E-6
0.0025                    0.0295                   3.502927077500816E-6
0.0025                    0.0305                   4.100594456897578E-6
0.0025                    0.0315                   2.4865109380702397E-6
0.0035                    -0.0315                  3.2348690726619878E-6
0.0035                    -0.0305                  5.884926666764402E-6
0.0035                    -0.0295                  5.808515892279168E-6
0.0035                    -0.0285                  6.171139681347863E-6
0.0035                    -0.0275                  6.16549894813306E-6
0.0035                    -0.0265                  6.059267042990024E-6
0.0035                    -0.0255                  5.892968462723101E-6
0.0035                    -0.0245                  5.7235079364994635E-6
0.0035                    -0.0235                  5.568738685528842E-6
0.0035                    -0.0225                  5.437960551079103E-6
0.0035                    -0.0215                  5.331402083967228E-6
0.0035                    -0.0205                  5.243551241378036E-6
0.0035                    -0.0195                  5.16532357395868E-6
0.0035                    -0.0185                  5.0871871139017194E-6
0.0035                    -0.0175                  5.003091465514034E-6
0.0035                    -0.0165                  4.911896920438125E-6
0.0035                    -0.0155                  4.8168113211577515E-6
0.0035                    -0.0145                  4.724763882443825E-6
0.0035                    -0.0135                  4.64548789152388E-6
0.0035                    -0.0125                  4.593582321756269E-6
0.0035                    -0.0115                  4.595607456043773E-6
0.0035                    -0.0105                  4.704418469920224E-6
0.0035                    -0.0095                  5.028455795153823E-6
0.0035                    -0.0085                  5.7805137731812785E-6
0.0035                    -0.0075                  7.375631785955879E-6
0.0035                    -0.0065                  1.069993166714105E-5
0.0035                    -0.0055                  1.7896476809612405E-5
0.0035                    -0.0045                  3.499825778189349E-5
0.0035                    -0.0035                  7.6915939918536E-5
0.0035                    -0.0025                  1.8216860353737716E-4
0.0035                    -0.0015                  5.727803744691957E-4
0.0035                    -5.0E-4                  0.0018895367878123703
0.0035                    5.0E-4                   0.004898505236590049
0.0035                    0.0015                   0.008834031058673029
0.0035                    0.0025                   0.01201241615122943
0.0035                    0.0035                   0.013882502676539607
0.0035                    0.0045                   0.014837649613396958
0.0035                    0.0055                   0.015403676529733302
0.0035                    0.0065                   0.015938415355653393
0.0035                    0.0075                   0.01660319995181804
0.0035                    0.0085                   0.017277677954284427
0.0035                    0.0095                   0.017587609552852462
0.0035                    0.0105                   0.017143506743946102
0.0035                    0.0115                   0.015991280119307522
0.0035                    0.0125                   0.014912903517962366
0.0035                    0.0135                   0.015222858492403176
0.0035                    0.0145                   0.017616661613874852
0.0035                    0.0155                   0.020722325033845704
0.0035                    0.0165                   0.02209045207209616
0.0035                    0.0175                   0.020095444937913223
0.0035                    0.0185                   0.015229686822686304
0.0035                    0.0195                   0.009399824311643329
0.0035                    0.0205                   0.004484589712540709
0.0035                    0.0215                   0.0016515896807423138
0.0035                    0.0225                   5.469873734916471E-4
0.0035                    0.0235                   1.849253626244407E-4
0.0035                    0.0245                   6.0970720456132606E-5
0.0035                    0.0255                   2.1273243277834717E-5
0.0035                    0.0265                   9.677026480596154E-6
0.0035                    0.0275                   5.5659841825795825E-6
0.0035                    0.0285                   4.114659150506215E-6
0.0035                    0.0295                   3.516412834047985E-6
0.0035                    0.0305                   4.133553135123677E-6
0.0035                    0.0315                   2.5310719860693072E-6
0.0045                    -0.0315                  3.360301062036194E-6
0.0045                    -0.0305                  5.927389539679527E-6
0.0045                    -0.0295                  5.6830161199835105E-6
0.0045                    -0.0285                  6.156747526311551E-6
0.0045                    -0.0275                  6.3048401885043165E-6
0.0045                    -0.0265                  6.308270389060038E-6
0.0045                    -0.0255                  6.186914396005481E-6
0.0045                    -0.0245                  6.01587965598301E-6
0.0045                    -0.0235                  5.833463626614511E-6
0.0045                    -0.0225                  5.664944775729927E-6
0.0045                    -0.0215                  5.521973524453442E-6
0.0045                    -0.0205                  5.405475609939026E-6
0.0045                    -0.0195                  5.307442642394923E-6
0.0045                    -0.0185                  5.214776084706983E-6
0.0045                    -0.0175                  5.115964666350204E-6
0.0045                    -0.0165                  5.007084964966179E-6
0.0045                    -0.0155                  4.8940148852767695E-6
0.0045                    -0.0145                  4.791434019325845E-6
0.0045                    -0.0135                  4.720994935390325E-6
0.0045                    -0.0125                  4.712774310974941E-6
0.0045                    -0.0115                  4.813923786704515E-6
0.0045                    -0.0105                  5.114980790761285E-6
0.0045                    -0.0095                  5.810954831779147E-6
0.0045                    -0.0085                  7.322388908097001E-6
0.0045                    -0.0075                  1.0489164342562754E-5
0.0045                    -0.0065                  1.7103720750023648E-5
0.0045                    -0.0055                  3.202927630579604E-5
0.0045                    -0.0045                  6.821312888250126E-5
0.0045                    -0.0035                  1.7796176566459195E-4
0.0045                    -0.0025                  4.440257653199022E-4
0.0045                    -0.0015                  0.0012107268784624279
0.0045                    -5.0E-4                  0.0037091538960089734
0.0045                    5.0E-4                   0.00829498426380265
0.0045                    0.0015                   0.012526774396727643
0.0045                    0.0025                   0.014436338983470754
0.0045                    0.0035                   0.014454898481507788
0.0045                    0.0045                   0.01363549655411368
0.0045                    0.0055                   0.012810306583866159
0.0045                    0.0065                   0.012589769018532282
0.0045                    0.0075                   0.013252126041928797
0.0045                    0.0085                   0.014688919877124604
0.0045                    0.0095                   0.016435689756958995
0.0045                    0.0105                   0.0177437320496529
0.0045                    0.0115                   0.018038754578962757
0.0045                    0.0125                   0.017553319431571512
0.0045                    0.0135                   0.01728880196168487
0.0045                    0.0145                   0.018022982135252413
0.0045                    0.0155                   0.019095045361807943
0.0045                    0.0165                   0.0188562698976374
0.0045                    0.0175                   0.016144377785363324
0.0045                    0.0185                   0.011455267102103041
0.0045                    0.0195                   0.006460659162452402
0.0045                    0.0205                   0.00277661371106968
0.0045                    0.0215                   9.806312052855024E-4
0.0045                    0.0225                   3.434077608286595E-4
0.0045                    0.0235                   1.2251421382141627E-4
0.0045                    0.0245                   4.6927609652362515E-5
0.0045                    0.0255                   1.9970146786329223E-5
0.0045                    0.0265                   9.655375595382519E-6
0.0045                    0.0275                   5.705481730029224E-6
0.0045                    0.0285                   4.24568944667653E-6
0.0045                    0.0295                   3.6467744762499502E-6
0.0045                    0.0305                   4.267490538722585E-6
0.0045                    0.0315                   2.6018556820150077E-6
0.0055                    -0.0315                  3.4566024765840522E-6
0.0055                    -0.0305                  5.968585145788965E-6
0.0055                    -0.0295                  5.576083643448194E-6
0.0055                    -0.0285                  6.103191341063126E-6
0.0055                    -0.0275                  6.377593982457743E-6
0.0055                    -0.0265                  6.52034348192105E-6
0.0055                    -0.0255                  6.4988436328500605E-6
0.0055                    -0.0245                  6.3783321265205876E-6
0.0055                    -0.0235                  6.2065979703672185E-6
0.0055                    -0.0225                  6.024476170206552E-6
0.0055                    -0.0215                  5.8598214782838894E-6
0.0055                    -0.0205                  5.727589929587932E-6
0.0055                    -0.0195                  5.628128709463018E-6
0.0055                    -0.0185                  5.548326412802813E-6
0.0055                    -0.0175                  5.471337585876478E-6
0.0055                    -0.0165                  5.38963188517746E-6
0.0055                    -0.0155                  5.313990170525932E-6
0.0055                    -0.0145                  5.275799814791378E-6
0.0055                    -0.0135                  5.323476152152735E-6
0.0055                    -0.0125                  5.52085933545888E-6
0.0055                    -0.0115                  5.959401394807116E-6
0.0055                    -0.0105                  6.7940712706285155E-6
0.0055                    -0.0095                  8.361659923118479E-6
0.0055                    -0.0085                  1.1487948039458793E-5
0.0055                    -0.0075                  1.8372563822054294E-5
0.0055                    -0.0065                  3.363147323362535E-5
0.0055                    -0.0055                  6.752298548367808E-5
0.0055                    -0.0045                  1.594477414246424E-4
0.0055                    -0.0035                  4.2484053948687727E-4
0.0055                    -0.0025                  0.0010371906814559107
0.0055                    -0.0015                  0.0027011981896295457
0.0055                    -5.0E-4                  0.0067394569573118205
0.0055                    5.0E-4                   0.01207428764642193
0.0055                    0.0015                   0.015196448354545979
0.0055                    0.0025                   0.014943818277629056
0.0055                    0.0035                   0.012643056495489809
0.0055                    0.0045                   0.009827069135951072
0.0055                    0.0055                   0.007662868451796055
0.0055                    0.0065                   0.006695031082040005
0.0055                    0.0075                   0.006919694730285097
0.0055                    0.0085                   0.00817918392951689
0.0055                    0.0095                   0.010247038954626697
0.0055                    0.0105                   0.012580866177347265
0.0055                    0.0115                   0.014313893164889829
0.0055                    0.0125                   0.01487825580349376
0.0055                    0.0135                   0.014668094625839232
0.0055                    0.0145                   0.014618278332121714
0.0055                    0.0155                   0.014816582602489836
0.0055                    0.0165                   0.01419325425140534
0.0055                    0.0175                   0.01183086123376219
0.0055                    0.0185                   0.00807105422076381
0.0055                    0.0195                   0.004261008514140545
0.0055                    0.0205                   0.0017207667834240026
0.0055                    0.0215                   6.280285071582449E-4
0.0055                    0.0225                   2.4343800321230722E-4
0.0055                    0.0235                   9.317029005299476E-5
0.0055                    0.0245                   3.643057564115786E-5
0.0055                    0.0255                   1.7244136179153023E-5
0.0055                    0.0265                   9.063051124640138E-6
0.0055                    0.0275                   5.65710451819072E-6
0.0055                    0.0285                   4.358157879984198E-6
0.0055                    0.0295                   3.7878599365024025E-6
0.0055                    0.0305                   4.414854139660276E-6
0.0055                    0.0315                   2.6851896865580873E-6
0.0065                    -0.0315                  3.526393476754028E-6
0.0065                    -0.0305                  5.996147462692091E-6
0.0065                    -0.0295                  5.472976334033183E-6
0.0065                    -0.0285                  6.008066378562785E-6
0.0065                    -0.0275                  6.358027843102148E-6
0.0065                    -0.0265                  6.618185579480551E-6
0.0065                    -0.0255                  6.711267189649643E-6
0.0065                    -0.0245                  6.673635962844276E-6
0.0065                    -0.0235                  6.543482511377907E-6
0.0065                    -0.0225                  6.3671907455415924E-6
0.0065                    -0.0215                  6.188076528075504E-6
0.0065                    -0.0205                  6.0429371922374585E-6
0.0065                    -0.0195                  5.952528970565557E-6
0.0065                    -0.0185                  5.915638062773187E-6
0.0065                    -0.0175                  5.917991174323893E-6
0.0065                    -0.0165                  5.953273945833804E-6
0.0065                    -0.0155                  6.047130092671377E-6
0.0065                    -0.0145                  6.274230223044226E-6
0.0065                    -0.0135                  6.7460139031077684E-6
0.0065                    -0.0125                  7.6003627708358855E-6
0.0065                    -0.0115                  9.02796937695869E-6
0.0065                    -0.0105                  1.1296606012175036E-5
0.0065                    -0.0095                  1.499816838806999E-5
0.0065                    -0.0085                  2.2047865910601144E-5
0.0065                    -0.0075                  3.768899285742812E-5
0.0065                    -0.0065                  8.061002850685058E-5
0.0065                    -0.0055                  1.7401778429199322E-4