% Model:              Benchmark260518.mph
% Version:            COMSOL 6.2.0.339
% Date:               May 21 2026, 01:43
% Dimension:          2
% Nodes:              4096
% Expressions:        1
% Description:        速度大小
% Length unit:        m
% x                       y                        spf.U (m/s)
5.0E-4                    -0.0315                  1.7450196009065152E-6
5.0E-4                    -0.0305                  3.4618348796280195E-6
5.0E-4                    -0.0295                  3.830658596477585E-6
5.0E-4                    -0.0285                  4.231644463305763E-6
5.0E-4                    -0.0275                  4.428841801003701E-6
5.0E-4                    -0.0265                  4.630645547626937E-6
5.0E-4                    -0.0255                  4.784726409863877E-6
5.0E-4                    -0.0245                  4.91492652951455E-6
5.0E-4                    -0.0235                  5.032005086537517E-6
5.0E-4                    -0.0225                  5.141826405425637E-6
5.0E-4                    -0.0215                  5.243334054455479E-6
5.0E-4                    -0.0205                  5.334350010156307E-6
5.0E-4                    -0.0195                  5.42499042005917E-6
5.0E-4                    -0.0185                  5.511381648299253E-6
5.0E-4                    -0.0175                  5.597343695469885E-6
5.0E-4                    -0.0165                  5.699527322784514E-6
5.0E-4                    -0.0155                  5.816370189716078E-6
5.0E-4                    -0.0145                  5.963704834085775E-6
5.0E-4                    -0.0135                  6.160950080091924E-6
5.0E-4                    -0.0125                  6.409789326814441E-6
5.0E-4                    -0.0115                  6.757336375103753E-6
5.0E-4                    -0.0105                  7.252426377369E-6
5.0E-4                    -0.0095                  7.980904222496137E-6
5.0E-4                    -0.0085                  9.300645036300222E-6
5.0E-4                    -0.0075                  1.1932315765467525E-5
5.0E-4                    -0.0065                  2.0594616863703438E-5
5.0E-4                    -0.0055                  4.990258026006422E-5
5.0E-4                    -0.0045                  1.4679819201076985E-4
5.0E-4                    -0.0035                  3.0513424577503605E-4
5.0E-4                    -0.0025                  4.3462073790204576E-4
5.0E-4                    -0.0015                  6.95451246216202E-4
5.0E-4                    -5.0E-4                  0.003236137364647406
5.0E-4                    5.0E-4                   0.011507007165118573
5.0E-4                    0.0015                   0.016635314588640152
5.0E-4                    0.0025                   0.014194209748975168
5.0E-4                    0.0035                   0.010596479558938082
5.0E-4                    0.0045                   0.006576500073127353
5.0E-4                    0.0055                   0.003278906540643221
5.0E-4                    0.0065                   0.0012975216536266268
5.0E-4                    0.0075                   5.447072216882237E-4
5.0E-4                    0.0085                   8.088938829247359E-4
5.0E-4                    0.0095                   0.0022476197000414733
5.0E-4                    0.0105                   0.005214131379971278
5.0E-4                    0.0115                   0.009159494755529421
5.0E-4                    0.0125                   0.012553346607814101
5.0E-4                    0.0135                   0.014001433814073464
5.0E-4                    0.0145                   0.012398620236588314
5.0E-4                    0.0155                   0.006083500723864605
5.0E-4                    0.0165                   9.416567301439828E-4
5.0E-4                    0.0175                   2.142083201038213E-4
5.0E-4                    0.0185                   5.459794967986606E-5
5.0E-4                    0.0195                   1.8559143012446903E-5
5.0E-4                    0.0205                   8.572438925466716E-6
5.0E-4                    0.0215                   5.4353337466862785E-6
5.0E-4                    0.0225                   4.3865776849188796E-6
5.0E-4                    0.0235                   3.83858283976759E-6
5.0E-4                    0.0245                   3.543082107879647E-6
5.0E-4                    0.0255                   3.364880692561882E-6
5.0E-4                    0.0265                   3.2346842346369344E-6
5.0E-4                    0.0275                   3.099479859758039E-6
5.0E-4                    0.0285                   2.954620205436647E-6
5.0E-4                    0.0295                   2.688641169892034E-6
5.0E-4                    0.0305                   2.4430437355029572E-6
5.0E-4                    0.0315                   1.225130818715916E-6
0.0015                    -0.0315                  3.422927925889429E-6
0.0015                    -0.0305                  6.676802492798546E-6
0.0015                    -0.0295                  7.030578576371407E-6
0.0015                    -0.0285                  7.4333218805615085E-6
0.0015                    -0.0275                  7.5441058878399875E-6
0.0015                    -0.0265                  7.682414111642337E-6
0.0015                    -0.0255                  7.791366765453056E-6
0.0015                    -0.0245                  7.892083086618886E-6
0.0015                    -0.0235                  7.992180501847858E-6
0.0015                    -0.0225                  8.094958209457261E-6
0.0015                    -0.0215                  8.19663812019152E-6
0.0015                    -0.0205                  8.293754131442482E-6
0.0015                    -0.0195                  8.394558486107896E-6
0.0015                    -0.0185                  8.495833083941134E-6
0.0015                    -0.0175                  8.60326586086119E-6
0.0015                    -0.0165                  8.736217961072877E-6
0.0015                    -0.0155                  8.900569392428465E-6
0.0015                    -0.0145                  9.121183780245272E-6
0.0015                    -0.0135                  9.429369801360438E-6
0.0015                    -0.0125                  9.84565751829254E-6
0.0015                    -0.0115                  1.04394330546542E-5
0.0015                    -0.0105                  1.1303154593291209E-5
0.0015                    -0.0095                  1.2640093721030712E-5
0.0015                    -0.0085                  1.5147604837390895E-5
0.0015                    -0.0075                  2.0839740312361332E-5
0.0015                    -0.0065                  3.83003786712628E-5
0.0015                    -0.0055                  9.421378126704355E-5
0.0015                    -0.0045                  2.733780704281245E-4
0.0015                    -0.0035                  5.866701136534906E-4
0.0015                    -0.0025                  0.0010081245904495235
0.0015                    -0.0015                  0.002628496611415371
0.0015                    -5.0E-4                  0.008422355748679335
0.0015                    5.0E-4                   0.015458306283578613
0.0015                    0.0015                   0.016814879396716855
0.0015                    0.0025                   0.013247692166137246
0.0015                    0.0035                   0.008619728002595627
0.0015                    0.0045                   0.004388781077117621
0.0015                    0.0055                   0.0017681563082769382
0.0015                    0.0065                   6.709372227621349E-4
0.0015                    0.0075                   3.47526915384197E-4
0.0015                    0.0085                   4.525578031987494E-4
0.0015                    0.0095                   0.0012085340386795674
0.0015                    0.0105                   0.0034801408809606352
0.0015                    0.0115                   0.007832651762193023
0.0015                    0.0125                   0.012639865199082823
0.0015                    0.0135                   0.015128363727718626
0.0015                    0.0145                   0.013086855616116394
0.0015                    0.0155                   0.006969093382272079
0.0015                    0.0165                   0.0020162576697046455
0.0015                    0.0175                   4.60832227587932E-4
0.0015                    0.0185                   1.167844036790511E-4
0.0015                    0.0195                   3.9952480275256705E-5
0.0015                    0.0205                   1.7616130903146503E-5
0.0015                    0.0215                   1.0213691408033025E-5
0.0015                    0.0225                   7.548932473892151E-6
0.0015                    0.0235                   6.3722489302741295E-6
0.0015                    0.0245                   5.824540259342474E-6
0.0015                    0.0255                   5.560519926924627E-6
0.0015                    0.0265                   5.421237917036968E-6
0.0015                    0.0275                   5.313821227023309E-6
0.0015                    0.0285                   5.223618829687116E-6
0.0015                    0.0295                   4.948838554248627E-6
0.0015                    0.0305                   4.705077561072196E-6
0.0015                    0.0315                   2.403641968136805E-6
0.0025                    -0.0315                  3.7290548629217967E-6
0.0025                    -0.0305                  6.929066066011316E-6
0.0025                    -0.0295                  6.79058106400433E-6
0.0025                    -0.0285                  6.9420831111198325E-6
0.0025                    -0.0275                  6.8046149101599555E-6
0.0025                    -0.0265                  6.669396164288467E-6
0.0025                    -0.0255                  6.542895556537175E-6
0.0025                    -0.0245                  6.44349491991734E-6
0.0025                    -0.0235                  6.369846833960302E-6
0.0025                    -0.0225                  6.320390332133856E-6
0.0025                    -0.0215                  6.290970965927428E-6
0.0025                    -0.0205                  6.278476181340578E-6
0.0025                    -0.0195                  6.280139837837827E-6
0.0025                    -0.0185                  6.2964167009307905E-6
0.0025                    -0.0175                  6.330833907850902E-6
0.0025                    -0.0165                  6.391055745638376E-6
0.0025                    -0.0155                  6.492418416745893E-6
0.0025                    -0.0145                  6.656206462993336E-6
0.0025                    -0.0135                  6.911096604217335E-6
0.0025                    -0.0125                  7.2963249626331195E-6
0.0025                    -0.0115                  7.865316992264213E-6
0.0025                    -0.0105                  8.726724824016599E-6
0.0025                    -0.0095                  1.016887521107705E-5
0.0025                    -0.0085                  1.3081865042864111E-5
0.0025                    -0.0075                  2.0365002428492248E-5
0.0025                    -0.0065                  4.1045732629983824E-5
0.0025                    -0.0055                  1.04384769463077E-4
0.0025                    -0.0045                  3.1325821118131E-4
0.0025                    -0.0035                  7.446556869130211E-4
0.0025                    -0.0025                  0.0016724523100101626
0.0025                    -0.0015                  0.005154256070129053
0.0025                    -5.0E-4                  0.011686219489557118
0.0025                    5.0E-4                   0.016493362470682144
0.0025                    0.0015                   0.015638246573744623
0.0025                    0.0025                   0.011001420057981267
0.0025                    0.0035                   0.006042756083019088
0.0025                    0.0045                   0.0025517826752855903
0.0025                    0.0055                   9.240314329504515E-4
0.0025                    0.0065                   3.506576233604133E-4
0.0025                    0.0075                   1.969435582835071E-4
0.0025                    0.0085                   2.7018601877559556E-4
0.0025                    0.0095                   7.410596103305609E-4
0.0025                    0.0105                   0.0023123265798261827
0.0025                    0.0115                   0.006244456403330066
0.0025                    0.0125                   0.01195675817518962
0.0025                    0.0135                   0.01587339318273807
0.0025                    0.0145                   0.014327530663401887
0.0025                    0.0155                   0.008015572646375821
0.0025                    0.0165                   0.002625177616597904
0.0025                    0.0175                   6.556679794399987E-4
0.0025                    0.0185                   1.706449949562902E-4
0.0025                    0.0195                   6.019272921691539E-5
0.0025                    0.0205                   2.4715408002249058E-5
0.0025                    0.0215                   1.243693760587728E-5
0.0025                    0.0225                   7.707783552708754E-6
0.0025                    0.0235                   5.857519948327595E-6
0.0025                    0.0245                   5.1303407458394475E-6
0.0025                    0.0255                   4.878781767131759E-6
0.0025                    0.0265                   4.834218536558142E-6
0.0025                    0.0275                   4.8689150784455545E-6
0.0025                    0.0285                   4.934041644684781E-6
0.0025                    0.0295                   4.794115749977844E-6
0.0025                    0.0305                   4.847367676229111E-6
0.0025                    0.0315                   2.594616849767375E-6
0.0035                    -0.0315                  4.1897330252617964E-6
0.0035                    -0.0305                  7.393990550283644E-6
0.0035                    -0.0295                  6.943118383908455E-6
0.0035                    -0.0285                  7.263532486093435E-6
0.0035                    -0.0275                  7.227516606528337E-6
0.0035                    -0.0265                  7.127301938337016E-6
0.0035                    -0.0255                  6.980000166933303E-6
0.0035                    -0.0245                  6.839509460079298E-6
0.0035                    -0.0235                  6.71706126352105E-6
0.0035                    -0.0225                  6.6184651028025155E-6
0.0035                    -0.0215                  6.5431652338581E-6
0.0035                    -0.0205                  6.488739779191026E-6
0.0035                    -0.0195                  6.452653507592889E-6
0.0035                    -0.0185                  6.433543134306156E-6
0.0035                    -0.0175                  6.433156570013117E-6
0.0035                    -0.0165                  6.458689800221754E-6
0.0035                    -0.0155                  6.5247210814787076E-6
0.0035                    -0.0145                  6.655654292337758E-6
0.0035                    -0.0135                  6.887651520740126E-6
0.0035                    -0.0125                  7.2723957313863875E-6
0.0035                    -0.0115                  7.893026704821067E-6
0.0035                    -0.0105                  8.918927243066317E-6
0.0035                    -0.0095                  1.0773528366061405E-5
0.0035                    -0.0085                  1.4651101308943045E-5
0.0035                    -0.0075                  2.395924799454612E-5
0.0035                    -0.0065                  4.8963286935908714E-5
0.0035                    -0.0055                  1.213913812858854E-4
0.0035                    -0.0045                  3.440696986938771E-4
0.0035                    -0.0035                  9.45524502695389E-4
0.0035                    -0.0025                  0.0028000527862633703
0.0035                    -0.0015                  0.007741419653897432
0.0035                    -5.0E-4                  0.01403095806968315
0.0035                    5.0E-4                   0.016460910785177287
0.0035                    0.0015                   0.013449503968632393
0.0035                    0.0025                   0.008076924022425545
0.0035                    0.0035                   0.0037064417970387605
0.0035                    0.0045                   0.0013645369037779606
0.0035                    0.0055                   4.563825929487443E-4
0.0035                    0.0065                   1.671923630005984E-4
0.0035                    0.0075                   1.0738706470275217E-4
0.0035                    0.0085                   1.4978339656707457E-4
0.0035                    0.0095                   4.5238594390764484E-4
0.0035                    0.0105                   0.0015388140702094718
0.0035                    0.0115                   0.00469805454155084
0.0035                    0.0125                   0.010538538710190592
0.0035                    0.0135                   0.01590415119446174
0.0035                    0.0145                   0.015791221681574326
0.0035                    0.0155                   0.00984856626498709
0.0035                    0.0165                   0.003759100882064961
0.0035                    0.0175                   0.0010664376007060992
0.0035                    0.0185                   3.2100984014448667E-4
0.0035                    0.0195                   1.0418974173117098E-4
0.0035                    0.0205                   4.062159573996234E-5
0.0035                    0.0215                   1.8239102892168905E-5
0.0035                    0.0225                   9.975574557454633E-6
0.0035                    0.0235                   6.8309254304840194E-6
0.0035                    0.0245                   5.677028525828643E-6
0.0035                    0.0255                   5.289787163159893E-6
0.0035                    0.0265                   5.198641667597417E-6
0.0035                    0.0275                   5.184309217171468E-6
0.0035                    0.0285                   5.160564757244012E-6
0.0035                    0.0295                   4.8788155457064904E-6
0.0035                    0.0305                   5.089348229001086E-6
0.0035                    0.0315                   2.847142945192188E-6
0.0045                    -0.0315                  4.517207356811034E-6
0.0045                    -0.0305                  7.6508749332725E-6
0.0045                    -0.0295                  6.827451753425447E-6
0.0045                    -0.0285                  7.23255286240135E-6
0.0045                    -0.0275                  7.350835731384266E-6
0.0045                    -0.0265                  7.372166015955635E-6
0.0045                    -0.0255                  7.28276300839066E-6
0.0045                    -0.0245                  7.155894728162932E-6
0.0045                    -0.0235                  7.0222094119927885E-6
0.0045                    -0.0225                  6.900129563961107E-6
0.0045                    -0.0215                  6.796563893376415E-6
0.0045                    -0.0205                  6.713306736291773E-6
0.0045                    -0.0195                  6.649334821199779E-6
0.0045                    -0.0185                  6.603207148659937E-6
0.0045                    -0.0175                  6.575351740091387E-6
0.0045                    -0.0165                  6.571080035603932E-6
0.0045                    -0.0155                  6.604354886762001E-6
0.0045                    -0.0145                  6.701794433054569E-6
0.0045                    -0.0135                  6.908045263733921E-6
0.0045                    -0.0125                  7.296708449482678E-6
0.0045                    -0.0115                  7.999547169507682E-6
0.0045                    -0.0105                  9.288035776115392E-6
0.0045                    -0.0095                  1.1803050802694657E-5
0.0045                    -0.0085                  1.7156718608567677E-5
0.0045                    -0.0075                  2.967606481766473E-5
0.0045                    -0.0065                  6.0817393363499364E-5
0.0045                    -0.0055                  1.4404516653436365E-4
0.0045                    -0.0045                  3.730773454336965E-4
0.0045                    -0.0035                  0.0011933798231756102
0.0045                    -0.0025                  0.004332425708173669
0.0045                    -0.0015                  0.010609109036144511
0.0045                    -5.0E-4                  0.015863480806564193
0.0045                    5.0E-4                   0.015556483847058634
0.0045                    0.0015                   0.010650887446397887
0.0045                    0.0025                   0.005297074972455213
0.0045                    0.0035                   0.002087853322626466
0.0045                    0.0045                   7.361575216787804E-4
0.0045                    0.0055                   2.4136933399714476E-4
0.0045                    0.0065                   9.145034303911877E-5
0.0045                    0.0075                   6.621467768300535E-5
0.0045                    0.0085                   1.0220660181068453E-4
0.0045                    0.0095                   3.150117183150694E-4
0.0045                    0.0105                   0.001034943365785953
0.0045                    0.0115                   0.0032906362326861893
0.0045                    0.0125                   0.008543878060574389
0.0045                    0.0135                   0.014965674970876487
0.0045                    0.0145                   0.016958994958905727
0.0045                    0.0155                   0.012238490341563992
0.0045                    0.0165                   0.005581208070820435
0.0045                    0.0175                   0.001849652729043856
0.0045                    0.0185                   6.253520723887915E-4
0.0045                    0.0195                   2.0401887029433688E-4
0.0045                    0.0205                   7.060321289700104E-5
0.0045                    0.0215                   2.8256049192811783E-5
0.0045                    0.0225                   1.3381872859447502E-5
0.0045                    0.0235                   8.148274091905999E-6
0.0045                    0.0245                   6.290777760252126E-6
0.0045                    0.0255                   5.639351052556857E-6
0.0045                    0.0265                   5.41352067993175E-6
0.0045                    0.0275                   5.276709719671909E-6
0.0045                    0.0285                   5.1250800669407035E-6
0.0045                    0.0295                   4.7646741423697205E-6
0.0045                    0.0305                   5.174792887113194E-6
0.0045                    0.0315                   2.9985374739669767E-6
0.0055                    -0.0315                  4.799770919150033E-6
0.0055                    -0.0305                  7.885695959048587E-6
0.0055                    -0.0295                  6.7122745306072665E-6
0.0055                    -0.0285                  7.132487153711143E-6
0.0055                    -0.0275                  7.364343772767292E-6
0.0055                    -0.0265                  7.5297481970420166E-6
0.0055                    -0.0255                  7.54991654289054E-6
0.0055                    -0.0245                  7.487927312787505E-6
0.0055                    -0.0235                  7.383919740420245E-6
0.0055                    -0.0225                  7.269042922388426E-6
0.0055                    -0.0215                  7.159670392234123E-6
0.0055                    -0.0205                  7.063950309444359E-6
0.0055                    -0.0195                  6.984620844715538E-6
0.0055                    -0.0185                  6.921601879680145E-6
0.0055                    -0.0175                  6.874549360095521E-6
0.0055                    -0.0165                  6.846592135990633E-6
0.0055                    -0.0155                  6.849810528487575E-6
0.0055                    -0.0145                  6.9129831751640374E-6
0.0055                    -0.0135                  7.0936119380818395E-6
0.0055                    -0.0125                  7.501916592466807E-6
0.0055                    -0.0115                  8.357035290986652E-6
0.0055                    -0.0105                  1.0127337202471307E-5
0.0055                    -0.0095                  1.3881465247878913E-5
0.0055                    -0.0085                  2.2229305770171654E-5
0.0055                    -0.0075                  4.1710253491748336E-5
0.0055                    -0.0065                  9.039132347512748E-5
0.0055                    -0.0055                  2.2053751019509841E-4
0.0055                    -0.0045                  6.345304280486188E-4
0.0055                    -0.0035                  0.0020669232886057847
0.0055                    -0.0025                  0.006719307850747112
0.0055                    -0.0015                  0.013708963389544646
0.0055                    -5.0E-4                  0.016988527361257773
0.0055                    5.0E-4                   0.013783538889813917
0.0055                    0.0015                   0.007706714330685701
0.0055                    0.0025                   0.0031823507107360213
0.0055                    0.0035                   0.0011467963063256426
0.0055                    0.0045                   4.008189102636419E-4
0.0055                    0.0055                   1.406148156336704E-4
0.0055                    0.0065                   6.0462489908537117E-5
0.0055                    0.0075                   4.4557947678519325E-5
0.0055                    0.0085                   7.082549384153384E-5
0.0055                    0.0095                   1.9538299381384255E-4
0.0055                    0.0105                   6.493860332248281E-4
0.0055                    0.0115                   0.0021411132117598293
0.0055                    0.0125                   0.006291924021553621
0.0055                    0.0135                   0.012980378044820539
0.0055                    0.0145                   0.017237739667487616
0.0055                    0.0155                   0.014729091615203372
0.0055                    0.0165                   0.00815926564696732
0.0055                    0.0175                   0.003145188774375577
0.0055                    0.0185                   0.0010981104312229714
0.0055                    0.0195                   3.8968148287061617E-4
0.0055                    0.0205                   1.2843045063391242E-4
0.0055                    0.0215                   4.320977810995076E-5
0.0055                    0.0225                   1.7957588947000795E-5
0.0055                    0.0235                   9.899927545991916E-6
0.0055                    0.0245                   7.052075928373704E-6
0.0055                    0.0255                   5.996443158480011E-6
0.0055                    0.0265                   5.563712211503186E-6
0.0055                    0.0275                   5.2778244866512995E-6
0.0055                    0.0285                   5.028614329844485E-6
0.0055                    0.0295                   4.647737368711526E-6
0.0055                    0.0305                   5.269932906899998E-6
0.0055                    0.0315                   3.1422771039750167E-6
0.0065                    -0.0315                  5.01447255161732E-6
0.0065                    -0.0305                  8.0637774262104E-6
0.0065                    -0.0295                  6.5926555596964515E-6
0.0065                    -0.0285                  6.977026678986083E-6
0.0065                    -0.0275                  7.258310496136971E-6
0.0065                    -0.0265                  7.530900909834668E-6
0.0065                    -0.0255                  7.662342448041441E-6
0.0065                    -0.0245                  7.687407055521257E-6
0.0065                    -0.0235                  7.639047212700386E-6
0.0065                    -0.0225                  7.553699412382387E-6
0.0065                    -0.0215                  7.455657141833274E-6
0.0065                    -0.0205                  7.36007481576969E-6
0.0065                    -0.0195                  7.274932496828196E-6
0.0065                    -0.0185                  7.203407917984085E-6
0.0065                    -0.0175                  7.146044501371352E-6
0.0065                    -0.0165                  7.104479055684281E-6
0.0065                    -0.0155                  7.088791778331885E-6
0.0065                    -0.0145                  7.130725911084665E-6
0.0065                    -0.0135                  7.3072191601020685E-6
0.0065                    -0.0125                  7.78834004238321E-6
0.0065                    -0.0115                  8.948243180451458E-6
0.0065                    -0.0105                  1.1616727460317711E-5
0.0065                    -0.0095                  1.7740179759113217E-5
0.0065                    -0.0085                  3.190800566228962E-5
0.0065                    -0.0075                  6.677044207702124E-5
0.0065                    -0.0065                  1.5710684114762438E-4
0.0065                    -0.0055                  4.452682150556679E-4