% Model:              Benchmark260518.mph
% Version:            COMSOL 6.2.0.339
% Date:               May 21 2026, 04:41
% Dimension:          2
% Nodes:              4096
% Expressions:        1
% Description:        速度大小
% Length unit:        m
% x                       y                        spf.U (m/s)
% mirrored_by_python_y_to_minus_y, coord_match_decimals=12
0.0005 -0.0315 1.30638807943e-06
0.0005 -0.0305 2.61331306629e-06
0.0005 -0.0295 2.8991983944e-06
0.0005 -0.0285 3.21696809012e-06
0.0005 -0.0275 3.40579006367e-06
0.0005 -0.0265 3.59155612522e-06
0.0005 -0.0255 3.78940269155e-06
0.0005 -0.0245 4.07153594191e-06
0.0005 -0.0235 4.61228393983e-06
0.0005 -0.0225 5.47519620052e-06
0.0005 -0.0215 7.9642015319e-06
0.0005 -0.0205 1.64074063511e-05
0.0005 -0.0195 4.40427432725e-05
0.0005 -0.0185 0.000167096288061
0.0005 -0.0175 0.000493320941799
0.0005 -0.0165 0.00216712208838
0.0005 -0.0155 0.00929948672498
0.0005 -0.0145 0.014382790744
0.0005 -0.0135 0.012336775841
0.0005 -0.0125 0.00863679947448
0.0005 -0.0115 0.004578913215
0.0005 -0.0105 0.00176206701526
0.0005 -0.0095 0.00049758652401
0.0005 -0.0085 0.000178965974298
0.0005 -0.0075 0.000297785948907
0.0005 -0.0065 0.00113633474081
0.0005 -0.0055 0.00401914192848
0.0005 -0.0045 0.00920913142522
0.0005 -0.0035 0.0157281566823
0.0005 -0.0025 0.0217612212035
0.0005 -0.0015 0.0262573487072
0.0005 -0.0005 0.0189090207439
0.0005 0.0005 0.00596177538411
0.0005 0.0015 0.000988983695605
0.0005 0.0025 0.000887761223283
0.0005 0.0035 0.000882366158597
0.0005 0.0045 0.000600931909908
0.0005 0.0055 0.00026348628495
0.0005 0.0065 0.000103587744008
0.0005 0.0075 7.22337424568e-05
0.0005 0.0085 3.8645755233e-05
0.0005 0.0095 2.06070045533e-05
0.0005 0.0105 1.16267005566e-05
0.0005 0.0115 7.84506000898e-06
0.0005 0.0125 6.40304617e-06
0.0005 0.0135 5.61709828342e-06
0.0005 0.0145 5.16735677028e-06
0.0005 0.0155 4.87630736965e-06
0.0005 0.0165 4.65078697293e-06
0.0005 0.0175 4.4823102777e-06
0.0005 0.0185 4.35393964346e-06
0.0005 0.0195 4.23797450389e-06
0.0005 0.0205 4.13661230218e-06
0.0005 0.0215 4.05014671736e-06
0.0005 0.0225 3.96682126573e-06
0.0005 0.0235 3.88074334312e-06
0.0005 0.0245 3.78513413913e-06
0.0005 0.0255 3.67680365491e-06
0.0005 0.0265 3.55455547894e-06
0.0005 0.0275 3.39680111273e-06
0.0005 0.0285 3.19678221231e-06
0.0005 0.0295 2.85193589128e-06
0.0005 0.0305 2.51763473228e-06
0.0005 0.0315 1.23852510538e-06
0.0015 -0.0315 2.55252023013e-06
0.0015 -0.0305 5.02248976069e-06
0.0015 -0.0295 5.33215295791e-06
0.0015 -0.0285 5.66583134611e-06
0.0015 -0.0275 5.79895872137e-06
0.0015 -0.0265 5.9612247898e-06
0.0015 -0.0255 6.19166257424e-06
0.0015 -0.0245 6.63477490645e-06
0.0015 -0.0235 7.60959122151e-06
0.0015 -0.0225 9.67273068281e-06
0.0015 -0.0215 1.54484815744e-05
0.0015 -0.0205 3.33997433108e-05
0.0015 -0.0195 9.14869103e-05
0.0015 -0.0185 0.000354163669089
0.0015 -0.0175 0.00120960733396
0.0015 -0.0165 0.00503226343812
0.0015 -0.0155 0.0118625411288
0.0015 -0.0145 0.0146112289161
0.0015 -0.0135 0.011292686211
0.0015 -0.0125 0.00626928982018
0.0015 -0.0115 0.00241167985282
0.0015 -0.0105 0.000755758650339
0.0015 -0.0095 0.000268534976026
0.0015 -0.0085 0.000135380530538
0.0015 -0.0075 0.00023585194203
0.0015 -0.0065 0.000734267611661
0.0015 -0.0055 0.00240531798309
0.0015 -0.0045 0.00643949992905
0.0015 -0.0035 0.0128177149642
0.0015 -0.0025 0.0197944334575
0.0015 -0.0015 0.0257640358773
0.0015 -0.0005 0.0255552219311
0.0015 0.0005 0.0166206210227
0.0015 0.0015 0.00662201096774
0.0015 0.0025 0.00134724010237
0.0015 0.0035 0.00101267111634
0.0015 0.0045 0.00125329801446
0.0015 0.0055 0.000807325159504
0.0015 0.0065 0.000315612917265
0.0015 0.0075 0.000159782815056
0.0015 0.0085 9.45648458785e-05
0.0015 0.0095 4.91564971485e-05
0.0015 0.0105 2.55541274049e-05
0.0015 0.0115 1.49134677454e-05
0.0015 0.0125 1.07139715712e-05
0.0015 0.0135 8.84674105351e-06
0.0015 0.0145 7.89921148735e-06
0.0015 0.0155 7.35155282906e-06
0.0015 0.0165 6.98929925409e-06
0.0015 0.0175 6.75060620083e-06
0.0015 0.0185 6.59099986898e-06
0.0015 0.0195 6.46679825875e-06
0.0015 0.0205 6.36981721372e-06
0.0015 0.0215 6.29586754768e-06
0.0015 0.0225 6.23199071728e-06
0.0015 0.0235 6.17179321374e-06
0.0015 0.0245 6.10981434446e-06
0.0015 0.0255 6.04450152001e-06
0.0015 0.0265 5.97573267169e-06
0.0015 0.0275 5.87680039298e-06
0.0015 0.0285 5.73431219914e-06
0.0015 0.0295 5.33443109913e-06
0.0015 0.0305 4.8668438492e-06
0.0015 0.0315 2.41601201066e-06
0.0025 -0.0315 2.72698427932e-06
0.0025 -0.0305 5.14565442823e-06
0.0025 -0.0295 5.15838396457e-06
0.0025 -0.0285 5.31336804319e-06
0.0025 -0.0275 5.23904799405e-06
0.0025 -0.0265 5.20544245832e-06
0.0025 -0.0255 5.3031425811e-06
0.0025 -0.0245 5.74832458519e-06
0.0025 -0.0235 7.01958944429e-06
0.0025 -0.0225 1.05038957198e-05
0.0025 -0.0215 1.9917992843e-05
0.0025 -0.0205 4.75931587916e-05
0.0025 -0.0195 0.000134027591744
0.0025 -0.0185 0.000514209914717
0.0025 -0.0175 0.00205310834063
0.0025 -0.0165 0.00676767016968
0.0025 -0.0155 0.0129528438344
0.0025 -0.0145 0.0140983295523
0.0025 -0.0135 0.00954303827207
0.0025 -0.0125 0.00441782061343
0.0025 -0.0115 0.00154113616538
0.0025 -0.0105 0.000523244553804
0.0025 -0.0095 0.000183490475271
0.0025 -0.0085 0.000107777356888
0.0025 -0.0075 0.000175957019757
0.0025 -0.0065 0.000459487928753
0.0025 -0.0055 0.00136105502602
0.0025 -0.0045 0.00389660660076
0.0025 -0.0035 0.00902101460532
0.0025 -0.0025 0.0159658503869
0.0025 -0.0015 0.0229910626583
0.0025 -0.0005 0.0265512181449
0.0025 0.0005 0.0238474323685
0.0025 0.0015 0.0165895068041
0.0025 0.0025 0.0088072256521
0.0025 0.0035 0.00326653335221
0.0025 0.0045 0.000727854151242
0.0025 0.0055 0.00101050945582
0.0025 0.0065 0.000563958981444
0.0025 0.0075 0.000231015228595
0.0025 0.0085 0.000156044515018
0.0025 0.0095 8.49049949468e-05
0.0025 0.0105 3.67188583829e-05
0.0025 0.0115 1.71748253061e-05
0.0025 0.0125 9.8887306815e-06
0.0025 0.0135 6.98522866291e-06
0.0025 0.0145 5.68221471865e-06
0.0025 0.0155 5.03904219414e-06
0.0025 0.0165 4.72008139236e-06
0.0025 0.0175 4.57756351734e-06
0.0025 0.0185 4.53507821511e-06
0.0025 0.0195 4.55009255629e-06
0.0025 0.0205 4.59840476567e-06
0.0025 0.0215 4.66894653057e-06
0.0025 0.0225 4.75817628298e-06
0.0025 0.0235 4.86559621628e-06
0.0025 0.0245 4.99284112133e-06
0.0025 0.0255 5.1397614358e-06
0.0025 0.0265 5.30135185169e-06
0.0025 0.0275 5.44673409405e-06
0.0025 0.0285 5.53115330952e-06
0.0025 0.0295 5.27240473382e-06
0.0025 0.0305 4.89295935264e-06
0.0025 0.0315 2.45879905967e-06
0.0035 -0.0315 3.00121206949e-06
0.0035 -0.0305 5.41553334963e-06
0.0035 -0.0295 5.26506166527e-06
0.0035 -0.0285 5.5643497455e-06
0.0035 -0.0275 5.57655289942e-06
0.0035 -0.0265 5.59583159545e-06
0.0035 -0.0255 5.77904034836e-06
0.0035 -0.0245 6.49741224504e-06
0.0035 -0.0235 8.61094282426e-06
0.0035 -0.0225 1.45209270704e-05
0.0035 -0.0215 3.17522819923e-05
0.0035 -0.0205 8.32279934296e-05
0.0035 -0.0195 0.000266375544569
0.0035 -0.0185 0.000921278764851
0.0035 -0.0175 0.00335802905487
0.0035 -0.0165 0.00888104393439
0.0035 -0.0155 0.0139996518088
0.0035 -0.0145 0.0131148449796
0.0035 -0.0135 0.00766076722066
0.0035 -0.0125 0.00306718490084
0.0035 -0.0115 0.000998618072176
0.0035 -0.0105 0.000306364174068
0.0035 -0.0095 0.000103375843111
0.0035 -0.0085 7.28470156244e-05
0.0035 -0.0075 0.000111059214989
0.0035 -0.0065 0.000254767899868
0.0035 -0.0055 0.000732151999622
0.0035 -0.0045 0.00208524748775
0.0035 -0.0035 0.00536336773191
0.0035 -0.0025 0.0109737308938
0.0035 -0.0015 0.0180951429884
0.0035 -0.0005 0.024099815941
0.0035 0.0005 0.0261794782316
0.0035 0.0015 0.0238458388992
0.0035 0.0025 0.0183648764304
0.0035 0.0035 0.0117448941414
0.0035 0.0045 0.00583905751717
0.0035 0.0055 0.00212367225519
0.0035 0.0065 0.000852337563688
0.0035 0.0075 0.000432608105596
0.0035 0.0085 0.000291192315335
0.0035 0.0095 0.000149637293391
0.0035 0.0105 5.65329120339e-05
0.0035 0.0115 2.41744843575e-05
0.0035 0.0125 1.27256844867e-05
0.0035 0.0135 8.07379150462e-06
0.0035 0.0145 6.00498988876e-06
0.0035 0.0155 5.04635413604e-06
0.0035 0.0165 4.620287781e-06
0.0035 0.0175 4.46770612112e-06
0.0035 0.0185 4.46191903222e-06
0.0035 0.0195 4.53616054392e-06
0.0035 0.0205 4.65508480411e-06
0.0035 0.0215 4.80141369402e-06
0.0035 0.0225 4.9683548161e-06
0.0035 0.0235 5.15414641849e-06
0.0035 0.0245 5.35723851865e-06
0.0035 0.0255 5.57004907679e-06
0.0035 0.0265 5.77297191067e-06
0.0035 0.0275 5.90358275051e-06
0.0035 0.0285 5.88197452802e-06
0.0035 0.0295 5.41274595235e-06
0.0035 0.0305 4.95682565876e-06
0.0035 0.0315 2.52878523756e-06
0.0045 -0.0315 3.18725607841e-06
0.0045 -0.0305 5.54229858404e-06
0.0045 -0.0295 5.17212568526e-06
0.0045 -0.0285 5.54996679977e-06
0.0045 -0.0275 5.69542123428e-06
0.0045 -0.0265 5.86034094756e-06
0.0045 -0.0255 6.25848064118e-06
0.0045 -0.0245 7.48676295979e-06
0.0045 -0.0235 1.09748608272e-05
0.0045 -0.0225 2.07298511016e-05
0.0045 -0.0215 5.13430347324e-05
0.0045 -0.0205 0.000162685777973
0.0045 -0.0195 0.000540199113774
0.0045 -0.0185 0.00168462892797
0.0045 -0.0175 0.0051688293897
0.0045 -0.0165 0.0110749469395
0.0045 -0.0155 0.0145323568341
0.0045 -0.0145 0.0115830177648
0.0045 -0.0135 0.00577093914979
0.0045 -0.0125 0.0020198107752
0.0045 -0.0115 0.000617961824356
0.0045 -0.0105 0.000188808165963
0.0045 -0.0095 7.19715619917e-05
0.0045 -0.0085 5.05111033336e-05
0.0045 -0.0075 6.96001390294e-05
0.0045 -0.0065 0.000144032239806
0.0045 -0.0055 0.000379001524112
0.0045 -0.0045 0.00102214078084
0.0045 -0.0035 0.00267989897892
0.0045 -0.0025 0.00616978778961
0.0045 -0.0015 0.0118733543739
0.0045 -0.0005 0.0185550695149
0.0045 0.0005 0.0237009309689
0.0045 0.0015 0.0256824569885
0.0045 0.0025 0.0242925589313
0.0045 0.0035 0.0200827197305
0.0045 0.0045 0.0140780479998
0.0045 0.0055 0.00783844634547
0.0045 0.0065 0.00330416537462
0.0045 0.0075 0.00125952564831
0.0045 0.0085 0.000607570754306
0.0045 0.0095 0.000263509925333
0.0045 0.0105 8.76510012528e-05
0.0045 0.0115 3.62867293876e-05
0.0045 0.0125 1.79147651984e-05
0.0045 0.0135 1.01413042746e-05
0.0045 0.0145 6.72229509418e-06
0.0045 0.0155 5.23199408052e-06
0.0045 0.0165 4.60957429507e-06
0.0045 0.0175 4.40810697323e-06
0.0045 0.0185 4.42111772625e-06
0.0045 0.0195 4.54556769493e-06
0.0045 0.0205 4.72812010298e-06
0.0045 0.0215 4.94243686801e-06
0.0045 0.0225 5.17638151498e-06
0.0045 0.0235 5.42291200683e-06
0.0045 0.0245 5.67285166492e-06
0.0045 0.0255 5.90607913042e-06
0.0045 0.0265 6.08360127403e-06
0.0045 0.0275 6.12173515221e-06
0.0045 0.0285 5.94923346379e-06
0.0045 0.0295 5.34858783635e-06
0.0045 0.0305 4.93791221669e-06
0.0045 0.0315 2.57043348813e-06
0.0055 -0.0315 3.34227925408e-06
0.0055 -0.0305 5.66314177044e-06
0.0055 -0.0295 5.09240050052e-06
0.0055 -0.0285 5.49255142819e-06
0.0055 -0.0275 5.74697036202e-06
0.0055 -0.0265 6.10210288163e-06
0.0055 -0.0255 6.83718498181e-06
0.0055 -0.0245 8.85591605362e-06
0.0055 -0.0235 1.44823231328e-05
0.0055 -0.0225 3.1008427634e-05
0.0055 -0.0215 8.06576661161e-05
0.0055 -0.0205 0.000283646150315
0.0055 -0.0195 0.000937204748792
0.0055 -0.0185 0.00285834788072
0.0055 -0.0175 0.00743427714803
0.0055 -0.0165 0.0129866693923
0.0055 -0.0155 0.0141730540539
0.0055 -0.0145 0.0094965991182
0.0055 -0.0135 0.00400262010411
0.0055 -0.0125 0.00127336870845
0.0055 -0.0115 0.000373722081418
0.0055 -0.0105 0.000111382743579
0.0055 -0.0095 4.9837618651e-05
0.0055 -0.0085 3.64400206479e-05
0.0055 -0.0075 4.94123730713e-05
0.0055 -0.0065 9.26091557938e-05
0.0055 -0.0055 0.000194912393766
0.0055 -0.0045 0.000481381777889
0.0055 -0.0035 0.0011896250804
0.0055 -0.0025 0.00281366704618
0.0055 -0.0015 0.0061484959643
0.0055 -0.0005 0.0114317629517
0.0055 0.0005 0.0174593416491
0.0055 0.0015 0.0223481872432
0.0055 0.0025 0.0247983395606
0.0055 0.0035 0.0243104944898
0.0055 0.0045 0.0209291078219
0.0055 0.0055 0.0152212849613
0.0055 0.0065 0.00871047098072
0.0055 0.0075 0.00377606697718
0.0055 0.0085 0.00139658113721
0.0055 0.0095 0.000492393301458
0.0055 0.0105 0.000157209061896
0.0055 0.0115 6.75550445914e-05
0.0055 0.0125 2.9841805061e-05
0.0055 0.0135 1.46048600846e-05
0.0055 0.0145 8.52312785609e-06
0.0055 0.0155 5.99614590803e-06
0.0055 0.0165 4.96786591223e-06
0.0055 0.0175 4.62245165316e-06
0.0055 0.0185 4.60726534048e-06
0.0055 0.0195 4.75452906263e-06
0.0055 0.0205 4.98091320967e-06
0.0055 0.0215 5.24483206898e-06
0.0055 0.0225 5.52421192506e-06
0.0055 0.0235 5.80282392921e-06
0.0055 0.0245 6.06083110308e-06
0.0055 0.0255 6.26527565908e-06
0.0055 0.0265 6.36575746149e-06
0.0055 0.0275 6.28300008155e-06
0.0055 0.0285 5.98725100315e-06
0.0055 0.0295 5.31923459348e-06
0.0055 0.0305 4.96166090284e-06
0.0055 0.0315 2.61930724915e-06
0.0065 -0.0315 3.48316647023e-06
0.0065 -0.0305 5.78285398111e-06
0.0065 -0.0295 5.02143955431e-06
0.0065 -0.0285 5.40747475022e-06
0.0065 -0.0275 5.73312602089e-06
0.0065 -0.0265 6.28303071854e-06
0.0065 -0.0255 7.45444251231e-06
0.0065 -0.0245 1.05228961224e-05
0.0065 -0.0235 1.91208745647e-05
0.0065 -0.0225 4.63982408093e-05
0.0065 -0.0215 0.000142380002505
0.0065 -0.0205 0.000482300407586
0.0065 -0.0195 0.00153060946343
0.0065 -0.0185 0.00450949425371
0.0065 -0.0175 0.00987491427773
0.0065 -0.0165 0.0141310911272
0.0065 -0.0155 0.0127757796105
0.0065 -0.0145 0.00713578667605
0.0065 -0.0135 0.00256167603933
0.0065 -0.0125 0.000763479160961
0.0065 -0.0115 0.000224865776867
0.0065 -0.0105 7.60276190132e-05
0.0065 -0.0095 3.57596434165e-05
0.0065 -0.0085 2.71442623745e-05
0.0065 -0.0075 3.43824636015e-05
0.0065 -0.0065 5.6232037477e-05
0.0065 -0.0055 0.000102890452383
0.0065 -0.0045 0.000221478509825
0.0065 -0.0035 0.000500451889506
0.0065 -0.0025 0.00112042701018
0.0065 -0.0015 0.00252555245325
0.0065 -0.0005 0.00536346119962
0.0065 0.0005 0.0098902712656
0.0065 0.0015 0.0153814579199
0.0065 0.0025 0.0204116833139
0.0065 0.0035 0.0235703263633
0.0065 0.0045 0.0239056260975
0.0065 0.0055 0.0210415481539
0.0065 0.0065 0.0153044640915
0.0065 0.0075 0.00849348923763
0.0065 0.0085 0.00342593227756
0.0065 0.0095 0.00113347085225
0.0065 0.0105 0.00041537586455
0.0065 0.0115 0.000160989347439
0.0065 0.0125 5.68291382568e-05
0.0065 0.0135 2.39590483399e-05
0.0065 0.0145 1.2123062044e-05
0.0065 0.0155 7.57596895356e-06
0.0065 0.0165 5.72503003696e-06
0.0065 0.0175 5.04210436202e-06
0.0065 0.0185 4.90382672954e-06
0.0065 0.0195 5.02688897458e-06
0.0065 0.0205 5.27107824851e-06
0.0065 0.0215 5.56597082778e-06
0.0065 0.0225 5.87216794728e-06
0.0065 0.0235 6.16054235182e-06
0.0065 0.0245 6.40057483542e-06
0.0065 0.0255 6.55186131655e-06
0.0065 0.0265 6.56615904776e-06
0.0065 0.0275 6.38478110026e-06
0.0065 0.0285 6.01282920674e-06
0.0065 0.0295 5.31640598968e-06
0.0065 0.0305 5.00741415864e-06
0.0065 0.0315 2.67059824066e-06
0.0075 -0.0315 3.61984661345e-06
0.0075 -0.0305 5.91353597577e-06
0.0075 -0.0295 4.97892715345e-06
0.0075 -0.0285 5.33963156416e-06
0.0075 -0.0275 5.71972305305e-06
0.0075 -0.0265 6.47545502114e-06
0.0075 -0.0255 8.19401830903e-06
0.0075 -0.0245 1.26460467928e-05
0.0075 -0.0235 2.51336347948e-05
0.0075 -0.0225 6.46237964971e-05
0.0075 -0.0215 0.00023049781442
0.0075 -0.0205 0.000781741276036
0.0075 -0.0195 0.00246209319479
0.0075 -0.0185 0.0065840272142
0.0075 -0.0175 0.0120363011861
0.0075 -0.0165 0.0142027793042
0.0075 -0.0155 0.0105955101187
0.0075 -0.0145 0.00494517359977
0.0075 -0.0135 0.00160648248322
0.0075 -0.0125 0.000466001663753
0.0075 -0.0115 0.000132168143448
0.0075 -0.0105 5.29070772462e-05
0.0075 -0.0095 2.69382676716e-05
0.0075 -0.0085 2.05418789963e-05
0.0075 -0.0075 2.3846129773e-05
0.0075 -0.0065 3.54623393985e-05
0.0075 -0.0055 5.82625698308e-05
0.0075 -0.0045 0.000105854131575
0.0075 -0.0035 0.000194887429971
0.0075 -0.0025 0.000420530174645
0.0075 -0.0015 0.000948208873922
0.0075 -0.0005 0.00203801015353
0.0075 0.0005 0.00421719296894
0.0075 0.0015 0.00796926316692
0.0075 0.0025 0.013125752032
0.0075 0.0035 0.0185779651909
0.0075 0.0045 0.0225940452054
0.0075 0.0055 0.0236372467997
0.0075 0.0065 0.0208490571297
0.0075 0.0075 0.0145565121574
0.0075 0.0085 0.00737630995005
0.0075 0.0095 0.0027531668277
0.0075 0.0105 0.00100661910828
0.0075 0.0115 0.00038627165945
0.0075 0.0125 0.000126024887545
0.0075 0.0135 4.42221132521e-05
0.0075 0.0145 1.95353126701e-05
0.0075 0.0155 1.0706246261e-05
0.0075 0.0165 7.21080569854e-06
0.0075 0.0175 5.8044511852e-06
0.0075 0.0185 5.36771231919e-06
0.0075 0.0195 5.38379372094e-06
0.0075 0.0205 5.60381944487e-06
0.0075 0.0215 5.90454569428e-06
0.0075 0.0225 6.21759763312e-06
0.0075 0.0235 6.4975134367e-06
0.0075 0.0245 6.70508105509e-06
0.0075 0.0255 6.79898157038e-06
0.0075 0.0265 6.74051059374e-06
0.0075 0.0275 6.48981242267e-06
0.0075 0.0285 6.07052773827e-06
0.0075 0.0295 5.35805118411e-06
0.0075 0.0305 5.07970939644e-06
0.0075 0.0315 2.72675527903e-06
0.0085 -0.0315 3.74301405747e-06
0.0085 -0.0305 6.04505764182e-06
0.0085 -0.0295 4.96729696583e-06
0.0085 -0.0285 5.30442231008e-06
0.0085 -0.0275 5.74252111656e-06
0.0085 -0.0265 6.74030198035e-06
0.0085 -0.0255 9.15331860063e-06
0.0085 -0.0245 1.55634096578e-05
0.0085 -0.0235 3.42196332821e-05
0.0085 -0.0225 9.01490605858e-05
0.0085 -0.0215 0.000332359749497
0.0085 -0.0205 0.00118165247466
0.0085 -0.0195 0.00376226254168
0.0085 -0.0185 0.0088281868369
0.0085 -0.0175 0.013502723662
0.0085 -0.0165 0.0132318252907
0.0085 -0.0155 0.00815935194983
0.0085 -0.0145 0.00323475676467
0.0085 -0.0135 0.00103403753294
0.0085 -0.0125 0.000316476577753
0.0085 -0.0115 9.32577653804e-05
0.0085 -0.0105 3.82862824973e-05
0.0085 -0.0095 2.10106121831e-05
0.0085 -0.0085 1.61844961805e-05
0.0085 -0.0075 1.7434764197e-05
0.0085 -0.0065 2.35801984069e-05
0.0085 -0.0055 3.53789887881e-05
0.0085 -0.0045 5.36973018375e-05
0.0085 -0.0035 8.22947879466e-05
0.0085 -0.0025 0.000159104624446
0.0085 -0.0015 0.000367784620406
0.0085 -0.0005 0.000768138789628
0.0085 0.0005 0.00153841093584
0.0085 0.0015 0.00318383698734
0.0085 0.0025 0.00640594143085
0.0085 0.0035 0.0115681698065
0.0085 0.0045 0.0177200719512
0.0085 0.0055 0.0225392392587
0.0085 0.0065 0.0237269907651
0.0085 0.0075 0.0201080523239
0.0085 0.0085 0.0128170313482
0.0085 0.0095 0.00585999620448
0.0085 0.0105 0.00215174829066
0.0085 0.0115 0.000811329164974
0.0085 0.0125 0.000291168149459
0.0085 0.0135 9.60315759627e-05
0.0085 0.0145 3.54710100261e-05
0.0085 0.0155 1.68668386078e-05
0.0085 0.0165 9.85665022223e-06
0.0085 0.0175 7.09791874526e-06
0.0085 0.0185 6.0896298718e-06
0.0085 0.0195 5.85940545775e-06
0.0085 0.0205 5.98440904575e-06
0.0085 0.0215 6.25285907738e-06
0.0085 0.0225 6.55104179011e-06
0.0085 0.0235 6.81117325473e-06
0.0085 0.0245 6.98504724123e-06
0.0085 0.0255 7.03206162139e-06
0.0085 0.0265 6.92149651016e-06
0.0085 0.0275 6.62456464125e-06
0.0085 0.0285 6.17273044002e-06
0.0085 0.0295 5.44469280425e-06
0.0085 0.0305 5.17705540233e-06
0.0085 0.0315 2.78868352438e-06
0.0095 -0.0315 3.87959475569e-06
0.0095 -0.0305 6.20003689497e-06
0.0095 -0.0295 4.98564184719e-06
0.0095 -0.0285 5.31544977331e-06
0.0095 -0.0275 5.83449456799e-06
0.0095 -0.0265 7.1452813695e-06
0.0095 -0.0255 1.04380718167e-05
0.0095 -0.0245 1.95506445504e-05
0.0095 -0.0235 4.82706869423e-05
0.0095 -0.0225 0.000151873132727
0.0095 -0.0215 0.000528062171851
0.0095 -0.0205 0.00180595865034
0.0095 -0.0195 0.00539520208865
0.0095 -0.0185 0.010919910253
0.0095 -0.0175 0.0140786356393
0.0095 -0.0165 0.0115238334154
0.0095 -0.0155 0.005931716823
0.0095 -0.0145 0.00205433238671
0.0095 -0.0135 0.000632660920246
0.0095 -0.0125 0.000192468655606
0.0095 -0.0115 6.58771256829e-05
0.0095 -0.0105 2.88511574195e-05
0.0095 -0.0095 1.69780237462e-05
0.0095 -0.0085 1.3468066222e-05
0.0095 -0.0075 1.38221572612e-05
0.0095 -0.0065 1.69582781304e-05
0.0095 -0.0055 2.29205123403e-05
0.0095 -0.0045 3.21331364697e-05
0.0095 -0.0035 4.75967268672e-05
0.0095 -0.0025 7.86699145355e-05
0.0095 -0.0015 0.000152466294652
0.0095 -0.0005 0.000286670659108
0.0095 0.0005 0.000575657940806
0.0095 0.0015 0.00117552149314
0.0095 0.0025 0.00253599140501
0.0095 0.0035 0.00568786355379
0.0095 0.0045 0.0113634408681
0.0095 0.0055 0.018300348216
0.0095 0.0065 0.0232817782067
0.0095 0.0075 0.0234607750369
0.0095 0.0085 0.0182674038366
0.0095 0.0095 0.0104723966646
0.0095 0.0105 0.00441713537585
0.0095 0.0115 0.00160658666041
0.0095 0.0125 0.000609074304126
0.0095 0.0135 0.000217757884161
0.0095 0.0145 7.44920712627e-05
0.0095 0.0155 2.81900893399e-05
0.0095 0.0165 1.4327682093e-05
0.0095 0.0175 9.33050976735e-06
0.0095 0.0185 7.28303058813e-06
0.0095 0.0195 6.55554284142e-06
0.0095 0.0205 6.45337214132e-06
0.0095 0.0215 6.62556978279e-06
0.0095 0.0225 6.88156051426e-06
0.0095 0.0235 7.11551239266e-06
0.0095 0.0245 7.26277266945e-06
0.0095 0.0255 7.27864880554e-06
0.0095 0.0265 7.13486202552e-06
0.0095 0.0275 6.8071100136e-06
0.0095 0.0285 6.32870547154e-06
0.0095 0.0295 5.57932284235e-06
0.0095 0.0305 5.30161916854e-06
0.0095 0.0315 2.85839996956e-06
0.0105 -0.0315 4.00983018632e-06
0.0105 -0.0305 6.35816979025e-06
0.0105 -0.0295 5.03308757095e-06
0.0105 -0.0285 5.3802437224e-06
0.0105 -0.0275 6.02752944622e-06
0.0105 -0.0265 7.77304540613e-06
0.0105 -0.0255 1.2266350644e-05
0.0105 -0.0245 2.49595726234e-05
0.0105 -0.0235 6.53865543026e-05
0.0105 -0.0225 0.000238920050957
0.0105 -0.0215 0.000826622018808
0.0105 -0.0205 0.00272202345494
0.0105 -0.0195 0.00725386274711
0.0105 -0.0185 0.012595378661
0.0105 -0.0175 0.0137885402657
0.0105 -0.0165 0.00948374803015
0.0105 -0.0155 0.00414525633345
0.0105 -0.0145 0.00132988827073
0.0105 -0.0135 0.000387954663336
0.0105 -0.0125 0.000111084635935
0.0105 -0.0115 4.48486668006e-05
0.0105 -0.0105 2.20479357193e-05
0.0105 -0.0095 1.41961026019e-05
0.0105 -0.0085 1.18248787081e-05
0.0105 -0.0075 1.19629459302e-05
0.0105 -0.0065 1.36677454025e-05
0.0105 -0.0055 1.68978251684e-05
0.0105 -0.0045 2.22950835847e-05
0.0105 -0.0035 3.14991068678e-05
0.0105 -0.0025 4.76737919527e-05
0.0105 -0.0015 7.42635974856e-05
0.0105 -0.0005 0.000116383503706
0.0105 0.0005 0.000218855792926
0.0105 0.0015 0.000434230990593
0.0105 0.0025 0.000982115711655
0.0105 0.0035 0.00245101145639
0.0105 0.0045 0.00607249723614
0.0105 0.0055 0.0126042960647
0.0105 0.0065 0.0198838873611
0.0105 0.0075 0.0238704060004
0.0105 0.0085 0.0221536359063
0.0105 0.0095 0.015659752884
0.0105 0.0105 0.00815989917162
0.0105 0.0115 0.00322888572482
0.0105 0.0125 0.00117821937509
0.0105 0.0135 0.000441392522124
0.0105 0.0145 0.000146428903072
0.0105 0.0155 4.85760492106e-05
0.0105 0.0165 2.28816137335e-05
0.0105 0.0175 1.33996633609e-05
0.0105 0.0185 9.36559749237e-06
0.0105 0.0195 7.64572535297e-06
0.0105 0.0205 7.08434878583e-06
0.0105 0.0215 7.05591733904e-06
0.0105 0.0225 7.22866913915e-06
0.0105 0.0235 7.42810420869e-06
0.0105 0.0245 7.55649353908e-06
0.0105 0.0255 7.55592657478e-06
0.0105 0.0265 7.39419399068e-06
0.0105 0.0275 7.04637222368e-06
0.0105 0.0285 6.54360675871e-06
0.0105 0.0295 5.76497248197e-06
0.0105 0.0305 5.45697808467e-06
0.0105 0.0315 2.93833644919e-06
0.0115 -0.0315 4.12422402387e-06
0.0115 -0.0305 6.50948381993e-06
0.0115 -0.0295 5.10834826242e-06
0.0115 -0.0285 5.50203895013e-06
0.0115 -0.0275 6.34724346413e-06
0.0115 -0.0265 8.70678888646e-06
0.0115 -0.0255 1.49954116277e-05
0.0115 -0.0245 3.34715427758e-05
0.0115 -0.0235 8.94702507823e-05
0.0115 -0.0225 0.000333836044097
0.0115 -0.0215 0.00120202485464
0.0115 -0.0205 0.00390369518204
0.0115 -0.0195 0.00916481168229
0.0115 -0.0185 0.0136752878832
0.0115 -0.0175 0.0127845086539
0.0115 -0.0165 0.00744859855974
0.0115 -0.0155 0.0028251947411
0.0115 -0.0145 0.000891994081862
0.0115 -0.0135 0.000267945144854
0.0115 -0.0125 7.84750511467e-05
0.0115 -0.0115 3.22030684828e-05
0.0115 -0.0105 1.73837817586e-05
0.0115 -0.0095 1.22942669825e-05
0.0115 -0.0085 1.08773199259e-05
0.0115 -0.0075 1.11253438758e-05
0.0115 -0.0065 1.23078615821e-05
0.0115 -0.0055 1.43417097413e-05
0.0115 -0.0045 1.75984508497e-05
0.0115 -0.0035 2.29471317418e-05
0.0115 -0.0025 3.15092799553e-05
0.0115 -0.0015 4.44142708681e-05
0.0115 -0.0005 6.51147614948e-05
0.0115 0.0005 0.000101344221623
0.0115 0.0015 0.000173569927204
0.0115 0.0025 0.000432360990452
0.0115 0.0035 0.00113029902728
0.0115 0.0045 0.00294272749062
0.0115 0.0055 0.00747646121852
0.0115 0.0065 0.014842364891
0.0115 0.0075 0.0215409907095
0.0115 0.0085 0.0235581364032
0.0115 0.0095 0.0199472858192
0.0115 0.0105 0.0128680876222
0.0115 0.0115 0.00614900011352
0.0115 0.0125 0.00233522198
0.0115 0.0135 0.000855697613384
0.0115 0.0145 0.000306827879944
0.0115 0.0155 0.000103769856299
0.0115 0.0165 4.17936283799e-05
0.0115 0.0175 2.13813476134e-05
0.0115 0.0185 1.2955328035e-05
0.0115 0.0195 9.39895215741e-06
0.0115 0.0205 8.01807767747e-06
0.0115 0.0215 7.6156314736e-06
0.0115 0.0225 7.63085305224e-06
0.0115 0.0235 7.771393979e-06
0.0115 0.0245 7.88073049012e-06
0.0115 0.0255 7.87379607606e-06
0.0115 0.0265 7.70635943239e-06
0.0115 0.0275 7.34751293576e-06
0.0115 0.0285 6.82221147639e-06
0.0115 0.0295 6.00643768037e-06
0.0115 0.0305 5.6486835714e-06
0.0115 0.0315 3.0315441278e-06
0.0125 -0.0315 4.24571329942e-06
0.0125 -0.0305 6.67698476224e-06
0.0125 -0.0295 5.21367861827e-06
0.0125 -0.0285 5.68612072783e-06
0.0125 -0.0275 6.81526186207e-06
0.0125 -0.0265 9.9998391017e-06
0.0125 -0.0255 1.88707300951e-05
0.0125 -0.0245 4.69314302879e-05
0.0125 -0.0235 0.000148214995404
0.0125 -0.0225 0.000515964835256
0.0125 -0.0215 0.00176673948768
0.0125 -0.0205 0.00534535546848
0.0125 -0.0195 0.0109478438224
0.0125 -0.0185 0.0140801963599
0.0125 -0.0175 0.0112842017347
0.0125 -0.0165 0.00562612337336
0.0125 -0.0155 0.00189327771891
0.0125 -0.0145 0.000566387828038
0.0125 -0.0135 0.000168228599655
0.0125 -0.0125 5.66130322857e-05
0.0125 -0.0115 2.46318156658e-05
0.0125 -0.0105 1.44433793551e-05
0.0125 -0.0095 1.11140269133e-05
0.0125 -0.0085 1.04174744184e-05
0.0125 -0.0075 1.08770919284e-05
0.0125 -0.0065 1.19371234926e-05
0.0125 -0.0055 1.34705304922e-05
0.0125 -0.0045 1.56338434011e-05
0.0125 -0.0035 1.88200566588e-05
0.0125 -0.0025 2.3639094141e-05
0.0125 -0.0015 3.11824396216e-05
0.0125 -0.0005 4.33381479646e-05
0.0125 0.0005 6.43659331743e-05
0.0125 0.0015 0.000111252712764
0.0125 0.0025 0.000237575014647
0.0125 0.0035 0.000588459456284
0.0125 0.0045 0.00147544030699
0.0125 0.0055 0.00400360750184
0.0125 0.0065 0.00974986740106
0.0125 0.0075 0.0173762330498
0.0125 0.0085 0.0224203923359
0.0125 0.0095 0.0222332677591
0.0125 0.0105 0.0173159429097
0.0125 0.0115 0.0102836523974
0.0125 0.0125 0.00462127319724
0.0125 0.0135 0.00174179321195
0.0125 0.0145 0.000663329159557
0.0125 0.0155 0.0002503756166
0.0125 0.0165 9.11920434267e-05
0.0125 0.0175 3.64148136651e-05
0.0125 0.0185 1.89462384482e-05
0.0125 0.0195 1.23472094899e-05
0.0125 0.0205 9.53104948495e-06
0.0125 0.0215 8.44260246941e-06
0.0125 0.0225 8.15141080002e-06
0.0125 0.0235 8.17379966694e-06
0.0125 0.0245 8.24809108354e-06
0.0125 0.0255 8.2379635527e-06
0.0125 0.0265 8.07487249501e-06
0.0125 0.0275 7.71433925049e-06
0.0125 0.0285 7.16977325091e-06
0.0125 0.0295 6.30975698681e-06
0.0125 0.0305 5.88352721657e-06
0.0125 0.0315 3.14139388842e-06
0.0135 -0.0315 4.37900039845e-06
0.0135 -0.0305 6.86790401637e-06
0.0135 -0.0295 5.35618882338e-06
0.0135 -0.0285 5.94865904336e-06
0.0135 -0.0275 7.47187887812e-06
0.0135 -0.0265 1.17624450483e-05
0.0135 -0.0255 2.40335861255e-05
0.0135 -0.0245 6.34131854685e-05
0.0135 -0.0235 0.000230463046075
0.0135 -0.0225 0.000789817034788
0.0135 -0.0215 0.00258111598916
0.0135 -0.0205 0.00699820844083
0.0135 -0.0195 0.0124352482463
0.0135 -0.0185 0.0138156197402
0.0135 -0.0175 0.00951914085166
0.0135 -0.0165 0.00411650263668
0.0135 -0.0155 0.00128924598074
0.0135 -0.0145 0.000361587486249
0.0135 -0.0135 0.000101035418899
0.0135 -0.0125 4.01126633492e-05
0.0135 -0.0115 1.95787133683e-05
0.0135 -0.0105 1.26611981419e-05
0.0135 -0.0095 1.05208762658e-05
0.0135 -0.0085 1.03400312012e-05
0.0135 -0.0075 1.09999685626e-05
0.0135 -0.0065 1.20694460773e-05
0.0135 -0.0055 1.34116587588e-05
0.0135 -0.0045 1.50714047828e-05
0.0135 -0.0035 1.7246356212e-05
0.0135 -0.0025 2.03584317065e-05
0.0135 -0.0015 2.52589878751e-05
0.0135 -0.0005 3.38576904481e-05
0.0135 0.0005 5.09003538964e-05
0.0135 0.0015 8.79780747508e-05
0.0135 0.0025 0.000170569186886
0.0135 0.0035 0.000394676841903
0.0135 0.0045 0.000901975636955
0.0135 0.0055 0.00215097476421
0.0135 0.0065 0.00576935946924
0.0135 0.0075 0.0125129643838
0.0135 0.0085 0.0192145178833
0.0135 0.0095 0.0221063608353
0.0135 0.0105 0.0202677294491
0.0135 0.0115 0.0147802560341
0.0135 0.0125 0.00830373254402
0.0135 0.0135 0.00363002408762
0.0135 0.0145 0.00140117037264
0.0135 0.0155 0.000542723268445
0.0135 0.0165 0.00018807485418
0.0135 0.0175 6.37566233159e-05
0.0135 0.0185 3.02500720447e-05
0.0135 0.0195 1.76169332409e-05
0.0135 0.0205 1.21440196419e-05
0.0135 0.0215 9.75425402924e-06
0.0135 0.0225 8.88530120788e-06
0.0135 0.0235 8.67685232813e-06
0.0135 0.0245 8.67585151868e-06
0.0135 0.0255 8.65625478873e-06
0.0135 0.0265 8.50505576061e-06
0.0135 0.0275 8.15245281347e-06
0.0135 0.0285 7.59270779652e-06
0.0135 0.0295 6.68080927204e-06
0.0135 0.0305 6.16769315968e-06
0.0135 0.0315 3.27072766853e-06
0.0145 -0.0315 4.51949106465e-06
0.0145 -0.0305 7.08048401545e-06
0.0145 -0.0295 5.54496121982e-06
0.0145 -0.0285 6.31815412853e-06
0.0145 -0.0275 8.39078903688e-06
0.0145 -0.0265 1.4285070352e-05
0.0145 -0.0255 3.14952432433e-05
0.0145 -0.0245 8.44180599385e-05
0.0145 -0.0235 0.000313935105613
0.0145 -0.0225 0.00111647240968
0.0145 -0.0215 0.00362863383699
0.0145 -0.0205 0.00875165444125
0.0145 -0.0195 0.013480919199
0.0145 -0.0185 0.0129521748222
0.0145 -0.0175 0.00769780725145
0.0145 -0.0165 0.00294054856783
0.0145 -0.0155 0.000912548733196
0.0145 -0.0145 0.000265154406841
0.0145 -0.0135 7.53163091261e-05
0.0145 -0.0125 3.06240990744e-05
0.0145 -0.0115 1.64361398725e-05
0.0145 -0.0105 1.16964668041e-05
0.0145 -0.0095 1.04039706342e-05
0.0145 -0.0085 1.05842562605e-05
0.0145 -0.0075 1.13926884744e-05
0.0145 -0.0065 1.24854405118e-05
0.0145 -0.0055 1.3739141281e-05
0.0145 -0.0045 1.51666514097e-05
0.0145 -0.0035 1.69139075401e-05