% Model:              Benchmark260518.mph
% Version:            COMSOL 6.2.0.339
% Date:               May 21 2026, 10:24
% Dimension:          2
% Nodes:              4096
% Expressions:        1
% Description:        速度大小
% Length unit:        m
% x                       y                        spf.U (m/s)
5.0E-4                    -0.0315                  1.3702386256970616E-6
5.0E-4                    -0.0305                  2.781871250415631E-6
5.0E-4                    -0.0295                  3.1662723995478626E-6
5.0E-4                    -0.0285                  3.5493010127111688E-6
5.0E-4                    -0.0275                  3.758452171497032E-6
5.0E-4                    -0.0265                  3.929744469540413E-6
5.0E-4                    -0.0255                  4.063211536953251E-6
5.0E-4                    -0.0245                  4.205564762218133E-6
5.0E-4                    -0.0235                  4.362820363116185E-6
5.0E-4                    -0.0225                  4.5637330939251325E-6
5.0E-4                    -0.0215                  4.855700243952092E-6
5.0E-4                    -0.0205                  5.323260573923405E-6
5.0E-4                    -0.0195                  6.2050543388368595E-6
5.0E-4                    -0.0185                  8.069121315494578E-6
5.0E-4                    -0.0175                  1.3758616179768958E-5
5.0E-4                    -0.0165                  3.172236830729736E-5
5.0E-4                    -0.0155                  8.742173560629063E-5
5.0E-4                    -0.0145                  1.617606518149745E-4
5.0E-4                    -0.0135                  1.770916101488218E-4
5.0E-4                    -0.0125                  1.7375738484623102E-4
5.0E-4                    -0.0115                  2.0386243921743883E-4
5.0E-4                    -0.0105                  1.377190421499602E-4
5.0E-4                    -0.0095                  0.0016894745016955883
5.0E-4                    -0.0085                  0.005315367989414533
5.0E-4                    -0.0075                  0.013084621239558836
5.0E-4                    -0.0065                  0.0169113800826081
5.0E-4                    -0.0055                  0.01362533018803173
5.0E-4                    -0.0045                  0.010574514771896009
5.0E-4                    -0.0035                  0.007964619103014605
5.0E-4                    -0.0025                  0.006044056140810894
5.0E-4                    -0.0015                  0.0046859860857370065
5.0E-4                    -5.0E-4                  0.0037308268003869898
5.0E-4                    5.0E-4                   0.0033214445956905726
5.0E-4                    0.0015                   0.004335594788688815
5.0E-4                    0.0025                   0.007239350286522197
5.0E-4                    0.0035                   0.011566500777942799
5.0E-4                    0.0045                   0.016953277554987368
5.0E-4                    0.0055                   0.02192909488124846
5.0E-4                    0.0065                   0.025348260526582015
5.0E-4                    0.0075                   0.017847224707681755
5.0E-4                    0.0085                   0.0054773141795585335
5.0E-4                    0.0095                   8.014108261899097E-4
5.0E-4                    0.0105                   6.6026561701223E-4
5.0E-4                    0.0115                   5.130149381155021E-4
5.0E-4                    0.0125                   2.3467269211336283E-4
5.0E-4                    0.0135                   1.3277718462624555E-4
5.0E-4                    0.0145                   9.372707437336056E-5
5.0E-4                    0.0155                   4.4291354347207135E-5
5.0E-4                    0.0165                   2.0943976641659617E-5
5.0E-4                    0.0175                   1.0936072135261348E-5
5.0E-4                    0.0185                   7.510146250235147E-6
5.0E-4                    0.0195                   6.314736799938603E-6
5.0E-4                    0.0205                   5.595609737714272E-6
5.0E-4                    0.0215                   5.208023620630314E-6
5.0E-4                    0.0225                   4.939640146881876E-6
5.0E-4                    0.0235                   4.7231998805564E-6
5.0E-4                    0.0245                   4.533130165703393E-6
5.0E-4                    0.0255                   4.349419106321929E-6
5.0E-4                    0.0265                   4.1731259739492385E-6
5.0E-4                    0.0275                   3.959102215744949E-6
5.0E-4                    0.0285                   3.707030549594017E-6
5.0E-4                    0.0295                   3.2987651997185657E-6
5.0E-4                    0.0305                   2.894203042476166E-6
5.0E-4                    0.0315                   1.419983910969622E-6
0.0015                    -0.0315                  2.6589614015619546E-6
0.0015                    -0.0305                  5.34728131069455E-6
0.0015                    -0.0295                  5.864117489321349E-6
0.0015                    -0.0285                  6.284552819761248E-6
0.0015                    -0.0275                  6.4078877102978055E-6
0.0015                    -0.0265                  6.49224044104202E-6
0.0015                    -0.0255                  6.5522117232662995E-6
0.0015                    -0.0245                  6.643535803290745E-6
0.0015                    -0.0235                  6.784380690479045E-6
0.0015                    -0.0225                  7.024602782744648E-6
0.0015                    -0.0215                  7.459400595928817E-6
0.0015                    -0.0205                  8.287557381439901E-6
0.0015                    -0.0195                  1.0039063441908307E-5
0.0015                    -0.0185                  1.4132258362123716E-5
0.0015                    -0.0175                  2.526100589544585E-5
0.0015                    -0.0165                  5.724640240179641E-5
0.0015                    -0.0155                  1.5294671792692347E-4
0.0015                    -0.0145                  2.91172936590795E-4
0.0015                    -0.0135                  3.993966335880958E-4
0.0015                    -0.0125                  5.088583845136033E-4
0.0015                    -0.0115                  0.0010040555163293532
0.0015                    -0.0105                  0.003233612914558977
0.0015                    -0.0095                  0.007668742081467686
0.0015                    -0.0085                  0.01390068266700046
0.0015                    -0.0075                  0.01819051109676613
0.0015                    -0.0065                  0.0170769073369053
0.0015                    -0.0055                  0.013319952884803228
0.0015                    -0.0045                  0.010135714374579186
0.0015                    -0.0035                  0.007537815340541222
0.0015                    -0.0025                  0.005564963470410062
0.0015                    -0.0015                  0.004137696356551721
0.0015                    -5.0E-4                  0.003113493305621197
0.0015                    5.0E-4                   0.0024078473081957635
0.0015                    0.0015                   0.0027417018915965583
0.0015                    0.0025                   0.005194332275948126
0.0015                    0.0035                   0.009361874244277518
0.0015                    0.0045                   0.014809138414150694
0.0015                    0.0055                   0.020522651216754666
0.0015                    0.0065                   0.02519478438780949
0.0015                    0.0075                   0.02429404682026647
0.0015                    0.0085                   0.015513236145376995
0.0015                    0.0095                   0.005948376900460598
0.0015                    0.0105                   9.152649072537165E-4
0.0015                    0.0115                   7.276795937485089E-4
0.0015                    0.0125                   6.620703107361631E-4
0.0015                    0.0135                   3.0349474664707833E-4
0.0015                    0.0145                   1.9370688619943873E-4
0.0015                    0.0155                   1.0083247575969478E-4
0.0015                    0.0165                   4.354956296021396E-5
0.0015                    0.0175                   2.0952230356323398E-5
0.0015                    0.0185                   1.3070116978795806E-5
0.0015                    0.0195                   1.0164378410454138E-5
0.0015                    0.0205                   8.760030158001365E-6
0.0015                    0.0215                   8.06117196653827E-6
0.0015                    0.0225                   7.653959743385647E-6
0.0015                    0.0235                   7.382932816564592E-6
0.0015                    0.0245                   7.1885027158691884E-6
0.0015                    0.0255                   7.036360162704884E-6
0.0015                    0.0265                   6.917273953475857E-6
0.0015                    0.0275                   6.776325646318737E-6
0.0015                    0.0285                   6.600107717914222E-6
0.0015                    0.0295                   6.139906065684492E-6
0.0015                    0.0305                   5.587216064631101E-6
0.0015                    0.0315                   2.7706014804955787E-6
0.0025                    -0.0315                  2.6945983327284567E-6
0.0025                    -0.0305                  5.346578687585442E-6
0.0025                    -0.0295                  5.729931745217631E-6
0.0025                    -0.0285                  5.956007340803095E-6
0.0025                    -0.0275                  5.802833069341788E-6
0.0025                    -0.0265                  5.582374900815913E-6
0.0025                    -0.0255                  5.359578628196839E-6
0.0025                    -0.0245                  5.182031525629897E-6
0.0025                    -0.0235                  5.088387457871789E-6
0.0025                    -0.0225                  5.142419133069334E-6
0.0025                    -0.0215                  5.476196314750672E-6
0.0025                    -0.0205                  6.39203102344274E-6
0.0025                    -0.0195                  8.639574297541112E-6
0.0025                    -0.0185                  1.4284996390276944E-5
0.0025                    -0.0175                  2.8478348408752492E-5
0.0025                    -0.0165                  6.396368733595318E-5
0.0025                    -0.0155                  1.745221350768547E-4
0.0025                    -0.0145                  3.9512830405300886E-4
0.0025                    -0.0135                  8.382370114994824E-4
0.0025                    -0.0125                  0.0021903673038766273
0.0025                    -0.0115                  0.005269320498412885
0.0025                    -0.0105                  0.009887932486139008
0.0025                    -0.0095                  0.01487998947659618
0.0025                    -0.0085                  0.01833914302594968
0.0025                    -0.0075                  0.018559041793521115
0.0025                    -0.0065                  0.01564371745181748
0.0025                    -0.0055                  0.011792926960079032
0.0025                    -0.0045                  0.008505411840885007
0.0025                    -0.0035                  0.005822180538807496
0.0025                    -0.0025                  0.0038489447623473103
0.0025                    -0.0015                  0.002555571854108539
0.0025                    -5.0E-4                  0.0017641929029548822
0.0025                    5.0E-4                   0.001258408352787714
0.0025                    0.0015                   0.0013707985409493544
0.0025                    0.0025                   0.003206636508188186
0.0025                    0.0035                   0.00680891973175997
0.0025                    0.0045                   0.011959038062229211
0.0025                    0.0055                   0.017937324918096343
0.0025                    0.0065                   0.023533821348974755
0.0025                    0.0075                   0.02599044689721473
0.0025                    0.0085                   0.022824945165119768
0.0025                    0.0095                   0.015378578699424623
0.0025                    0.0105                   0.007565446980684743
0.0025                    0.0115                   0.0024157772536954358
0.0025                    0.0125                   8.548256433975127E-4
0.0025                    0.0135                   4.430592579997381E-4
0.0025                    0.0145                   2.5416739786153085E-4
0.0025                    0.0155                   1.371145739659204E-4
0.0025                    0.0165                   5.379621835294333E-5
0.0025                    0.0175                   2.4086633137038256E-5
0.0025                    0.0185                   1.3064614884785123E-5
0.0025                    0.0195                   8.589280659749226E-6
0.0025                    0.0205                   6.765574579089978E-6
0.0025                    0.0215                   5.984659719858747E-6
0.0025                    0.0225                   5.666135899965867E-6
0.0025                    0.0235                   5.5802040572734605E-6
0.0025                    0.0245                   5.629731251057306E-6
0.0025                    0.0255                   5.767045391460974E-6
0.0025                    0.0265                   5.958314068717976E-6
0.0025                    0.0275                   6.154184783381123E-6
0.0025                    0.0285                   6.289237602498044E-6
0.0025                    0.0295                   6.031042980988484E-6
0.0025                    0.0305                   5.610634372505131E-6
0.0025                    0.0315                   2.821707012670076E-6
0.0035                    -0.0315                  2.784318049389233E-6
0.0035                    -0.0305                  5.4465682032472485E-6
0.0035                    -0.0295                  5.9263230052510765E-6
0.0035                    -0.0285                  6.383873163269347E-6
0.0035                    -0.0275                  6.339175799572928E-6
0.0035                    -0.0265                  6.120387360308259E-6
0.0035                    -0.0255                  5.833845229635813E-6
0.0035                    -0.0245                  5.572790666442746E-6
0.0035                    -0.0235                  5.410429443247979E-6
0.0035                    -0.0225                  5.46218046821567E-6
0.0035                    -0.0215                  5.951009190330618E-6
0.0035                    -0.0205                  7.35964483453147E-6
0.0035                    -0.0195                  1.086006746173101E-5
0.0035                    -0.0185                  1.9478498923027623E-5
0.0035                    -0.0175                  4.370744938651335E-5
0.0035                    -0.0165                  1.2239549720673102E-4
0.0035                    -0.0155                  3.62523868240198E-4
0.0035                    -0.0145                  9.621756276677236E-4
0.0035                    -0.0135                  0.0025905120791967218
0.0035                    -0.0125                  0.00614302274300784
0.0035                    -0.0115                  0.011105627479278672
0.0035                    -0.0105                  0.0157287511298706
0.0035                    -0.0095                  0.01853493562612443
0.0035                    -0.0085                  0.018695259843321717
0.0035                    -0.0075                  0.016295379173422497
0.0035                    -0.0065                  0.01245275895594247
0.0035                    -0.0055                  0.008635343543568716
0.0035                    -0.0045                  0.005535930557441635
0.0035                    -0.0035                  0.0032620462137984653
0.0035                    -0.0025                  0.0018273889893859938
0.0035                    -0.0015                  0.0010250011081027988
0.0035                    -5.0E-4                  6.146031781996877E-4
0.0035                    5.0E-4                   4.197136439641413E-4
0.0035                    0.0015                   5.944350619130642E-4
0.0035                    0.0025                   0.0016915991898338286
0.0035                    0.0035                   0.004177244997979921
0.0035                    0.0045                   0.008386588549098054
0.0035                    0.0055                   0.014011937908261041
0.0035                    0.0065                   0.020173578874652428
0.0035                    0.0075                   0.02491985335631924
0.0035                    0.0085                   0.026048764538158985
0.0035                    0.0095                   0.022849956905842822
0.0035                    0.0105                   0.01639857672618595
0.0035                    0.0115                   0.009047229957586948
0.0035                    0.0125                   0.003526493976283192
0.0035                    0.0135                   0.0011419189288700512
0.0035                    0.0145                   5.015148659420698E-4
0.0035                    0.0155                   2.2725444496869416E-4
0.0035                    0.0165                   8.11969956820286E-5
0.0035                    0.0175                   3.5652541712332384E-5
0.0035                    0.0185                   1.7622095038416673E-5
0.0035                    0.0195                   1.045944993480872E-5
0.0035                    0.0205                   7.550177827165229E-6
0.0035                    0.0215                   6.349619124597148E-6
0.0035                    0.0225                   5.90062887223621E-6
0.0035                    0.0235                   5.822542149362195E-6
0.0035                    0.0245                   5.944027046439047E-6
0.0035                    0.0255                   6.1727820195752934E-6
0.0035                    0.0265                   6.441995794026926E-6
0.0035                    0.0275                   6.65463885193598E-6
0.0035                    0.0285                   6.697247616801705E-6
0.0035                    0.0295                   6.217424788621635E-6
0.0035                    0.0305                   5.706953563283638E-6
0.0035                    0.0315                   2.9121970815731306E-6
0.0045                    -0.0315                  2.838897122906546E-6
0.0045                    -0.0305                  5.467086893879526E-6
0.0045                    -0.0295                  5.940663091763937E-6
0.0045                    -0.0285                  6.565558605833834E-6
0.0045                    -0.0275                  6.694938827680331E-6
0.0045                    -0.0265                  6.575283101380122E-6
0.0045                    -0.0255                  6.313299462693828E-6
0.0045                    -0.0245                  6.041968006084124E-6
0.0045                    -0.0235                  5.889801458445817E-6
0.0045                    -0.0225                  6.05810400907119E-6
0.0045                    -0.0215                  6.919804684415521E-6
0.0045                    -0.0205                  9.265372461337966E-6
0.0045                    -0.0195                  1.4982565407967927E-5
0.0045                    -0.0185                  2.9943471888627665E-5
0.0045                    -0.0175                  7.35133832457247E-5
0.0045                    -0.0165                  2.499467290826711E-4
0.0045                    -0.0155                  7.953564916020775E-4
0.0045                    -0.0145                  0.002361732462987161
0.0045                    -0.0135                  0.005957744043986332
0.0045                    -0.0125                  0.01115676493379517
0.0045                    -0.0115                  0.015818935975717135
0.0045                    -0.0105                  0.01828738878076616
0.0045                    -0.0095                  0.018085624662834948
0.0045                    -0.0085                  0.01557304599882391
0.0045                    -0.0075                  0.011759580291022007
0.0045                    -0.0065                  0.00786985168371876
0.0045                    -0.0055                  0.004757582393414272
0.0045                    -0.0045                  0.0026312143438564726
0.0045                    -0.0035                  0.0013569787336198031
0.0045                    -0.0025                  6.78065693502528E-4
0.0045                    -0.0015                  3.3318528039376946E-4
0.0045                    -5.0E-4                  1.803883559542829E-4
0.0045                    5.0E-4                   1.4302679945260777E-4
0.0045                    0.0015                   2.668497145503757E-4
0.0045                    0.0025                   7.705866026586362E-4
0.0045                    0.0035                   0.0020536721215368486
0.0045                    0.0045                   0.00470648945476148
0.0045                    0.0055                   0.009066521990868132
0.0045                    0.0065                   0.014884402883234888
0.0045                    0.0075                   0.020913372198451064
0.0045                    0.0085                   0.025138787397543678
0.0045                    0.0095                   0.026003110384356362
0.0045                    0.0105                   0.023034681299443364
0.0045                    0.0115                   0.016882207960760665
0.0045                    0.0125                   0.009476967814377837
0.0045                    0.0135                   0.0038408225600635396
0.0045                    0.0145                   0.0013179480252996942
0.0045                    0.0155                   5.032772484236312E-4
0.0045                    0.0165                   1.6908845106766886E-4
0.0045                    0.0175                   5.899500576531399E-5
0.0045                    0.0185                   2.532863698449937E-5
0.0045                    0.0195                   1.3588157269640415E-5
0.0045                    0.0205                   8.864041816368895E-6
0.0045                    0.0215                   6.949531574841141E-6
0.0045                    0.0225                   6.24758295356991E-6
0.0045                    0.0235                   6.114767882804161E-6
0.0045                    0.0245                   6.259251058564208E-6
0.0045                    0.0255                   6.523412010101538E-6
0.0045                    0.0265                   6.793119631894375E-6
0.0045                    0.0275                   6.932669422870429E-6
0.0045                    0.0285                   6.826329211473148E-6
0.0045                    0.0295                   6.204390275874423E-6
0.0045                    0.0305                   5.729850393189313E-6
0.0045                    0.0315                   2.978404001335048E-6
0.0055                    -0.0315                  2.8996783183583477E-6
0.0055                    -0.0305                  5.541053446825788E-6
0.0055                    -0.0295                  6.018358093957491E-6
0.0055                    -0.0285                  6.763337821744687E-6
0.0055                    -0.0275                  7.058491855740468E-6
0.0055                    -0.0265                  7.0904431678456865E-6
0.0055                    -0.0255                  6.935366605414813E-6
0.0055                    -0.0245                  6.75299855439688E-6
0.0055                    -0.0235                  6.749004165538616E-6
0.0055                    -0.0225                  7.281557211624082E-6
0.0055                    -0.0215                  9.026392549681901E-6
0.0055                    -0.0205                  1.331332916441958E-5
0.0055                    -0.0195                  2.3876634238848147E-5
0.0055                    -0.0185                  5.3492112194572096E-5
0.0055                    -0.0175                  1.5674767033656284E-4
0.0055                    -0.0165                  5.254648928440874E-4
0.0055                    -0.0155                  0.001695330039000503
0.0055                    -0.0145                  0.004903609341787387
0.0055                    -0.0135                  0.010305542815701672
0.0055                    -0.0125                  0.01544662303888507
0.0055                    -0.0115                  0.01794493777880372
0.0055                    -0.0105                  0.017328309407772753
0.0055                    -0.0095                  0.014320946326898794
0.0055                    -0.0085                  0.01026568328162719
0.0055                    -0.0075                  0.006483056228839511
0.0055                    -0.0065                  0.0036933035896171067
0.0055                    -0.0055                  0.0019568044513478136
0.0055                    -0.0045                  9.962802598296023E-4
0.0055                    -0.0035                  5.093235740954554E-4
0.0055                    -0.0025                  2.5383099627240087E-4
0.0055                    -0.0015                  1.1781661813980009E-4
0.0055                    -5.0E-4                  6.709728374170117E-5
0.0055                    5.0E-4                   6.394102051211992E-5
0.0055                    0.0015                   1.1899568238607119E-4
0.0055                    0.0025                   3.279472816900544E-4
0.0055                    0.0035                   8.717027235842829E-4
0.0055                    0.0045                   0.0020941554184973517
0.0055                    0.0055                   0.004535174616448426
0.0055                    0.0065                   0.008700431109486498
0.0055                    0.0075                   0.014417926539217807
0.0055                    0.0085                   0.02038109291662369
0.0055                    0.0095                   0.024663533833188037
0.0055                    0.0105                   0.02567279883347998
0.0055                    0.0115                   0.022780694760771637
0.0055                    0.0125                   0.016433325729202933
0.0055                    0.0135                   0.008835907086757723
0.0055                    0.0145                   0.003420325817047487
0.0055                    0.0155                   0.0011267862517919016
0.0055                    0.0165                   3.604842470289118E-4
0.0055                    0.0175                   1.0412696472032275E-4
0.0055                    0.0185                   4.130254749567155E-5
0.0055                    0.0195                   1.9587218952299383E-5
0.0055                    0.0205                   1.1495999050581394E-5
0.0055                    0.0215                   8.23747357232733E-6
0.0055                    0.0225                   7.00819411081926E-6
0.0055                    0.0235                   6.6799025404423135E-6
0.0055                    0.0245                   6.758290558062039E-6
0.0055                    0.0255                   6.983272855000463E-6
0.0055                    0.0265                   7.186159644504491E-6
0.0055                    0.0275                   7.2126300177159835E-6
0.0055                    0.0285                   6.978226160217874E-6
0.0055                    0.0295                   6.272761986541625E-6
0.0055                    0.0305                   5.827802778696562E-6
0.0055                    0.0315                   3.063099356600433E-6
0.0065                    -0.0315                  2.9680591399937667E-6
0.0065                    -0.0305                  5.643724464281364E-6
0.0065                    -0.0295                  6.128300840693207E-6
0.0065                    -0.0285                  6.970556797265965E-6
0.0065                    -0.0275                  7.406325063741189E-6
0.0065                    -0.0265                  7.596998044399586E-6
0.0065                    -0.0255                  7.600286491531799E-6
0.0065                    -0.0245                  7.606302106387578E-6
0.0065                    -0.0235                  7.931582269564755E-6
0.0065                    -0.0225                  9.196902068655287E-6
0.0065                    -0.0215                  1.2712830530515907E-5
0.0065                    -0.0205                  2.1322477116526382E-5
0.0065                    -0.0195                  4.302566742183581E-5
0.0065                    -0.0185                  1.1437599883435258E-4
0.0065                    -0.0175                  3.589263337442763E-4
0.0065                    -0.0165                  0.0010867158976461961
0.0065                    -0.0155                  0.0033792014568960766
0.0065                    -0.0145                  0.008407400884009791
0.0065                    -0.0135                  0.014427173333306901
0.0065                    -0.0125                  0.01783972514062562
0.0065                    -0.0115                  0.017265209025382013
0.0065                    -0.0105                  0.013678056251247449
0.0065                    -0.0095                  0.009030773750895537
0.0065                    -0.0085                  0.00515571411582023
0.0065                    -0.0075                  0.002698723414563069
0.0065                    -0.0065                  0.0013706346096773606
0.0065                    -0.0055                  7.069546348175826E-4