% Model:              Benchmark260518.mph
% Version:            COMSOL 6.2.0.339
% Date:               May 19 2026, 18:37
% Dimension:          2
% Nodes:              4096
% Expressions:        1
% Description:        速度大小
% Length unit:        m
% x                       y                        spf.U (m/s)
5.0E-4                    -0.0315                  1.2215455712907173E-6
5.0E-4                    -0.0305                  2.4601997733089948E-6
5.0E-4                    -0.0295                  2.7238746612053604E-6
5.0E-4                    -0.0285                  3.0112098727376254E-6
5.0E-4                    -0.0275                  3.1901316198692275E-6
5.0E-4                    -0.0265                  3.3116406676057285E-6
5.0E-4                    -0.0255                  3.4176102859712656E-6
5.0E-4                    -0.0245                  3.518361193232773E-6
5.0E-4                    -0.0235                  3.5574978464532323E-6
5.0E-4                    -0.0225                  3.5764883133213667E-6
5.0E-4                    -0.0215                  3.67067897294389E-6
5.0E-4                    -0.0205                  3.851314857662761E-6
5.0E-4                    -0.0195                  4.059825572291659E-6
5.0E-4                    -0.0185                  4.3162735159593015E-6
5.0E-4                    -0.0175                  4.585709138255063E-6
5.0E-4                    -0.0165                  4.629515278186345E-6
5.0E-4                    -0.0155                  4.4452729661785495E-6
5.0E-4                    -0.0145                  4.361004182801402E-6
5.0E-4                    -0.0135                  4.6424609990760116E-6
5.0E-4                    -0.0125                  4.768229819153945E-6
5.0E-4                    -0.0115                  4.475980475617709E-6
5.0E-4                    -0.0105                  4.4213205640519155E-6
5.0E-4                    -0.0095                  4.68425974298565E-6
5.0E-4                    -0.0085                  4.950639637138849E-6
5.0E-4                    -0.0075                  5.213590811893992E-6
5.0E-4                    -0.0065                  5.6171987919844816E-6
5.0E-4                    -0.0055                  6.311475586996816E-6
5.0E-4                    -0.0045                  7.789485497458785E-6
5.0E-4                    -0.0035                  1.0903198373759345E-5
5.0E-4                    -0.0025                  1.9921690189156056E-5
5.0E-4                    -0.0015                  5.072306895412309E-5
5.0E-4                    -5.0E-4                  1.5899588107106703E-4
5.0E-4                    5.0E-4                   3.751584778825373E-4
5.0E-4                    0.0015                   6.442629160123773E-4
5.0E-4                    0.0025                   9.416041822001444E-4
5.0E-4                    0.0035                   0.0014515918737260528
5.0E-4                    0.0045                   0.0023523666558690546
5.0E-4                    0.0055                   0.003417782632757294
5.0E-4                    0.0065                   0.00423972693437397
5.0E-4                    0.0075                   0.0044874636832017275
5.0E-4                    0.0085                   0.004040598933594078
5.0E-4                    0.0095                   0.003003028165262002
5.0E-4                    0.0105                   0.001729991672988275
5.0E-4                    0.0115                   0.001486038341650904
5.0E-4                    0.0125                   0.002714443147901218
5.0E-4                    0.0135                   0.0032720034153601303
5.0E-4                    0.0145                   0.0026827595861374505
5.0E-4                    0.0155                   0.0015818798918542784
5.0E-4                    0.0165                   8.79210840841952E-4
5.0E-4                    0.0175                   7.630368033703768E-4
5.0E-4                    0.0185                   8.354309403540719E-4
5.0E-4                    0.0195                   0.0010327499471365913
5.0E-4                    0.0205                   0.0021045055131273375
5.0E-4                    0.0215                   0.00478330457003377
5.0E-4                    0.0225                   0.03781201577217587
5.0E-4                    0.0235                   0.06300987463283109
5.0E-4                    0.0245                   0.04886775207964558
5.0E-4                    0.0255                   0.01828331971278566
5.0E-4                    0.0265                   5.791744180825757E-4
5.0E-4                    0.0275                   5.152322219705644E-4
5.0E-4                    0.0285                   1.1702617395548037E-4
5.0E-4                    0.0295                   2.8295036702073644E-5
5.0E-4                    0.0305                   6.503476460914967E-6
5.0E-4                    0.0315                   1.2681943499935503E-6
0.0015                    -0.0315                  2.3969767037092766E-6
0.0015                    -0.0305                  4.79414510799884E-6
0.0015                    -0.0295                  5.169777443369409E-6
0.0015                    -0.0285                  5.502897917507E-6
0.0015                    -0.0275                  5.624635905343171E-6
0.0015                    -0.0265                  5.696384879647757E-6
0.0015                    -0.0255                  5.7586308949649135E-6
0.0015                    -0.0245                  5.825035470365439E-6
0.0015                    -0.0235                  5.841682163561211E-6
0.0015                    -0.0225                  5.853550414669428E-6
0.0015                    -0.0215                  5.9581202988983135E-6
0.0015                    -0.0205                  6.165662331688229E-6
0.0015                    -0.0195                  6.416235537520776E-6
0.0015                    -0.0185                  6.717490819386938E-6
0.0015                    -0.0175                  7.011925689312837E-6
0.0015                    -0.0165                  7.057703579004731E-6
0.0015                    -0.0155                  6.866201007722906E-6
0.0015                    -0.0145                  6.8030718934827805E-6
0.0015                    -0.0135                  7.1460218573246625E-6
0.0015                    -0.0125                  7.31243559205666E-6
0.0015                    -0.0115                  6.990110597236943E-6
0.0015                    -0.0105                  6.906748305194366E-6
0.0015                    -0.0095                  7.231018435136517E-6
0.0015                    -0.0085                  7.650617934915274E-6
0.0015                    -0.0075                  8.173401689847049E-6
0.0015                    -0.0065                  9.033347851779688E-6
0.0015                    -0.0055                  1.0613121749200438E-5
0.0015                    -0.0045                  1.3880064865393765E-5
0.0015                    -0.0035                  2.0948075603600535E-5
0.0015                    -0.0025                  3.974804105910294E-5
0.0015                    -0.0015                  9.620889955643825E-5
0.0015                    -5.0E-4                  2.6926194541074694E-4
0.0015                    5.0E-4                   6.817027678886112E-4
0.0015                    0.0015                   0.001402546595896531
0.0015                    0.0025                   0.002791546994929684
0.0015                    0.0035                   0.005265205623409539
0.0015                    0.0045                   0.008435704476290105
0.0015                    0.0055                   0.011424119674208385
0.0015                    0.0065                   0.013544449268862464
0.0015                    0.0075                   0.014439124787174316
0.0015                    0.0085                   0.014041617059629478
0.0015                    0.0095                   0.01244623520212594
0.0015                    0.0105                   0.00979442523574232
0.0015                    0.0115                   0.00621390130287002
0.0015                    0.0125                   0.002969890020498106
0.0015                    0.0135                   0.004004293889653048
0.0015                    0.0145                   0.005253668750002626
0.0015                    0.0155                   0.004512714663998135
0.0015                    0.0165                   0.003258547871459197
0.0015                    0.0175                   0.0025495013266352215
0.0015                    0.0185                   0.0023623034955940563
0.0015                    0.0195                   0.0027542897470007976
0.0015                    0.0205                   0.0029487349188957552
0.0015                    0.0215                   0.015021129677220583
0.0015                    0.0225                   0.047401691601564
0.0015                    0.0235                   0.061335714313461145
0.0015                    0.0245                   0.04381388508648533
0.0015                    0.0255                   0.01531888008451508
0.0015                    0.0265                   7.11763110881741E-4
0.0015                    0.0275                   0.0010438565442099563
0.0015                    0.0285                   2.4953950353635965E-4
0.0015                    0.0295                   5.5429573746886305E-5
0.0015                    0.0305                   1.2561611122079439E-5
0.0015                    0.0315                   2.3105480700381845E-6
0.0025                    -0.0315                  2.495696250702959E-6
0.0025                    -0.0305                  4.917906318299412E-6
0.0025                    -0.0295                  5.223709854560196E-6
0.0025                    -0.0285                  5.461348562383695E-6
0.0025                    -0.0275                  5.3870435919359245E-6
0.0025                    -0.0265                  5.272906467153184E-6
0.0025                    -0.0255                  5.148812917020793E-6
0.0025                    -0.0245                  5.04195530695091E-6
0.0025                    -0.0235                  4.959807929935919E-6
0.0025                    -0.0225                  4.9103490247706824E-6
0.0025                    -0.0215                  4.900071828436084E-6
0.0025                    -0.0205                  4.9276179356556226E-6
0.0025                    -0.0195                  4.984167739184227E-6
0.0025                    -0.0185                  5.048089024416499E-6
0.0025                    -0.0175                  5.086891820411083E-6
0.0025                    -0.0165                  5.085162046164001E-6
0.0025                    -0.0155                  5.058869001562403E-6
0.0025                    -0.0145                  5.062030147225339E-6
0.0025                    -0.0135                  5.117222362557417E-6
0.0025                    -0.0125                  5.1543926582123135E-6
0.0025                    -0.0115                  5.130429028891666E-6
0.0025                    -0.0105                  5.16025558818761E-6
0.0025                    -0.0095                  5.372816771322569E-6
0.0025                    -0.0085                  5.8038951439714565E-6
0.0025                    -0.0075                  6.540236738643689E-6
0.0025                    -0.0065                  7.855836396521002E-6
0.0025                    -0.0055                  1.041399589730818E-5
0.0025                    -0.0045                  1.575190605573738E-5
0.0025                    -0.0035                  2.745400376642011E-5
0.0025                    -0.0025                  5.395470562209829E-5
0.0025                    -0.0015                  1.2083222968855931E-4
0.0025                    -5.0E-4                  2.9481471541271964E-4
0.0025                    5.0E-4                   8.764082068071136E-4
0.0025                    0.0015                   0.0025766377239053147
0.0025                    0.0025                   0.006186348574653738
0.0025                    0.0035                   0.011242106201453387
0.0025                    0.0045                   0.016078348619352194
0.0025                    0.0055                   0.01966085123622322
0.0025                    0.0065                   0.02194700931764101
0.0025                    0.0075                   0.02322585588649544
0.0025                    0.0085                   0.023713844227250695
0.0025                    0.0095                   0.023403631531329044
0.0025                    0.0105                   0.021977362198180955
0.0025                    0.0115                   0.018879696705765045
0.0025                    0.0125                   0.013569963878448532
0.0025                    0.0135                   0.006518106049192712
0.0025                    0.0145                   0.0018818079806733096
0.0025                    0.0155                   0.00504475853612862
0.0025                    0.0165                   0.006000755152869017
0.0025                    0.0175                   0.005389873723980737
0.0025                    0.0185                   0.004474176866584251
0.0025                    0.0195                   0.003957757418149404
0.0025                    0.0205                   0.004231730894067539
0.0025                    0.0215                   0.02755325285320826
0.0025                    0.0225                   0.05336539331381926
0.0025                    0.0235                   0.05784804783239385
0.0025                    0.0245                   0.036932609150644786
0.0025                    0.0255                   0.010957257686182968
0.0025                    0.0265                   2.762533219705844E-4
0.0025                    0.0275                   0.0011218077550010795
0.0025                    0.0285                   2.804111320612325E-4
0.0025                    0.0295                   5.5273931523306487E-5
0.0025                    0.0305                   1.113423583597562E-5
0.0025                    0.0315                   2.0152259490454685E-6
0.0035                    -0.0315                  2.667190006699751E-6
0.0035                    -0.0305                  5.101215701884257E-6
0.0035                    -0.0295                  5.393348487986913E-6
0.0035                    -0.0285                  5.829907974896564E-6
0.0035                    -0.0275                  5.860651445374868E-6
0.0035                    -0.0265                  5.768884285863499E-6
0.0035                    -0.0255                  5.617086300528382E-6
0.0035                    -0.0245                  5.464498376615636E-6
0.0035                    -0.0235                  5.331468179176275E-6
0.0035                    -0.0225                  5.230694113830207E-6
0.0035                    -0.0215                  5.1689241748182275E-6
0.0035                    -0.0205                  5.146642520358364E-6
0.0035                    -0.0195                  5.155741704877141E-6
0.0035                    -0.0185                  5.181630795873499E-6
0.0035                    -0.0175                  5.205322477537549E-6
0.0035                    -0.0165                  5.207440334451178E-6
0.0035                    -0.0155                  5.1819968674933665E-6
0.0035                    -0.0145                  5.138682868631695E-6
0.0035                    -0.0135                  5.089829579749244E-6
0.0035                    -0.0125                  5.047294256504677E-6
0.0035                    -0.0115                  5.047946932554269E-6
0.0035                    -0.0105                  5.162670617508321E-6
0.0035                    -0.0095                  5.478884756944139E-6
0.0035                    -0.0085                  6.110035965378848E-6
0.0035                    -0.0075                  7.270698414119538E-6
0.0035                    -0.0065                  9.467481046902488E-6
0.0035                    -0.0055                  1.3957157811594901E-5
0.0035                    -0.0045                  2.384080723003111E-5
0.0035                    -0.0035                  4.7213690688192244E-5
0.0035                    -0.0025                  1.0128383332410078E-4
0.0035                    -0.0015                  2.215816561350842E-4
0.0035                    -5.0E-4                  5.849568607486274E-4
0.0035                    5.0E-4                   0.0018378483268907647
0.0035                    0.0015                   0.005636705665949688
0.0035                    0.0025                   0.01195743903855956
0.0035                    0.0035                   0.01807681427930939
0.0035                    0.0045                   0.022179861485154453
0.0035                    0.0055                   0.024435089052949072
0.0035                    0.0065                   0.025690297135968335
0.0035                    0.0075                   0.02662814159690697
0.0035                    0.0085                   0.027625452147664816
0.0035                    0.0095                   0.02868643185733256
0.0035                    0.0105                   0.029373058703950374
0.0035                    0.0115                   0.028834407932147053
0.0035                    0.0125                   0.025983539082814238
0.0035                    0.0135                   0.020042273546946727
0.0035                    0.0145                   0.011523247357723577
0.0035                    0.0155                   0.0034753682799370726
0.0035                    0.0165                   0.0033547146949415704
0.0035                    0.0175                   0.005412165884820085
0.0035                    0.0185                   0.004914374234628903
0.0035                    0.0195                   0.0027166931190716064
0.0035                    0.0205                   0.01598912858685312
0.0035                    0.0215                   0.04026938327667432
0.0035                    0.0225                   0.05620167423991441
0.0035                    0.0235                   0.0521341902370171
0.0035                    0.0245                   0.0283980819023615
0.0035                    0.0255                   0.006078642512750168
0.0035                    0.0265                   8.029016549311153E-4
0.0035                    0.0275                   9.327170674442474E-4
0.0035                    0.0285                   2.3758994809690255E-4
0.0035                    0.0295                   4.860286948656488E-5
0.0035                    0.0305                   8.804312324453573E-6
0.0035                    0.0315                   1.7517554638460654E-6
0.0045                    -0.0315                  2.7866011107533745E-6
0.0045                    -0.0305                  5.16798888203629E-6
0.0045                    -0.0295                  5.329419384724524E-6
0.0045                    -0.0285                  5.8745348418749485E-6
0.0045                    -0.0275                  6.045875559101406E-6
0.0045                    -0.0265                  6.049153479417271E-6
0.0045                    -0.0255                  5.931348173131965E-6
0.0045                    -0.0245                  5.7713382082808454E-6
0.0045                    -0.0235                  5.6086564805052135E-6
0.0045                    -0.0225                  5.4684472576706695E-6
0.0045                    -0.0215                  5.364361555561931E-6
0.0045                    -0.0205                  5.303096601254112E-6
0.0045                    -0.0195                  5.284202428526631E-6
0.0045                    -0.0185                  5.298819516243774E-6
0.0045                    -0.0175                  5.330125780118325E-6
0.0045                    -0.0165                  5.3564145393114265E-6
0.0045                    -0.0155                  5.355366634674761E-6
0.0045                    -0.0145                  5.3131103934114055E-6
0.0045                    -0.0135                  5.237658911288152E-6
0.0045                    -0.0125                  5.170415713157713E-6
0.0045                    -0.0115                  5.185094723125821E-6
0.0045                    -0.0105                  5.38402067083579E-6
0.0045                    -0.0095                  5.911581018868067E-6
0.0045                    -0.0085                  6.992006456601693E-6
0.0045                    -0.0075                  9.024882858706896E-6
0.0045                    -0.0065                  1.2933014915423354E-5
0.0045                    -0.0055                  2.103400119501609E-5
0.0045                    -0.0045                  4.000441621520699E-5
0.0045                    -0.0035                  8.895741227926785E-5
0.0045                    -0.0025                  2.329699197642544E-4
0.0045                    -0.0015                  5.640710864643081E-4
0.0045                    -5.0E-4                  0.0013964742189949654
0.0045                    5.0E-4                   0.0042382525524461674
0.0045                    0.0015                   0.010804881689500027
0.0045                    0.0025                   0.01859463603227077
0.0045                    0.0035                   0.023442062108287916
0.0045                    0.0045                   0.025023321950343534
0.0045                    0.0055                   0.024912387373035055
0.0045                    0.0065                   0.024284798130457596
0.0045                    0.0075                   0.024024140458440625
0.0045                    0.0085                   0.02480717884127721
0.0045                    0.0095                   0.02682505294491705
0.0045                    0.0105                   0.029618576032454623
0.0045                    0.0115                   0.03216286430758772
0.0045                    0.0125                   0.03312149185829058
0.0045                    0.0135                   0.03120605938131969
0.0045                    0.0145                   0.02569940071636588
0.0045                    0.0155                   0.017480653881622562
0.0045                    0.0165                   0.009095534098952796
0.0045                    0.0175                   0.0037628008998089506
0.0045                    0.0185                   0.004796925659499272
0.0045                    0.0195                   0.013884139045684044
0.0045                    0.0205                   0.03164094682231841
0.0045                    0.0215                   0.048935601224454436
0.0045                    0.0225                   0.05484701962759334
0.0045                    0.0235                   0.043628605223138134
0.0045                    0.0245                   0.019045137838743596
0.0045                    0.0255                   0.00201574950407102
0.0045                    0.0265                   9.183733706485626E-4
0.0045                    0.0275                   6.046606343261726E-4
0.0045                    0.0285                   1.7239436881531873E-4
0.0045                    0.0295                   4.2342449422246314E-5
0.0045                    0.0305                   8.770897105356083E-6
0.0045                    0.0315                   1.7407344567149237E-6
0.0055                    -0.0315                  2.9154276500224237E-6
0.0055                    -0.0305                  5.270466982481052E-6
0.0055                    -0.0295                  5.272216674816339E-6
0.0055                    -0.0285                  5.8503334143861835E-6
0.0055                    -0.0275                  6.1260131946935706E-6
0.0055                    -0.0265                  6.244272819098556E-6
0.0055                    -0.0255                  6.203626745971229E-6
0.0055                    -0.0245                  6.076533452323969E-6
0.0055                    -0.0235                  5.912536653003702E-6
0.0055                    -0.0225                  5.750226316163577E-6
0.0055                    -0.0215                  5.6155196807752106E-6
0.0055                    -0.0205                  5.5256473713386184E-6
0.0055                    -0.0195                  5.489569869200686E-6
0.0055                    -0.0185                  5.5071888132839885E-6
0.0055                    -0.0175                  5.567601615329816E-6
0.0055                    -0.0165                  5.648241092602868E-6
0.0055                    -0.0155                  5.718112015514866E-6
0.0055                    -0.0145                  5.748960935758942E-6
0.0055                    -0.0135                  5.738308430805325E-6
0.0055                    -0.0125                  5.738399654790386E-6
0.0055                    -0.0115                  5.873861179338716E-6
0.0055                    -0.0105                  6.331860776570981E-6
0.0055                    -0.0095                  7.367408187662848E-6
0.0055                    -0.0085                  9.416688433685781E-6
0.0055                    -0.0075                  1.3273013692854386E-5
0.0055                    -0.0065                  2.0463830725661224E-5
0.0055                    -0.0055                  3.560132619301948E-5
0.0055                    -0.0045                  7.28678477864177E-5
0.0055                    -0.0035                  1.8537377169446355E-4
0.0055                    -0.0025                  5.17268466120634E-4
0.0055                    -0.0015                  0.0012537553192321369
0.0055                    -5.0E-4                  0.0031820747756844733
0.0055                    5.0E-4                   0.008536226587227193
0.0055                    0.0015                   0.017183445107710776
0.0055                    0.0025                   0.024177205515955248
0.0055                    0.0035                   0.026276888379391922
0.0055                    0.0045                   0.024772872483053012
0.0055                    0.0055                   0.02162530458742253
0.0055                    0.0065                   0.018305322888698263
0.0055                    0.0075                   0.016140774076367815
0.0055                    0.0085                   0.0159547950862984
0.0055                    0.0095                   0.018031448431036916
0.0055                    0.0105                   0.022138511580370668
0.0055                    0.0115                   0.02746798470197757
0.0055                    0.0125                   0.032489258633569926
0.0055                    0.0135                   0.0354161387160169
0.0055                    0.0145                   0.03485990845838405
0.0055                    0.0155                   0.030597463072254878
0.0055                    0.0165                   0.024289666984702845
0.0055                    0.0175                   0.019381327821982496
0.0055                    0.0185                   0.020491982554662027
0.0055                    0.0195                   0.029783652856345058
0.0055                    0.0205                   0.04273498851269549
0.0055                    0.0215                   0.05130910537799832
0.0055                    0.0225                   0.04916496756437129
0.0055                    0.0235                   0.03242464598292809
0.0055                    0.0245                   0.01024089243908595
0.0055                    0.0255                   5.134161035501187E-4
0.0055                    0.0265                   8.502173678438258E-4
0.0055                    0.0275                   3.50242184902729E-4
0.0055                    0.0285                   1.1089472641337684E-4
0.0055                    0.0295                   3.149779759911882E-5
0.0055                    0.0305                   8.77663001350955E-6
0.0055                    0.0315                   1.9636428858771206E-6
0.0065                    -0.0315                  3.087725379898256E-6
0.0065                    -0.0305                  5.425502509088547E-6
0.0065                    -0.0295                  5.217653479993907E-6
0.0065                    -0.0285                  5.785173908166202E-6
0.0065                    -0.0275                  6.1133010090019754E-6
0.0065                    -0.0265                  6.321593232889616E-6
0.0065                    -0.0255                  6.364334547381149E-6
0.0065                    -0.0245                  6.290926316856135E-6
0.0065                    -0.0235                  6.146509177927037E-6
0.0065                    -0.0225                  5.976584643166544E-6
0.0065                    -0.0215                  5.817847795635281E-6
0.0065                    -0.0205                  5.6996573443545715E-6
0.0065                    -0.0195                  5.643778856745326E-6
0.0065                    -0.0185                  5.663400378919685E-6
0.0065                    -0.0175                  5.761290778543769E-6
0.0065                    -0.0165                  5.927313849000865E-6
0.0065                    -0.0155                  6.137361833559105E-6
0.0065                    -0.0145                  6.361217657258729E-6
0.0065                    -0.0135                  6.59187787002363E-6
0.0065                    -0.0125                  6.901890836354289E-6
0.0065                    -0.0115                  7.500011994204287E-6
0.0065                    -0.0105                  8.752021016030098E-6
0.0065                    -0.0095                  1.1096415133743594E-5
0.0065                    -0.0085                  1.5205985263679961E-5
0.0065                    -0.0075                  2.304856667127923E-5
0.0065                    -0.0065                  3.832346932514712E-5
0.0065                    -0.0055                  6.813375529911446E-5