% Model:              Benchmark260518.mph
% Version:            COMSOL 6.2.0.339
% Date:               May 19 2026, 23:33
% Dimension:          2
% Nodes:              4096
% Expressions:        1
% Description:        速度大小
% Length unit:        m
% x                       y                        spf.U (m/s)
5.0E-4                    -0.0315                  1.5789753421856963E-6
5.0E-4                    -0.0305                  3.1320116423848023E-6
5.0E-4                    -0.0295                  3.4957918321149073E-6
5.0E-4                    -0.0285                  3.904664257392027E-6
5.0E-4                    -0.0275                  4.113700731564158E-6
5.0E-4                    -0.0265                  4.30760689187963E-6
5.0E-4                    -0.0255                  4.4600571012340945E-6
5.0E-4                    -0.0245                  4.603513286842751E-6
5.0E-4                    -0.0235                  4.754317346926992E-6
5.0E-4                    -0.0225                  4.938015706954507E-6
5.0E-4                    -0.0215                  5.206343443571744E-6
5.0E-4                    -0.0205                  5.676836721463375E-6
5.0E-4                    -0.0195                  6.535094350964059E-6
5.0E-4                    -0.0185                  8.323617609945353E-6
5.0E-4                    -0.0175                  1.3977660405696195E-5
5.0E-4                    -0.0165                  3.2439604601697285E-5
5.0E-4                    -0.0155                  9.322683986754929E-5
5.0E-4                    -0.0145                  1.937160281211689E-4
5.0E-4                    -0.0135                  2.9404283088779645E-4
5.0E-4                    -0.0125                  4.069107051223606E-4
5.0E-4                    -0.0115                  5.956239648558387E-4
5.0E-4                    -0.0105                  8.906176426496382E-4
5.0E-4                    -0.0095                  0.0012289751586762028
5.0E-4                    -0.0085                  0.0015167272418457867
5.0E-4                    -0.0075                  0.0017068998256656366
5.0E-4                    -0.0065                  0.0018916788882337365
5.0E-4                    -0.0055                  0.002401013313658348
5.0E-4                    -0.0045                  0.003965245585027248
5.0E-4                    -0.0035                  0.009427895039243383
5.0E-4                    -0.0025                  0.01492105293395074
5.0E-4                    -0.0015                  0.016468536414568854
5.0E-4                    -5.0E-4                  0.01730559420092404
5.0E-4                    5.0E-4                   0.017433690327941478
5.0E-4                    0.0015                   0.016833199486612736
5.0E-4                    0.0025                   0.015416557139781113
5.0E-4                    0.0035                   0.009721925726225492
5.0E-4                    0.0045                   0.0038141047792436935
5.0E-4                    0.0055                   0.001923419745944612
5.0E-4                    0.0065                   0.001214415087817422
5.0E-4                    0.0075                   9.127828079675554E-4
5.0E-4                    0.0085                   7.021398428633832E-4
5.0E-4                    0.0095                   5.235487774235125E-4
5.0E-4                    0.0105                   4.0962574770402407E-4
5.0E-4                    0.0115                   3.39080079465565E-4
5.0E-4                    0.0125                   2.53451981027033E-4
5.0E-4                    0.0135                   1.4460730365875699E-4
5.0E-4                    0.0145                   6.312668521566525E-5
5.0E-4                    0.0155                   2.7322315397106544E-5
5.0E-4                    0.0165                   1.3616416973302593E-5
5.0E-4                    0.0175                   9.029088326150299E-6
5.0E-4                    0.0185                   7.270577605859128E-6
5.0E-4                    0.0195                   6.449760496749412E-6
5.0E-4                    0.0205                   5.9951499330831585E-6
5.0E-4                    0.0215                   5.699838655842332E-6
5.0E-4                    0.0225                   5.4885219618504935E-6
5.0E-4                    0.0235                   5.313580186888189E-6
5.0E-4                    0.0245                   5.146433684210279E-6
5.0E-4                    0.0255                   4.965748470106789E-6
5.0E-4                    0.0265                   4.748481877688211E-6
5.0E-4                    0.0275                   4.4351606821567305E-6
5.0E-4                    0.0285                   4.077112036449538E-6
5.0E-4                    0.0295                   3.618348318865426E-6
5.0E-4                    0.0305                   3.3203715066570614E-6
5.0E-4                    0.0315                   1.6967668023227217E-6
0.0015                    -0.0315                  3.0336994853412903E-6
0.0015                    -0.0305                  5.947756293651771E-6
0.0015                    -0.0295                  6.341001466637229E-6
0.0015                    -0.0285                  6.748341572841502E-6
0.0015                    -0.0275                  6.859407693738244E-6
0.0015                    -0.0265                  6.9690807646683564E-6
0.0015                    -0.0255                  7.059339531184506E-6
0.0015                    -0.0245                  7.165380338122886E-6
0.0015                    -0.0235                  7.307417643625884E-6
0.0015                    -0.0225                  7.525438708189474E-6
0.0015                    -0.0215                  7.913929674226786E-6
0.0015                    -0.0205                  8.694974105462976E-6
0.0015                    -0.0195                  1.0337741744687377E-5
0.0015                    -0.0185                  1.4210157718836234E-5
0.0015                    -0.0175                  2.507321033897066E-5
0.0015                    -0.0165                  5.74382479503061E-5
0.0015                    -0.0155                  1.62985546726456E-4
0.0015                    -0.0145                  3.6695502977647103E-4
0.0015                    -0.0135                  7.067459598525804E-4
0.0015                    -0.0125                  0.001336568986492447
0.0015                    -0.0115                  0.0023734057158924836
0.0015                    -0.0105                  0.0036896417102645685
0.0015                    -0.0095                  0.005018619950694379
0.0015                    -0.0085                  0.006151593560370668
0.0015                    -0.0075                  0.007015452099534919
0.0015                    -0.0065                  0.007768629979218472
0.0015                    -0.0055                  0.008846027262692277
0.0015                    -0.0045                  0.010780319371646727
0.0015                    -0.0035                  0.013000960302247499
0.0015                    -0.0025                  0.014118708257795284
0.0015                    -0.0015                  0.014335464868251876
0.0015                    -5.0E-4                  0.014529886191218993
0.0015                    5.0E-4                   0.014680605469480947
0.0015                    0.0015                   0.01475523642588849
0.0015                    0.0025                   0.014686702098684843
0.0015                    0.0035                   0.01341084941385376
0.0015                    0.0045                   0.010623106142492936
0.0015                    0.0055                   0.007986415352996353
0.0015                    0.0065                   0.006306939698906207
0.0015                    0.0075                   0.005060524014626818
0.0015                    0.0085                   0.0038731924586016798
0.0015                    0.0095                   0.002688922976839055
0.0015                    0.0105                   0.001668961725640915
0.0015                    0.0115                   9.716812488752421E-4
0.0015                    0.0125                   5.53765628904015E-4
0.0015                    0.0135                   2.884177408452193E-4
0.0015                    0.0145                   1.2764309662328333E-4
0.0015                    0.0155                   5.150439854488411E-5
0.0015                    0.0165                   2.4086536913287027E-5
0.0015                    0.0175                   1.4755611386652006E-5
0.0015                    0.0185                   1.1247719698342862E-5
0.0015                    0.0195                   9.738520413369545E-6
0.0015                    0.0205                   8.993934416795759E-6
0.0015                    0.0215                   8.577027990731321E-6
0.0015                    0.0225                   8.321588796713636E-6
0.0015                    0.0235                   8.142555440455536E-6
0.0015                    0.0245                   7.995267738147842E-6
0.0015                    0.0255                   7.852932928220711E-6
0.0015                    0.0265                   7.689625399015973E-6
0.0015                    0.0275                   7.4430461571621765E-6
0.0015                    0.0285                   7.166864299470613E-6
0.0015                    0.0295                   6.697974477939643E-6
0.0015                    0.0305                   6.378469357466811E-6
0.0015                    0.0315                   3.2816136374665143E-6
0.0025                    -0.0315                  3.1293323704015696E-6
0.0025                    -0.0305                  5.939739499287198E-6
0.0025                    -0.0295                  6.004853561128761E-6
0.0025                    -0.0285                  6.1382035990698124E-6
0.0025                    -0.0275                  5.949971016337575E-6
0.0025                    -0.0265                  5.736205349994864E-6
0.0025                    -0.0255                  5.544098559783664E-6
0.0025                    -0.0245                  5.406990326062995E-6
0.0025                    -0.0235                  5.3419236956792464E-6
0.0025                    -0.0225                  5.389332870647182E-6
0.0025                    -0.0215                  5.660317526129017E-6
0.0025                    -0.0205                  6.435892988159661E-6
0.0025                    -0.0195                  8.433462767819514E-6
0.0025                    -0.0185                  1.3583480050890522E-5
0.0025                    -0.0175                  2.677157715765084E-5
0.0025                    -0.0165                  6.153663438503385E-5
0.0025                    -0.0155                  1.8611882792411084E-4
0.0025                    -0.0145                  5.45222940194201E-4
0.0025                    -0.0135                  0.001433404169630494
0.0025                    -0.0125                  0.003170562713740506
0.0025                    -0.0115                  0.005605067610153434
0.0025                    -0.0105                  0.008139014235180724
0.0025                    -0.0095                  0.010301205103262085
0.0025                    -0.0085                  0.011947725274692232
0.0025                    -0.0075                  0.013149705812792414
0.0025                    -0.0065                  0.014014775854397723
0.0025                    -0.0055                  0.014530711774390873
0.0025                    -0.0045                  0.014490544531622785
0.0025                    -0.0035                  0.013801283320232203
0.0025                    -0.0025                  0.012678578227045986
0.0025                    -0.0015                  0.011573784498339693
0.0025                    -5.0E-4                  0.011010982556756338
0.0025                    5.0E-4                   0.01118428501061263
0.0025                    0.0015                   0.01204344084615895
0.0025                    0.0025                   0.013309463924495701
0.0025                    0.0035                   0.014384266009048666
0.0025                    0.0045                   0.014763041299632313
0.0025                    0.0055                   0.01427321184030248
0.0025                    0.0065                   0.013104292139866648
0.0025                    0.0075                   0.011513781850683035
0.0025                    0.0085                   0.009495935811156068
0.0025                    0.0095                   0.007047310658325048
0.0025                    0.0105                   0.004453545004099831
0.0025                    0.0115                   0.002306499982338624
0.0025                    0.0125                   0.001021704608547575
0.0025                    0.0135                   4.3012189434461784E-4
0.0025                    0.0145                   1.6787105723760853E-4
0.0025                    0.0155                   5.747395556021967E-5
0.0025                    0.0165                   2.414301811481333E-5
0.0025                    0.0175                   1.282036024746958E-5
0.0025                    0.0185                   8.576991802483291E-6
0.0025                    0.0195                   6.895551901300417E-6
0.0025                    0.0205                   6.210508531223621E-6
0.0025                    0.0215                   5.948805894660764E-6
0.0025                    0.0225                   5.883653234394395E-6
0.0025                    0.0235                   5.919784253815347E-6
0.0025                    0.0245                   6.017965610690722E-6
0.0025                    0.0255                   6.1626765842933005E-6
0.0025                    0.0265                   6.342744447412029E-6
0.0025                    0.0275                   6.526396179213531E-6
0.0025                    0.0285                   6.688432559891446E-6
0.0025                    0.0295                   6.535789284328839E-6
0.0025                    0.0305                   6.517272721325579E-6
0.0025                    0.0315                   3.452636557879468E-6
0.0035                    -0.0315                  3.3054735121820303E-6
0.0035                    -0.0305                  6.107164501931905E-6
0.0035                    -0.0295                  6.152877967225288E-6
0.0035                    -0.0285                  6.481305350148309E-6
0.0035                    -0.0275                  6.376090331884725E-6
0.0035                    -0.0265                  6.155257944512416E-6
0.0035                    -0.0255                  5.906306669894181E-6
0.0035                    -0.0245                  5.710549650832799E-6
0.0035                    -0.0235                  5.610124539506664E-6
0.0035                    -0.0225                  5.67252022705649E-6
0.0035                    -0.0215                  6.0668052150746906E-6
0.0035                    -0.0205                  7.232969374748598E-6
0.0035                    -0.0195                  1.0256086575433727E-5
0.0035                    -0.0185                  1.7769134492948786E-5
0.0035                    -0.0175                  3.8635122143844726E-5
0.0035                    -0.0165                  1.092760362751426E-4
0.0035                    -0.0155                  3.51206127101434E-4
0.0035                    -0.0145                  0.00111899222091091
0.0035                    -0.0135                  0.0030740994760207452
0.0035                    -0.0125                  0.006230188031769127
0.0035                    -0.0115                  0.009557073143013604
0.0035                    -0.0105                  0.012145601620461443
0.0035                    -0.0095                  0.013845165831594546
0.0035                    -0.0085                  0.014895943473137692
0.0035                    -0.0075                  0.015494672211971117
0.0035                    -0.0065                  0.015708298856063167
0.0035                    -0.0055                  0.01540146227750936
0.0035                    -0.0045                  0.014423239203880162
0.0035                    -0.0035                  0.01277008751960287
0.0035                    -0.0025                  0.010628461348452046
0.0035                    -0.0015                  0.008490814260049639
0.0035                    -5.0E-4                  0.007138224441301727
0.0035                    5.0E-4                   0.007320982631486621
0.0035                    0.0015                   0.008968602773170983
0.0035                    0.0025                   0.011298157626826521
0.0035                    0.0035                   0.013564769961141874
0.0035                    0.0045                   0.015284967532043107
0.0035                    0.0055                   0.01622554378532229
0.0035                    0.0065                   0.01631148250868937
0.0035                    0.0075                   0.015592427123813046
0.0035                    0.0085                   0.014127074885347793
0.0035                    0.0095                   0.011821831343474191
0.0035                    0.0105                   0.00860968791616349
0.0035                    0.0115                   0.005017246447871782
0.0035                    0.0125                   0.0022099014981994455
0.0035                    0.0135                   7.862966942160407E-4
0.0035                    0.0145                   2.587192138959865E-4
0.0035                    0.0155                   7.78618325311675E-5
0.0035                    0.0165                   3.136311339676197E-5
0.0035                    0.0175                   1.5795519130187805E-5
0.0035                    0.0185                   9.846302613863562E-6
0.0035                    0.0195                   7.447587603582357E-6
0.0035                    0.0205                   6.478207084281236E-6
0.0035                    0.0215                   6.123708443014181E-6
0.0035                    0.0225                   6.052816798401629E-6
0.0035                    0.0235                   6.12421309097067E-6
0.0035                    0.0245                   6.281597191228331E-6
0.0035                    0.0255                   6.499252018159368E-6
0.0035                    0.0265                   6.750655189619336E-6
0.0035                    0.0275                   6.961564634799248E-6
0.0035                    0.0285                   7.065431434493616E-6
0.0035                    0.0295                   6.741660916746341E-6
0.0035                    0.0305                   6.85345950852332E-6
0.0035                    0.0315                   3.7660641500248392E-6
0.0045                    -0.0315                  3.379579388537564E-6
0.0045                    -0.0305                  6.142047639674884E-6
0.0045                    -0.0295                  6.147237563751055E-6
0.0045                    -0.0285                  6.619910212172956E-6
0.0045                    -0.0275                  6.668011700643206E-6
0.0045                    -0.0265                  6.528470746344505E-6
0.0045                    -0.0255                  6.297170395913886E-6
0.0045                    -0.0245                  6.104019450859263E-6
0.0045                    -0.0235                  6.038843357683739E-6
0.0045                    -0.0225                  6.217300193659363E-6
0.0045                    -0.0215                  6.897614860458464E-6
0.0045                    -0.0205                  8.741585085416395E-6
0.0045                    -0.0195                  1.3442998487986336E-5
0.0045                    -0.0185                  2.5707888660777E-5
0.0045                    -0.0175                  6.0542468628665154E-5
0.0045                    -0.0165                  2.0238592716289515E-4
0.0045                    -0.0155                  6.792529713970566E-4
0.0045                    -0.0145                  0.002196028041028679
0.0045                    -0.0135                  0.005542172716261595
0.0045                    -0.0125                  0.009651340814477945
0.0045                    -0.0115                  0.012521785465285594
0.0045                    -0.0105                  0.013655460141801676
0.0045                    -0.0095                  0.01360025238111937
0.0045                    -0.0085                  0.012994585042244197
0.0045                    -0.0075                  0.012316300413448682
0.0045                    -0.0065                  0.011742258377456733
0.0045                    -0.0055                  0.01115943213019781
0.0045                    -0.0045                  0.010296666745503117
0.0045                    -0.0035                  0.008955610856866664
0.0045                    -0.0025                  0.0071620317449240046
0.0045                    -0.0015                  0.005171923282544724
0.0045                    -5.0E-4                  0.0036373243994562653
0.0045                    5.0E-4                   0.003799917346213933
0.0045                    0.0015                   0.0055756489553992015
0.0045                    0.0025                   0.0077923022601995365
0.0045                    0.0035                   0.009877115873064411
0.0045                    0.0045                   0.01158021870979125
0.0045                    0.0055                   0.012868409057433403
0.0045                    0.0065                   0.013864638817895207
0.0045                    0.0075                   0.014625530382491422
0.0045                    0.0085                   0.014953201096289663
0.0045                    0.0095                   0.0144083943588452
0.0045                    0.0105                   0.012386014193939447
0.0045                    0.0115                   0.008574217911592767
0.0045                    0.0125                   0.0042170469287950456
0.0045                    0.0135                   0.0014229666493159395
0.0045                    0.0145                   4.0366322449311666E-4
0.0045                    0.0155                   1.1531876369620142E-4
0.0045                    0.0165                   4.545135093090603E-5
0.0045                    0.0175                   2.159790090258079E-5
0.0045                    0.0185                   1.264254741053483E-5
0.0045                    0.0195                   8.905559872871533E-6
0.0045                    0.0205                   7.334308147821005E-6
0.0045                    0.0215                   6.695652435684476E-6
0.0045                    0.0225                   6.482756716628232E-6
0.0045                    0.0235                   6.484333694517588E-6
0.0045                    0.0245                   6.618207965303836E-6
0.0045                    0.0255                   6.835036897370917E-6
0.0045                    0.0265                   7.070630323144629E-6
0.0045                    0.0275                   7.206176284825114E-6
0.0045                    0.0285                   7.172339138729162E-6
0.0045                    0.0295                   6.733073843456448E-6
0.0045                    0.0305                   7.04993033978018E-6
0.0045                    0.0315                   3.998718972321853E-6
0.0055                    -0.0315                  3.5087346838494526E-6
0.0055                    -0.0305                  6.285569701347649E-6
0.0055                    -0.0295                  6.2248708871334884E-6
0.0055                    -0.0285                  6.8135900119868575E-6
0.0055                    -0.0275                  7.025123099525217E-6
0.0055                    -0.0265                  7.0307500338383864E-6
0.0055                    -0.0255                  6.901954506170654E-6
0.0055                    -0.0245                  6.811800927854434E-6
0.0055                    -0.0235                  6.920930824670205E-6
0.0055                    -0.0225                  7.425676844887547E-6
0.0055                    -0.0215                  8.735099321981233E-6
0.0055                    -0.0205                  1.1893861585324684E-5
0.0055                    -0.0195                  1.954314398392131E-5
0.0055                    -0.0185                  4.097442293335781E-5
0.0055                    -0.0175                  1.1457743846358773E-4
0.0055                    -0.0165                  3.764544001738463E-4
0.0055                    -0.0155                  0.0012358903055414254
0.0055                    -0.0145                  0.003819577547317564
0.0055                    -0.0135                  0.00838680514846833
0.0055                    -0.0125                  0.012431981956460664
0.0055                    -0.0115                  0.013742597458748956
0.0055                    -0.0105                  0.012618655046833762
0.0055                    -0.0095                  0.010305979860808558
0.0055                    -0.0085                  0.008004495324392473
0.0055                    -0.0075                  0.00640931964826232
0.0055                    -0.0065                  0.005512275354850832
0.0055                    -0.0055                  0.0049915496483960535
0.0055                    -0.0045                  0.0045387726698064255
0.0055                    -0.0035                  0.003955560492921992
0.0055                    -0.0025                  0.0031655674007314513
0.0055                    -0.0015                  0.002212201345238694
0.0055                    -5.0E-4                  0.001369249288265823
0.0055                    5.0E-4                   0.001474794486910915
0.0055                    0.0015                   0.0024593371134280116
0.0055                    0.0025                   0.003573391395046944
0.0055                    0.0035                   0.0045996967335070115
0.0055                    0.0045                   0.005520124846411371
0.0055                    0.0055                   0.006475746321598806
0.0055                    0.0065                   0.0077591775996081426
0.0055                    0.0075                   0.009671700189585294
0.0055                    0.0085                   0.012094652349881326
0.0055                    0.0095                   0.014162786063273512
0.0055                    0.0105                   0.014558954811635997
0.0055                    0.0115                   0.011998400053721563
0.0055                    0.0125                   0.006944941244520504
0.0055                    0.0135                   0.002596363325124275
0.0055                    0.0145                   7.396604215787136E-4
0.0055                    0.0155                   2.2368373001960113E-4
0.0055                    0.0165                   7.760081385411908E-5
0.0055                    0.0175                   3.504447943533479E-5
0.0055                    0.0185                   1.9245304653432706E-5
0.0055                    0.0195                   1.2696640358000541E-5
0.0055                    0.0205                   9.718451777521823E-6
0.0055                    0.0215                   8.308609220865445E-6
0.0055                    0.0225                   7.616187269498282E-6
0.0055                    0.0235                   7.3105066161198365E-6
0.0055                    0.0245                   7.258484589103328E-6
0.0055                    0.0255                   7.359662590842577E-6
0.0055                    0.0265                   7.487690114712753E-6
0.0055                    0.0275                   7.482271906326669E-6
0.0055                    0.0285                   7.302457877280428E-6
0.0055                    0.0295                   6.781162475237505E-6
0.0055                    0.0305                   7.25759147566197E-6
0.0055                    0.0315                   4.198556425614256E-6
0.0065                    -0.0315                  3.665704853421484E-6
0.0065                    -0.0305                  6.474253445822073E-6
0.0065                    -0.0295                  6.331734865813428E-6
0.0065                    -0.0285                  7.03653709604085E-6
0.0065                    -0.0275                  7.428626763289849E-6
0.0065                    -0.0265                  7.642660046629287E-6
0.0065                    -0.0255                  7.735065981652697E-6
0.0065                    -0.0245                  7.941634648275416E-6
0.0065                    -0.0235                  8.543068109087016E-6
0.0065                    -0.0225                  9.863564855175002E-6
0.0065                    -0.0215                  1.2489602208515556E-5
0.0065                    -0.0205                  1.809155785941384E-5
0.0065                    -0.0195                  3.1667128428707814E-5
0.0065                    -0.0185                  6.798005740256787E-5
0.0065                    -0.0175                  2.0771902346869921E-4
0.0065                    -0.0165                  6.639869536434849E-4
0.0065                    -0.0155                  0.0021256303779118575
0.0065                    -0.0145                  0.005867910995883121
0.0065                    -0.0135                  0.011027777727841826
0.0065                    -0.0125                  0.014072563073601272
0.0065                    -0.0115                  0.013314824336844076
0.0065                    -0.0105                  0.009980381799547267
0.0065                    -0.0095                  0.006217829890581046
0.0065                    -0.0085                  0.003627223792357078
0.0065                    -0.0075                  0.0023255839768746185
0.0065                    -0.0065                  0.001732936530160375
0.0065                    -0.0055                  0.0014559088132863984