% Model:              Benchmark260518.mph
% Version:            COMSOL 6.2.0.339
% Date:               May 21 2026, 09:24
% Dimension:          2
% Nodes:              4096
% Expressions:        1
% Description:        速度大小
% Length unit:        m
% x                       y                        spf.U (m/s)
5.0E-4                    -0.0315                  1.2989122500508177E-6
5.0E-4                    -0.0305                  2.621152599256187E-6
5.0E-4                    -0.0295                  2.955480895232463E-6
5.0E-4                    -0.0285                  3.289996369883714E-6
5.0E-4                    -0.0275                  3.453815543021549E-6
5.0E-4                    -0.0265                  3.617790904294294E-6
5.0E-4                    -0.0255                  3.7803545470895913E-6
5.0E-4                    -0.0245                  3.938339026069412E-6
5.0E-4                    -0.0235                  4.113894695560911E-6
5.0E-4                    -0.0225                  4.329374453947242E-6
5.0E-4                    -0.0215                  4.570416317771239E-6
5.0E-4                    -0.0205                  4.8703940525774275E-6
5.0E-4                    -0.0195                  5.266948606380385E-6
5.0E-4                    -0.0185                  5.8316342407581435E-6
5.0E-4                    -0.0175                  6.828471577425314E-6
5.0E-4                    -0.0165                  8.979849732220781E-6
5.0E-4                    -0.0155                  1.581576534775756E-5
5.0E-4                    -0.0145                  3.801158613536296E-5
5.0E-4                    -0.0135                  1.1006670086851355E-4
5.0E-4                    -0.0125                  2.210654161132168E-4
5.0E-4                    -0.0115                  2.746405252593241E-4
5.0E-4                    -0.0105                  2.740338791274048E-4
5.0E-4                    -0.0095                  0.0010809847669155431
5.0E-4                    -0.0085                  0.0046377039536107945
5.0E-4                    -0.0075                  0.013279978954339657
5.0E-4                    -0.0065                  0.017429083349359192
5.0E-4                    -0.0055                  0.013194057880406607
5.0E-4                    -0.0045                  0.0084980794419528
5.0E-4                    -0.0035                  0.004191457110127296
5.0E-4                    -0.0025                  0.0014624665696817225
5.0E-4                    -0.0015                  3.4971040059546217E-4
5.0E-4                    -5.0E-4                  1.1401530686425265E-4
5.0E-4                    5.0E-4                   2.2791722668593912E-4
5.0E-4                    0.0015                   9.612464888682158E-4
5.0E-4                    0.0025                   0.0031477446481897355
5.0E-4                    0.0035                   0.007150241278943678
5.0E-4                    0.0045                   0.012241413874297002
5.0E-4                    0.0055                   0.016891738804819957
5.0E-4                    0.0065                   0.020184203027085585
5.0E-4                    0.0075                   0.01413898914519012
5.0E-4                    0.0085                   0.0040016364461727015
5.0E-4                    0.0095                   6.091880997806233E-4
5.0E-4                    0.0105                   3.0960083997468897E-4
5.0E-4                    0.0115                   2.3415360819513254E-4
5.0E-4                    0.0125                   1.1730733997082319E-4
5.0E-4                    0.0135                   3.989302833883791E-5
5.0E-4                    0.0145                   1.638562472162425E-5
5.0E-4                    0.0155                   9.130244630073503E-6
5.0E-4                    0.0165                   6.846544629993989E-6
5.0E-4                    0.0175                   5.819392813109302E-6
5.0E-4                    0.0185                   5.2514994358403314E-6
5.0E-4                    0.0195                   4.915361668091894E-6
5.0E-4                    0.0205                   4.673164674440506E-6
5.0E-4                    0.0215                   4.489058761399979E-6
5.0E-4                    0.0225                   4.348638316044763E-6
5.0E-4                    0.0235                   4.209894103732329E-6
5.0E-4                    0.0245                   4.077277159720871E-6
5.0E-4                    0.0255                   3.943529951055595E-6
5.0E-4                    0.0265                   3.7945761656162125E-6
5.0E-4                    0.0275                   3.6025411152498353E-6
5.0E-4                    0.0285                   3.39526427012402E-6
5.0E-4                    0.0295                   3.0525985118694137E-6
5.0E-4                    0.0305                   2.696905767667626E-6
5.0E-4                    0.0315                   1.3254635171236395E-6
0.0015                    -0.0315                  2.5433315191422854E-6
0.0015                    -0.0305                  5.062247994725625E-6
0.0015                    -0.0295                  5.471455882303192E-6
0.0015                    -0.0285                  5.8440520566680865E-6
0.0015                    -0.0275                  5.95457417425602E-6
0.0015                    -0.0265                  6.080808547754526E-6
0.0015                    -0.0255                  6.225615461791443E-6
0.0015                    -0.0245                  6.394009779125488E-6
0.0015                    -0.0235                  6.6116244165092345E-6
0.0015                    -0.0225                  6.9062619008332565E-6
0.0015                    -0.0215                  7.27491762218108E-6
0.0015                    -0.0205                  7.765629092420802E-6
0.0015                    -0.0195                  8.454213828232092E-6
0.0015                    -0.0185                  9.519005008440118E-6
0.0015                    -0.0175                  1.1535756164529616E-5
0.0015                    -0.0165                  1.6274252337798806E-5
0.0015                    -0.0155                  3.0176429488067056E-5
0.0015                    -0.0145                  7.259919039837269E-5
0.0015                    -0.0135                  2.0682550525965876E-4
0.0015                    -0.0125                  4.344002096510219E-4
0.0015                    -0.0115                  6.973986971814299E-4
0.0015                    -0.0105                  0.0015537874145258176
0.0015                    -0.0095                  0.005102162473735234
0.0015                    -0.0085                  0.012050343584085584
0.0015                    -0.0075                  0.01766535573563608
0.0015                    -0.0065                  0.01636256549014874
0.0015                    -0.0055                  0.010697378646472595
0.0015                    -0.0045                  0.005518546270104233
0.0015                    -0.0035                  0.002097186842015633
0.0015                    -0.0025                  6.7307272494146E-4
0.0015                    -0.0015                  2.2460853001388543E-4
0.0015                    -5.0E-4                  9.870948571032914E-5
0.0015                    5.0E-4                   1.7751698631463965E-4
0.0015                    0.0015                   5.455322749727082E-4
0.0015                    0.0025                   0.0017213949824307882
0.0015                    0.0035                   0.0047392738971992416
0.0015                    0.0045                   0.00982910628171173
0.0015                    0.0055                   0.015511227304099765
0.0015                    0.0065                   0.02012716633776026
0.0015                    0.0075                   0.019029396237064067
0.0015                    0.0085                   0.010831454125858411
0.0015                    0.0095                   0.0032709390021155556
0.0015                    0.0105                   9.040624006814398E-4
0.0015                    0.0115                   4.7741461146303066E-4
0.0015                    0.0125                   2.241979548365599E-4
0.0015                    0.0135                   7.573432036321799E-5
0.0015                    0.0145                   3.0689697161194616E-5
0.0015                    0.0155                   1.6150664717603578E-5
0.0015                    0.0165                   1.118096397860122E-5
0.0015                    0.0175                   9.095734446562503E-6
0.0015                    0.0185                   8.063489050550487E-6
0.0015                    0.0195                   7.510137827308633E-6
0.0015                    0.0205                   7.171081781793115E-6
0.0015                    0.0215                   6.950459161706059E-6
0.0015                    0.0225                   6.8045040401897575E-6
0.0015                    0.0235                   6.679840705132255E-6
0.0015                    0.0245                   6.573607864753021E-6
0.0015                    0.0255                   6.4781574281761865E-6
0.0015                    0.0265                   6.379227583349952E-6
0.0015                    0.0275                   6.245525371251749E-6
0.0015                    0.0285                   6.09995121040299E-6
0.0015                    0.0295                   5.704768549277087E-6
0.0015                    0.0305                   5.218643625330262E-6
0.0015                    0.0315                   2.5923859483050236E-6
0.0025                    -0.0315                  2.682163363101639E-6
0.0025                    -0.0305                  5.169555689954248E-6
0.0025                    -0.0295                  5.337656824574186E-6
0.0025                    -0.0285                  5.553876777554877E-6
0.0025                    -0.0275                  5.486807564504477E-6
0.0025                    -0.0265                  5.4073336688488825E-6
0.0025                    -0.0255                  5.348575076078853E-6
0.0025                    -0.0245                  5.346615350271366E-6
0.0025                    -0.0235                  5.417705689032601E-6
0.0025                    -0.0225                  5.581223914452487E-6
0.0025                    -0.0215                  5.8630465782974625E-6
0.0025                    -0.0205                  6.306407409737111E-6
0.0025                    -0.0195                  7.0196842221771295E-6
0.0025                    -0.0185                  8.296796043253874E-6
0.0025                    -0.0175                  1.100385287555196E-5
0.0025                    -0.0165                  1.767099804740931E-5
0.0025                    -0.0155                  3.571766754824197E-5
0.0025                    -0.0145                  8.810246351584363E-5
0.0025                    -0.0135                  2.667903593003536E-4
0.0025                    -0.0125                  6.553171534962841E-4
0.0025                    -0.0115                  0.0016048911392377671
0.0025                    -0.0105                  0.004657958614039299
0.0025                    -0.0095                  0.010403017707404608
0.0025                    -0.0085                  0.015841081419364456
0.0025                    -0.0075                  0.017094796960521297
0.0025                    -0.0065                  0.0130371524455027
0.0025                    -0.0055                  0.007178497289894239
0.0025                    -0.0045                  0.0031275791295162702
0.0025                    -0.0035                  0.0011579563487602376
0.0025                    -0.0025                  4.3440152127184964E-4
0.0025                    -0.0015                  1.48895449113124E-4
0.0025                    -5.0E-4                  6.844660989373274E-5
0.0025                    5.0E-4                   1.0386143276486899E-4
0.0025                    0.0015                   3.1694046597274323E-4
0.0025                    0.0025                   9.795703226882996E-4
0.0025                    0.0035                   0.002815019609827722
0.0025                    0.0045                   0.00682948148510139
0.0025                    0.0055                   0.012641607580778627
0.0025                    0.0065                   0.018391474887494267
0.0025                    0.0075                   0.020236352434880277
0.0025                    0.0085                   0.015578438428550851
0.0025                    0.0095                   0.007688394139277258
0.0025                    0.0105                   0.0024072705266374532
0.0025                    0.0115                   7.70148454306451E-4
0.0025                    0.0125                   3.005634994405409E-4
0.0025                    0.0135                   9.109043075213765E-5
0.0025                    0.0145                   3.5937412111557714E-5
0.0025                    0.0155                   1.709451199980561E-5
0.0025                    0.0165                   1.0033037301661021E-5
0.0025                    0.0175                   7.18190725188537E-6
0.0025                    0.0185                   5.95272144932814E-6
0.0025                    0.0195                   5.4088220659072965E-6
0.0025                    0.0205                   5.1922757601006135E-6
0.0025                    0.0215                   5.139560154767105E-6
0.0025                    0.0225                   5.1716481771477915E-6
0.0025                    0.0235                   5.252934081539681E-6
0.0025                    0.0245                   5.366225391192579E-6
0.0025                    0.0255                   5.504433487978066E-6
0.0025                    0.0265                   5.659945199158321E-6
0.0025                    0.0275                   5.803758550166571E-6
0.0025                    0.0285                   5.895661923565866E-6
0.0025                    0.0295                   5.639709391551601E-6
0.0025                    0.0305                   5.284733786908214E-6
0.0025                    0.0315                   2.6725025066867525E-6
0.0035                    -0.0315                  2.902691875348186E-6
0.0035                    -0.0305                  5.377476354209454E-6
0.0035                    -0.0295                  5.438943561887253E-6
0.0035                    -0.0285                  5.822211515727185E-6
0.0035                    -0.0275                  5.842880773023166E-6
0.0035                    -0.0265                  5.778132550385333E-6
0.0035                    -0.0255                  5.682085214382086E-6
0.0035                    -0.0245                  5.6243276192979794E-6
0.0035                    -0.0235                  5.64189063077479E-6
0.0035                    -0.0225                  5.773163752085154E-6
0.0035                    -0.0215                  6.0658289067565055E-6
0.0035                    -0.0205                  6.606398046708289E-6
0.0035                    -0.0195                  7.59411647197701E-6
0.0035                    -0.0185                  9.53096789178697E-6
0.0035                    -0.0175                  1.3777806901994903E-5
0.0035                    -0.0165                  2.396816375418713E-5
0.0035                    -0.0155                  5.0755915899057725E-5
0.0035                    -0.0145                  1.2872524073945525E-4
0.0035                    -0.0135                  4.278497325896466E-4
0.0035                    -0.0125                  0.0012537361850469113
0.0035                    -0.0115                  0.0036503565939239304
0.0035                    -0.0105                  0.008578481996557981
0.0035                    -0.0095                  0.014006199325081653
0.0035                    -0.0085                  0.016331977544896438
0.0035                    -0.0075                  0.014047555586025863
0.0035                    -0.0065                  0.008747251159605375
0.0035                    -0.0055                  0.00405133530600578
0.0035                    -0.0045                  0.00162761919301031
0.0035                    -0.0035                  6.117821859551746E-4
0.0035                    -0.0025                  2.1863547278875054E-4
0.0035                    -0.0015                  7.773488783343555E-5
0.0035                    -5.0E-4                  4.0890840956321916E-5
0.0035                    5.0E-4                   5.4927575901182284E-5
0.0035                    0.0015                   1.6565983922783308E-4
0.0035                    0.0025                   5.416053737421582E-4
0.0035                    0.0035                   0.0015530740263831567
0.0035                    0.0045                   0.004132394769739584
0.0035                    0.0055                   0.008987730918141586
0.0035                    0.0065                   0.015253059564253539
0.0035                    0.0075                   0.019585638286478614
0.0035                    0.0085                   0.01849455964584735
0.0035                    0.0095                   0.01224342831682836
0.0035                    0.0105                   0.005313686688123776
0.0035                    0.0115                   0.0016355837602104134
0.0035                    0.0125                   5.050540648777877E-4
0.0035                    0.0135                   1.4431482576534146E-4
0.0035                    0.0145                   5.562022415782421E-5
0.0035                    0.0155                   2.436311252969338E-5
0.0035                    0.0165                   1.2873913881906198E-5
0.0035                    0.0175                   8.199432334003466E-6
0.0035                    0.0185                   6.2673047972112835E-6
0.0035                    0.0195                   5.485135291013294E-6
0.0035                    0.0205                   5.228097850961899E-6
0.0035                    0.0215                   5.21896136482032E-6
0.0035                    0.0225                   5.329710716616262E-6
0.0035                    0.0235                   5.500455967611528E-6
0.0035                    0.0245                   5.703926022697555E-6
0.0035                    0.0255                   5.921453345047181E-6
0.0035                    0.0265                   6.130427646392954E-6
0.0035                    0.0275                   6.2669712457693635E-6
0.0035                    0.0285                   6.2568567475441425E-6
0.0035                    0.0295                   5.793006407985839E-6
0.0035                    0.0305                   5.433883403248215E-6
0.0035                    0.0315                   2.823324157316555E-6
0.0045                    -0.0315                  3.0494278677626066E-6
0.0045                    -0.0305                  5.453505173199914E-6
0.0045                    -0.0295                  5.322175509584666E-6
0.0045                    -0.0285                  5.789535036805923E-6
0.0045                    -0.0275                  5.933364538042848E-6
0.0045                    -0.0265                  5.9508380614688045E-6
0.0045                    -0.0255                  5.876193665082299E-6
0.0045                    -0.0245                  5.801184821489754E-6
0.0045                    -0.0235                  5.7907267899064396E-6
0.0045                    -0.0225                  5.914361521736385E-6
0.0045                    -0.0215                  6.263443385286991E-6
0.0045                    -0.0205                  7.002151586026154E-6
0.0045                    -0.0195                  8.49546511491905E-6
0.0045                    -0.0185                  1.1615999483935585E-5
0.0045                    -0.0175                  1.8623075162246443E-5
0.0045                    -0.0165                  3.520916307679197E-5
0.0045                    -0.0155                  7.886957362418062E-5
0.0045                    -0.0145                  2.0247020130931124E-4
0.0045                    -0.0135                  6.864298905249142E-4
0.0045                    -0.0125                  0.0023698540977894833
0.0045                    -0.0115                  0.006569799672658713
0.0045                    -0.0105                  0.0121822911086054
0.0045                    -0.0095                  0.015484743643156253
0.0045                    -0.0085                  0.014343744916625153
0.0045                    -0.0075                  0.009797573338675989
0.0045                    -0.0065                  0.004922404324831599
0.0045                    -0.0055                  0.001998155368691794
0.0045                    -0.0045                  7.818494771691116E-4
0.0045                    -0.0035                  2.8458145763408764E-4
0.0045                    -0.0025                  9.798136422470347E-5
0.0045                    -0.0015                  3.919462063612812E-5
0.0045                    -5.0E-4                  2.5051535088088216E-5
0.0045                    5.0E-4                   3.464082036179866E-5
0.0045                    0.0015                   9.06420457478034E-5
0.0045                    0.0025                   2.789844945613805E-4
0.0045                    0.0035                   8.06218429700581E-4
0.0045                    0.0045                   0.0022114942945615865
0.0045                    0.0055                   0.00550439995081089
0.0045                    0.0065                   0.011201744489438208
0.0045                    0.0075                   0.017212893727877935
0.0045                    0.0085                   0.019596714863914864
0.0045                    0.0095                   0.01622196320321792
0.0045                    0.0105                   0.009180893514968636
0.0045                    0.0115                   0.0034197233085273794
0.0045                    0.0125                   9.949302929700284E-4
0.0045                    0.0135                   3.032179113210262E-4
0.0045                    0.0145                   9.923090730200013E-5
0.0045                    0.0155                   3.979180804967895E-5
0.0045                    0.0165                   1.840622860187067E-5
0.0045                    0.0175                   1.0275916211473508E-5
0.0045                    0.0185                   7.005930503478182E-6
0.0045                    0.0195                   5.737310861710755E-6
0.0045                    0.0205                   5.3318415226545235E-6
0.0045                    0.0215                   5.314974657569386E-6
0.0045                    0.0225                   5.472777619315931E-6
0.0045                    0.0235                   5.70705351537645E-6
0.0045                    0.0245                   5.968035497440698E-6
0.0045                    0.0255                   6.2181566682315356E-6
0.0045                    0.0265                   6.412025842739825E-6
0.0045                    0.0275                   6.461701155066899E-6
0.0045                    0.0285                   6.303879270593149E-6
0.0045                    0.0295                   5.713182588870839E-6
0.0045                    0.0305                   5.463990562048486E-6
0.0045                    0.0315                   2.9217374592411375E-6
0.0055                    -0.0315                  3.1872442649084752E-6
0.0055                    -0.0305                  5.5446252026103075E-6
0.0055                    -0.0295                  5.21179807700267E-6
0.0055                    -0.0285                  5.694228324305768E-6
0.0055                    -0.0275                  5.922994201497698E-6
0.0055                    -0.0265                  6.0391360228041425E-6
0.0055                    -0.0255                  6.026541869705132E-6
0.0055                    -0.0245                  5.972829265183003E-6
0.0055                    -0.0235                  5.966019929533328E-6
0.0055                    -0.0225                  6.121830913057992E-6
0.0055                    -0.0215                  6.610099682252628E-6
0.0055                    -0.0205                  7.74579048467522E-6
0.0055                    -0.0195                  1.0212493589008151E-5
0.0055                    -0.0185                  1.5663370382067978E-5
0.0055                    -0.0175                  2.8154595345837335E-5
0.0055                    -0.0165                  5.922261963003782E-5
0.0055                    -0.0155                  1.4193576016014245E-4
0.0055                    -0.0145                  4.1516552394941207E-4
0.0055                    -0.0135                  0.001330253170401573
0.0055                    -0.0125                  0.004379150535425713
0.0055                    -0.0115                  0.010063297848480318
0.0055                    -0.0105                  0.014843553642017997
0.0055                    -0.0095                  0.015023668105914791
0.0055                    -0.0085                  0.010978350409311206
0.0055                    -0.0075                  0.005866819593525866
0.0055                    -0.0065                  0.002445518149729115
0.0055                    -0.0055                  9.401618020462843E-4
0.0055                    -0.0045                  3.499365026169104E-4
0.0055                    -0.0035                  1.2125657709536155E-4
0.0055                    -0.0025                  4.6487607188087004E-5
0.0055                    -0.0015                  2.3158447046145254E-5
0.0055                    -5.0E-4                  1.7041621116545107E-5
0.0055                    5.0E-4                   2.2723995052238444E-5
0.0055                    0.0015                   4.7352910136242145E-5
0.0055                    0.0025                   1.289147334411246E-4
0.0055                    0.0035                   3.8787749396008644E-4
0.0055                    0.0045                   0.001097655415133475
0.0055                    0.0055                   0.002944391517514232
0.0055                    0.0065                   0.007144254288704896
0.0055                    0.0075                   0.01352289482264413
0.0055                    0.0085                   0.018790680124071535
0.0055                    0.0095                   0.019004196696738283
0.0055                    0.0105                   0.013498577020729997
0.0055                    0.0115                   0.006359601189302978
0.0055                    0.0125                   0.0021152409500947286
0.0055                    0.0135                   6.858062643923707E-4
0.0055                    0.0145                   2.1688893130587702E-4
0.0055                    0.0155                   7.324072617571964E-5
0.0055                    0.0165                   2.9981297397069915E-5
0.0055                    0.0175                   1.4518194810176017E-5
0.0055                    0.0185                   8.69319789264156E-6
0.0055                    0.0195                   6.456133452105222E-6
0.0055                    0.0205                   5.7093117123037755E-6
0.0055                    0.0215                   5.593203328421716E-6
0.0055                    0.0225                   5.74561534536779E-6
0.0055                    0.0235                   6.003117404791165E-6
0.0055                    0.0245                   6.280295436693834E-6
0.0055                    0.0255                   6.514800919737761E-6
0.0055                    0.0265                   6.643687324813516E-6
0.0055                    0.0275                   6.580972790325486E-6
0.0055                    0.0285                   6.306185668530331E-6
0.0055                    0.0295                   5.655344901665849E-6
0.0055                    0.0305                   5.45946565814974E-6
0.0055                    0.0315                   2.9532245000103036E-6
0.0065                    -0.0315                  3.3203771811034267E-6
0.0065                    -0.0305                  5.64065174649069E-6
0.0065                    -0.0295                  5.10192197291263E-6
0.0065                    -0.0285                  5.555437296677384E-6
0.0065                    -0.0275                  5.816864370043543E-6
0.0065                    -0.0265                  6.006875888747578E-6
0.0065                    -0.0255                  6.067510303422599E-6
0.0065                    -0.0245                  6.067624812585128E-6
0.0065                    -0.0235                  6.1089287970561365E-6
0.0065                    -0.0225                  6.367753426426677E-6
0.0065                    -0.0215                  7.15014121680361E-6
0.0065                    -0.0205                  9.04964781647604E-6
0.0065                    -0.0195                  1.33940407945776E-5
0.0065                    -0.0185                  2.3311208368477977E-5
0.0065                    -0.0175                  4.752966630571357E-5
0.0065                    -0.0165                  1.1050394742156868E-4
0.0065                    -0.0155                  3.1263231666948867E-4
0.0065                    -0.0145                  9.304220018788688E-4
0.0065                    -0.0135                  0.002804005630402811
0.0065                    -0.0125                  0.007493079824415969
0.0065                    -0.0115                  0.01351755871049987
0.0065                    -0.0105                  0.015929552610837287
0.0065                    -0.0095                  0.012860132966979618
0.0065                    -0.0085                  0.007343354698182203
0.0065                    -0.0075                  0.0031388578166199554
0.0065                    -0.0065                  0.001179054939635279
0.0065                    -0.0055                  4.326407766598725E-4