% Model:              Benchmark260518.mph
% Version:            COMSOL 6.2.0.339
% Date:               May 20 2026, 01:29
% Dimension:          2
% Nodes:              4096
% Expressions:        1
% Description:        速度大小
% Length unit:        m
% x                       y                        spf.U (m/s)
5.0E-4                    -0.0315                  2.7548104674874715E-6
5.0E-4                    -0.0305                  5.486115986456954E-6
5.0E-4                    -0.0295                  6.202490482360322E-6
5.0E-4                    -0.0285                  7.141344652260302E-6
5.0E-4                    -0.0275                  7.815664391584755E-6
5.0E-4                    -0.0265                  8.493690853740304E-6
5.0E-4                    -0.0255                  9.109530269508635E-6
5.0E-4                    -0.0245                  9.751165486676585E-6
5.0E-4                    -0.0235                  1.0591125016991733E-5
5.0E-4                    -0.0225                  1.2175455527730367E-5
5.0E-4                    -0.0215                  1.5245321187923792E-5
5.0E-4                    -0.0205                  2.4346670843700306E-5
5.0E-4                    -0.0195                  5.50977413426964E-5
5.0E-4                    -0.0185                  1.535850958343074E-4
5.0E-4                    -0.0175                  2.9454941481108843E-4
5.0E-4                    -0.0165                  3.8315347335433507E-4
5.0E-4                    -0.0155                  4.401177364522645E-4
5.0E-4                    -0.0145                  6.114796383422586E-4
5.0E-4                    -0.0135                  0.001022447248920058
5.0E-4                    -0.0125                  0.0016381508998654854
5.0E-4                    -0.0115                  0.002304699940589183
5.0E-4                    -0.0105                  0.0028387643157128965
5.0E-4                    -0.0095                  0.0031129884608930834
5.0E-4                    -0.0085                  0.0030922085076279626
5.0E-4                    -0.0075                  0.0028439206181338724
5.0E-4                    -0.0065                  0.0025576755218399997
5.0E-4                    -0.0055                  0.002612336634753527
5.0E-4                    -0.0045                  0.0039709517137475085
5.0E-4                    -0.0035                  0.0101552764808285
5.0E-4                    -0.0025                  0.01683604433590487
5.0E-4                    -0.0015                  0.019150112677863672
5.0E-4                    -5.0E-4                  0.020290624717164075
5.0E-4                    5.0E-4                   0.020331005087480748
5.0E-4                    0.0015                   0.019270614064675073
5.0E-4                    0.0025                   0.017018383313989353
5.0E-4                    0.0035                   0.010290747411902395
5.0E-4                    0.0045                   0.004005855898828618
5.0E-4                    0.0055                   0.0026047325955550157
5.0E-4                    0.0065                   0.0025371916739533127
5.0E-4                    0.0075                   0.0028198304812544457
5.0E-4                    0.0085                   0.0030682558046743035
5.0E-4                    0.0095                   0.003091377911509698
5.0E-4                    0.0105                   0.00282062666072391
5.0E-4                    0.0115                   0.0022904894299446473
5.0E-4                    0.0125                   0.0016279903950491884
5.0E-4                    0.0135                   0.0010161640299565769
5.0E-4                    0.0145                   6.086856746668724E-4
5.0E-4                    0.0155                   4.400188853377062E-4
5.0E-4                    0.0165                   3.8424218795086047E-4
5.0E-4                    0.0175                   2.955935395813599E-4
5.0E-4                    0.0185                   1.54110407341765E-4
5.0E-4                    0.0195                   5.525579510208103E-5
5.0E-4                    0.0205                   2.435985702205573E-5
5.0E-4                    0.0215                   1.521474987712601E-5
5.0E-4                    0.0225                   1.217953507611798E-5
5.0E-4                    0.0235                   1.0628796888656991E-5
5.0E-4                    0.0245                   9.790885014941269E-6
5.0E-4                    0.0255                   9.144363773716718E-6
5.0E-4                    0.0265                   8.521507670060103E-6
5.0E-4                    0.0275                   7.838826543250349E-6
5.0E-4                    0.0285                   7.165406733706606E-6
5.0E-4                    0.0295                   6.229051553972799E-6
5.0E-4                    0.0305                   5.522036328618065E-6
5.0E-4                    0.0315                   2.777426921871366E-6
0.0015                    -0.0315                  5.279937625795609E-6
0.0015                    -0.0305                  1.0304296726667825E-5
0.0015                    -0.0295                  1.1052349469673474E-5
0.0015                    -0.0285                  1.2241709111349875E-5
0.0015                    -0.0275                  1.3098189761655202E-5
0.0015                    -0.0265                  1.4001687030978032E-5
0.0015                    -0.0255                  1.4839688169883076E-5
0.0015                    -0.0245                  1.5733706143212578E-5
0.0015                    -0.0235                  1.7039059286396455E-5
0.0015                    -0.0225                  1.975635445446166E-5
0.0015                    -0.0215                  2.5965981306966268E-5
0.0015                    -0.0205                  4.350726864844042E-5
0.0015                    -0.0195                  9.692360961455329E-5
0.0015                    -0.0185                  2.547877704283291E-4
0.0015                    -0.0175                  4.8423256538534317E-4
0.0015                    -0.0165                  7.348895049203681E-4
0.0015                    -0.0155                  0.0012205850250722491
0.0015                    -0.0145                  0.002272118135595124
0.0015                    -0.0135                  0.0039049274041329284
0.0015                    -0.0125                  0.005803298888267059
0.0015                    -0.0115                  0.007591965668560065
0.0015                    -0.0105                  0.00896473073986797
0.0015                    -0.0095                  0.009763217327778205
0.0015                    -0.0085                  0.009990585065623404
0.0015                    -0.0075                  0.00979346819256025
0.0015                    -0.0065                  0.009489232575889985
0.0015                    -0.0055                  0.009586739717289065
0.0015                    -0.0045                  0.01096990780064337
0.0015                    -0.0035                  0.013655038145113527
0.0015                    -0.0025                  0.015836822753676517
0.0015                    -0.0015                  0.016946533375292297
0.0015                    -5.0E-4                  0.017576822277440316
0.0015                    5.0E-4                   0.017613789600855623
0.0015                    0.0015                   0.01705580880230692
0.0015                    0.0025                   0.016000999145080828
0.0015                    0.0035                   0.013814054981000412
0.0015                    0.0045                   0.011059763941688647
0.0015                    0.0055                   0.009614962471957846
0.0015                    0.0065                   0.009490772337684732
0.0015                    0.0075                   0.009784370422178857
0.0015                    0.0085                   0.009977714283444565
0.0015                    0.0095                   0.009748473118285214
0.0015                    0.0105                   0.00894859676766639
0.0015                    0.0115                   0.007575321403500413
0.0015                    0.0125                   0.00578783051249138
0.0015                    0.0135                   0.003892745644364884
0.0015                    0.0145                   0.00226504842973586
0.0015                    0.0155                   0.0012192990274507145
0.0015                    0.0165                   7.369768806404953E-4
0.0015                    0.0175                   4.864399394869041E-4
0.0015                    0.0185                   2.559336843170968E-4
0.0015                    0.0195                   9.729851507786154E-5
0.0015                    0.0205                   4.3603639062640164E-5
0.0015                    0.0215                   2.5973864385086626E-5
0.0015                    0.0225                   1.9783905520829808E-5
0.0015                    0.0235                   1.709498556558798E-5
0.0015                    0.0245                   1.5784255014775498E-5
0.0015                    0.0255                   1.4873142461308285E-5
0.0015                    0.0265                   1.4018013421790425E-5
0.0015                    0.0275                   1.310761728995534E-5
0.0015                    0.0285                   1.225971599644524E-5
0.0015                    0.0295                   1.1089023501378727E-5
0.0015                    0.0305                   1.0369017624843932E-5
0.0015                    0.0315                   5.3228081227599695E-6
0.0025                    -0.0315                  5.629116575682701E-6
0.0025                    -0.0305                  1.036645385706712E-5
0.0025                    -0.0295                  1.024421234347689E-5
0.0025                    -0.0285                  1.1103530368622449E-5
0.0025                    -0.0275                  1.1725569511349677E-5
0.0025                    -0.0265                  1.2408582679005623E-5
0.0025                    -0.0255                  1.3050722746821318E-5
0.0025                    -0.0245                  1.3757993150902842E-5
0.0025                    -0.0235                  1.4976485619454753E-5
0.0025                    -0.0225                  1.7925152786362885E-5
0.0025                    -0.0215                  2.5630542736716538E-5
0.0025                    -0.0205                  4.46691859863926E-5
0.0025                    -0.0195                  9.199476197501687E-5
0.0025                    -0.0185                  2.1928524525480098E-4
0.0025                    -0.0175                  4.58928204230647E-4
0.0025                    -0.0165                  0.0010479909629791677
0.0025                    -0.0155                  0.0025226915415243823
0.0025                    -0.0145                  0.00502613973946027
0.0025                    -0.0135                  0.007956922866624576
0.0025                    -0.0125                  0.010616890164857824
0.0025                    -0.0115                  0.01267305439628094
0.0025                    -0.0105                  0.014127752116582418
0.0025                    -0.0095                  0.015113318868493953
0.0025                    -0.0085                  0.01571988161319342
0.0025                    -0.0075                  0.015979572474133834
0.0025                    -0.0065                  0.0159187222448566
0.0025                    -0.0055                  0.015576120877331488
0.0025                    -0.0045                  0.014971978536296482
0.0025                    -0.0035                  0.014360611458616076
0.0025                    -0.0025                  0.014048803931975114
0.0025                    -0.0015                  0.014030526114566273
0.0025                    -5.0E-4                  0.014165156092575612
0.0025                    5.0E-4                   0.014195621512770222
0.0025                    0.0015                   0.014118213683219622
0.0025                    0.0025                   0.014175916760424293
0.0025                    0.0035                   0.014490333201002984
0.0025                    0.0045                   0.015078923303113785
0.0025                    0.0055                   0.01566232064085716
0.0025                    0.0065                   0.01599307189278649
0.0025                    0.0075                   0.016047939655152974
0.0025                    0.0085                   0.015782277386217833
0.0025                    0.0095                   0.015167889488289264
0.0025                    0.0105                   0.014172303140640424
0.0025                    0.0115                   0.012704964853264937
0.0025                    0.0125                   0.010634902790254273
0.0025                    0.0135                   0.007963285638878255
0.0025                    0.0145                   0.005026264061370678
0.0025                    0.0155                   0.002522723610817446
0.0025                    0.0165                   0.0010507528930103628
0.0025                    0.0175                   4.6253121975979827E-4
0.0025                    0.0185                   2.2135754045420655E-4
0.0025                    0.0195                   9.27421373439047E-5
0.0025                    0.0205                   4.496852077597588E-5
0.0025                    0.0215                   2.577550108761737E-5
0.0025                    0.0225                   1.801037933627001E-5
0.0025                    0.0235                   1.5027905002967666E-5
0.0025                    0.0245                   1.3772122846834623E-5
0.0025                    0.0255                   1.3020989958090294E-5
0.0025                    0.0265                   1.2343846450641048E-5
0.0025                    0.0275                   1.1650786103120539E-5
0.0025                    0.0285                   1.1050774512399701E-5
0.0025                    0.0295                   1.0238160890349379E-5
0.0025                    0.0305                   1.0417836774312882E-5
0.0025                    0.0315                   5.672848818968481E-6
0.0035                    -0.0315                  6.253244941514322E-6
0.0035                    -0.0305                  1.0951480997722576E-5
0.0035                    -0.0295                  1.0467501112213157E-5
0.0035                    -0.0285                  1.19268959242522E-5
0.0035                    -0.0275                  1.3288460492986198E-5
0.0035                    -0.0265                  1.4845624708044154E-5
0.0035                    -0.0255                  1.6434555042617044E-5
0.0035                    -0.0245                  1.8151427643220775E-5
0.0035                    -0.0235                  2.0581662715728596E-5
0.0035                    -0.0225                  2.5532196462696957E-5
0.0035                    -0.0215                  3.719257095557936E-5
0.0035                    -0.0205                  6.356211262319805E-5
0.0035                    -0.0195                  1.2030570546923687E-4
0.0035                    -0.0185                  2.791821776566969E-4
0.0035                    -0.0175                  7.213651141309396E-4
0.0035                    -0.0165                  0.0020536232320349677
0.0035                    -0.0155                  0.004831265587198047
0.0035                    -0.0145                  0.008437075296474557
0.0035                    -0.0135                  0.011597605761136744
0.0035                    -0.0125                  0.013712790728574231
0.0035                    -0.0115                  0.014924255931366072
0.0035                    -0.0105                  0.015580343148148396
0.0035                    -0.0095                  0.015995227805729675
0.0035                    -0.0085                  0.01639745609894073
0.0035                    -0.0075                  0.016808932108986978
0.0035                    -0.0065                  0.016981799788886413
0.0035                    -0.0055                  0.016548656410182237
0.0035                    -0.0045                  0.015333865060756178
0.0035                    -0.0035                  0.01352447140285835
0.0035                    -0.0025                  0.011766511383798152
0.0035                    -0.0015                  0.010734807052099388
0.0035                    -5.0E-4                  0.010426281934869386
0.0035                    5.0E-4                   0.010445992776714803
0.0035                    0.0015                   0.010788484056757976
0.0035                    0.0025                   0.01183994807584814
0.0035                    0.0035                   0.013606996573323291
0.0035                    0.0045                   0.015427352704981504
0.0035                    0.0055                   0.016657070744886725
0.0035                    0.0065                   0.017103996477146395
0.0035                    0.0075                   0.01693936202852246
0.0035                    0.0085                   0.016527540984624587
0.0035                    0.0095                   0.01611757231969334
0.0035                    0.0105                   0.015687944980065267
0.0035                    0.0115                   0.015012448089463885
0.0035                    0.0125                   0.013778557809167766
0.0035                    0.0135                   0.011639813575512446
0.0035                    0.0145                   0.008459018301128145
0.0035                    0.0155                   0.004841993840164664
0.0035                    0.0165                   0.0020618116511370833
0.0035                    0.0175                   7.287379232704813E-4
0.0035                    0.0185                   2.8365278420621723E-4
0.0035                    0.0195                   1.2211416743704358E-4
0.0035                    0.0205                   6.43489403177231E-5
0.0035                    0.0215                   3.755106307628021E-5
0.0035                    0.0225                   2.5704915099295158E-5
0.0035                    0.0235                   2.0639667963718185E-5
0.0035                    0.0245                   1.810271116444912E-5
0.0035                    0.0255                   1.6285837616783067E-5
0.0035                    0.0265                   1.462970475217125E-5
0.0035                    0.0275                   1.3062425857376592E-5
0.0035                    0.0285                   1.1753046353413379E-5
0.0035                    0.0295                   1.0389271724290126E-5
0.0035                    0.0305                   1.0969637928808603E-5
0.0035                    0.0315                   6.287514958891787E-6
0.0045                    -0.0315                  6.822733558586182E-6
0.0045                    -0.0305                  1.1652409032817587E-5
0.0045                    -0.0295                  1.109938606934149E-5
0.0045                    -0.0285                  1.3655703646906875E-5
0.0045                    -0.0275                  1.6828864185637474E-5
0.0045                    -0.0265                  2.0806787240254112E-5
0.0045                    -0.0255                  2.51442236815197E-5
0.0045                    -0.0245                  2.9651776541439785E-5
0.0045                    -0.0235                  3.4873237266162314E-5
0.0045                    -0.0225                  4.3469299287464474E-5
0.0045                    -0.0215                  6.184300967350453E-5
0.0045                    -0.0205                  1.0610608258665143E-4
0.0045                    -0.0195                  2.1359776990111725E-4
0.0045                    -0.0185                  4.669789836197116E-4
0.0045                    -0.0175                  0.0012763225184354947
0.0045                    -0.0165                  0.0036605453460353443
0.0045                    -0.0155                  0.007650392490698153
0.0045                    -0.0145                  0.011424307986077234
0.0045                    -0.0135                  0.01354920995573423
0.0045                    -0.0125                  0.0140616094061029
0.0045                    -0.0115                  0.013512628590442194
0.0045                    -0.0105                  0.01250471314519529
0.0045                    -0.0095                  0.01165403031318104
0.0045                    -0.0085                  0.011326518565538336
0.0045                    -0.0075                  0.011539154295146663
0.0045                    -0.0065                  0.012003528476983924
0.0045                    -0.0055                  0.012248133479902064
0.0045                    -0.0045                  0.011807234426548869
0.0045                    -0.0035                  0.01048520839302136
0.0045                    -0.0025                  0.008683564122214495
0.0045                    -0.0015                  0.00733901675655852
0.0045                    -5.0E-4                  0.006896992217593782
0.0045                    5.0E-4                   0.00690310400488616
0.0045                    0.0015                   0.0073527805764846115
0.0045                    0.0025                   0.008703883408648165
0.0045                    0.0035                   0.010525141859540751
0.0045                    0.0045                   0.011878170106377503
0.0045                    0.0055                   0.012348110680276346
0.0045                    0.0065                   0.01212235717374655
0.0045                    0.0075                   0.011667107642455083
0.0045                    0.0085                   0.011457042844240583
0.0045                    0.0095                   0.011782816555796938
0.0045                    0.0105                   0.012626958374977418
0.0045                    0.0115                   0.013622240885163946
0.0045                    0.0125                   0.014151137429741454
0.0045                    0.0135                   0.013614402156023764
0.0045                    0.0145                   0.011466289807034052
0.0045                    0.0155                   0.007677038696917942
0.0045                    0.0165                   0.0036810376279784265
0.0045                    0.0175                   0.001292837090610021
0.0045                    0.0185                   4.782049794809775E-4
0.0045                    0.0195                   2.1908079315066564E-4
0.0045                    0.0205                   1.0823713134114284E-4
0.0045                    0.0215                   6.273303438984149E-5
0.0045                    0.0225                   4.384155017890688E-5
0.0045                    0.0235                   3.490865223816389E-5
0.0045                    0.0245                   2.939776433416733E-5
0.0045                    0.0255                   2.4648271233947664E-5
0.0045                    0.0265                   2.0170164749111087E-5
0.0045                    0.0275                   1.620076198961965E-5
0.0045                    0.0285                   1.3176803827026372E-5
0.0045                    0.0295                   1.0846975645720219E-5
0.0045                    0.0305                   1.1584418797067825E-5
0.0045                    0.0315                   6.824600471141926E-6
0.0055                    -0.0315                  7.84234307900166E-6
0.0055                    -0.0305                  1.3419006202374873E-5
0.0055                    -0.0295                  1.3457658947877873E-5
0.0055                    -0.0285                  1.8497471464292275E-5
0.0055                    -0.0275                  2.614273041953589E-5
0.0055                    -0.0265                  3.701518043096314E-5
0.0055                    -0.0255                  5.013656879894283E-5
0.0055                    -0.0245                  6.374050930452729E-5
0.0055                    -0.0235                  7.707982187093875E-5
0.0055                    -0.0225                  9.399792706280364E-5
0.0055                    -0.0215                  1.2755638375655816E-4
0.0055                    -0.0205                  2.0422132297404192E-4
0.0055                    -0.0195                  4.080132277678207E-4
0.0055                    -0.0185                  8.470261887089174E-4
0.0055                    -0.0175                  0.0022082957015772953
0.0055                    -0.0165                  0.005669277256640534
0.0055                    -0.0155                  0.010297449531672453
0.0055                    -0.0145                  0.013346803410790212
0.0055                    -0.0135                  0.01380061950543861
0.0055                    -0.0125                  0.012266921587544723
0.0055                    -0.0115                  0.009667968909567152
0.0055                    -0.0105                  0.007186944157485781
0.0055                    -0.0095                  0.0056016474489829155
0.0055                    -0.0085                  0.004926265851554847
0.0055                    -0.0075                  0.004866018119933286
0.0055                    -0.0065                  0.005155250561265705
0.0055                    -0.0055                  0.005548302448373743
0.0055                    -0.0045                  0.005753562793939818
0.0055                    -0.0035                  0.005491124325610193
0.0055                    -0.0025                  0.004751227759867957
0.0055                    -0.0015                  0.004162834056214297
0.0055                    -5.0E-4                  0.004225374552861898
0.0055                    5.0E-4                   0.004223978360851369
0.0055                    0.0015                   0.00415596287102695
0.0055                    0.0025                   0.0047478587786069296
0.0055                    0.0035                   0.005507303195120073
0.0055                    0.0045                   0.005792653587279756
0.0055                    0.0055                   0.005603677638418054
0.0055                    0.0065                   0.005218616924183524
0.0055                    0.0075                   0.004932360770638665
0.0055                    0.0085                   0.004995139756751379
0.0055                    0.0095                   0.0056768473886439005
0.0055                    0.0105                   0.0072731054350778975
0.0055                    0.0115                   0.009762381848409062
0.0055                    0.0125                   0.012355197091308107
0.0055                    0.0135                   0.013867323868494512
0.0055                    0.0145                   0.013390924088355257
0.0055                    0.0155                   0.010331302204104534
0.0055                    0.0165                   0.005705070310490063
0.0055                    0.0175                   0.002245326935294273
0.0055                    0.0185                   8.764081301323559E-4
0.0055                    0.0195                   4.2344708184297426E-4
0.0055                    0.0205                   2.100347312627013E-4
0.0055                    0.0215                   1.2987800988812376E-4
0.0055                    0.0225                   9.471909949561411E-5
0.0055                    0.0235                   7.682385672725457E-5
0.0055                    0.0245                   6.269355706431494E-5
0.0055                    0.0255                   4.8531048132004025E-5
0.0055                    0.0265                   3.520483990758281E-5
0.0055                    0.0275                   2.4472331815594934E-5
0.0055                    0.0285                   1.7242296555793782E-5
0.0055                    0.0295                   1.2767464486251851E-5
0.0055                    0.0305                   1.3152031855492137E-5
0.0055                    0.0315                   7.781188908107912E-6
0.0065                    -0.0315                  9.669382891906996E-6
0.0065                    -0.0305                  1.7428253843961398E-5
0.0065                    -0.0295                  2.0041670300326837E-5
0.0065                    -0.0285                  3.0944292878595895E-5
0.0065                    -0.0275                  5.071215833174074E-5
0.0065                    -0.0265                  8.492182957172812E-5
0.0065                    -0.0255                  1.2890186953377946E-4
0.0065                    -0.0245                  1.7302703262304976E-4
0.0065                    -0.0235                  2.1377239688314298E-4
0.0065                    -0.0225                  2.5409437274757565E-4
0.0065                    -0.0215                  3.1846933498434445E-4
0.0065                    -0.0205                  5.035212412974646E-4
0.0065                    -0.0195                  8.868081147448207E-4
0.0065                    -0.0185                  0.0015616889871271607
0.0065                    -0.0175                  0.003500785637953014
0.0065                    -0.0165                  0.007683015807520688
0.0065                    -0.0155                  0.012196702491649196
0.0065                    -0.0145                  0.014109943624474049
0.0065                    -0.0135                  0.01283718606739104
0.0065                    -0.0125                  0.009447995691291235
0.0065                    -0.0115                  0.005700425591351753
0.0065                    -0.0105                  0.0031705734260577077
0.0065                    -0.0095                  0.001996732437102753
0.0065                    -0.0085                  0.0015415735417398553
0.0065                    -0.0075                  0.0014097248912756865
0.0065                    -0.0065                  0.0014500662947706812
0.0065                    -0.0055                  0.0015555621588823425