% Model:              Benchmark260518.mph
% Version:            COMSOL 6.2.0.339
% Date:               May 20 2026, 22:19
% Dimension:          2
% Nodes:              4096
% Expressions:        1
% Description:        速度大小
% Length unit:        m
% x                       y                        spf.U (m/s)
% mirrored_by_python_y_to_minus_y, coord_match_decimals=12
0.0005 -0.0315 1.38722036665e-06
0.0005 -0.0305 2.71635181474e-06
0.0005 -0.0295 2.93087422574e-06
0.0005 -0.0285 3.20017718136e-06
0.0005 -0.0275 3.32253182296e-06
0.0005 -0.0265 3.41110817663e-06
0.0005 -0.0255 3.45572934765e-06
0.0005 -0.0245 3.54569869654e-06
0.0005 -0.0235 3.73349881561e-06
0.0005 -0.0225 4.26219291883e-06
0.0005 -0.0215 6.41973508639e-06
0.0005 -0.0205 1.84886475715e-05
0.0005 -0.0195 0.000115671928996
0.0005 -0.0185 0.000419263313577
0.0005 -0.0175 0.00223876674264
0.0005 -0.0165 0.00904156966026
0.0005 -0.0155 0.022196366001
0.0005 -0.0145 0.0364957391762
0.0005 -0.0135 0.0464172021031
0.0005 -0.0125 0.0316815036005
0.0005 -0.0115 0.00636912671451
0.0005 -0.0105 0.00124003856878
0.0005 -0.0095 0.000760524105903
0.0005 -0.0085 0.000480785599569
0.0005 -0.0075 0.000197015190007
0.0005 -0.0065 7.57877368919e-05
0.0005 -0.0055 4.75027126019e-05
0.0005 -0.0045 2.57438012033e-05
0.0005 -0.0035 1.33427367739e-05
0.0005 -0.0025 7.11629831659e-06
0.0005 -0.0015 4.34654532724e-06
0.0005 -0.0005 3.27181220782e-06
0.0005 0.0005 3.04154960774e-06
0.0005 0.0015 3.06228781748e-06
0.0005 0.0025 3.09343185221e-06
0.0005 0.0035 3.17727881937e-06
0.0005 0.0045 3.2423872216e-06
0.0005 0.0055 3.32323862088e-06
0.0005 0.0065 3.42086754523e-06
0.0005 0.0075 3.47144975336e-06
0.0005 0.0085 3.49771989152e-06
0.0005 0.0095 3.51637495401e-06
0.0005 0.0105 3.50320668248e-06
0.0005 0.0115 3.47043903431e-06
0.0005 0.0125 3.45773295415e-06
0.0005 0.0135 3.4238685784e-06
0.0005 0.0145 3.36042315798e-06
0.0005 0.0155 3.30445701189e-06
0.0005 0.0165 3.25650225776e-06
0.0005 0.0175 3.2096542769e-06
0.0005 0.0185 3.16217535326e-06
0.0005 0.0195 3.1163784147e-06
0.0005 0.0205 3.07954150903e-06
0.0005 0.0215 3.05380163439e-06
0.0005 0.0225 3.01197542072e-06
0.0005 0.0235 2.95998678107e-06
0.0005 0.0245 2.89660313933e-06
0.0005 0.0255 2.78356683692e-06
0.0005 0.0265 2.63183998918e-06
0.0005 0.0275 2.45521141027e-06
0.0005 0.0285 2.29681637708e-06
0.0005 0.0295 2.16168868346e-06
0.0005 0.0305 2.07932885725e-06
0.0005 0.0315 1.05772365338e-06
0.0015 -0.0315 2.70712058693e-06
0.0015 -0.0305 5.2297615516e-06
0.0015 -0.0295 5.40629617167e-06
0.0015 -0.0285 5.66246891225e-06
0.0015 -0.0275 5.7065317382e-06
0.0015 -0.0265 5.74423403984e-06
0.0015 -0.0255 5.77828921015e-06
0.0015 -0.0245 5.94510912579e-06
0.0015 -0.0235 6.44935361354e-06
0.0015 -0.0225 8.06793570856e-06
0.0015 -0.0215 1.44761709905e-05
0.0015 -0.0205 4.23891031427e-05
0.0015 -0.0195 0.000139817727584
0.0015 -0.0185 0.000530684233049
0.0015 -0.0175 0.00161496703765
0.0015 -0.0165 0.00573400712992
0.0015 -0.0155 0.0169549204913
0.0015 -0.0145 0.0328106190536
0.0015 -0.0135 0.0456066831499
0.0015 -0.0125 0.0415046524643
0.0015 -0.0115 0.018809802625
0.0015 -0.0105 0.00234955543452
0.0015 -0.0095 0.00226108966576
0.0015 -0.0085 0.00149141254692
0.0015 -0.0075 0.000728955398279
0.0015 -0.0065 0.000271549722564
0.0015 -0.0055 0.000122948874799
0.0015 -0.0045 6.4100137514e-05
0.0015 -0.0035 3.11091056713e-05
0.0015 -0.0025 1.60384775839e-05
0.0015 -0.0015 9.4635505597e-06
0.0015 -0.0005 6.69798500086e-06
0.0015 0.0005 5.76557700256e-06
0.0015 0.0015 5.49835508257e-06
0.0015 0.0025 5.39997734726e-06
0.0015 0.0035 5.41016010331e-06
0.0015 0.0045 5.43439113241e-06
0.0015 0.0055 5.48879020598e-06
0.0015 0.0065 5.56689540949e-06
0.0015 0.0075 5.60369645427e-06
0.0015 0.0085 5.61566160497e-06
0.0015 0.0095 5.617116859e-06
0.0015 0.0105 5.58480860228e-06
0.0015 0.0115 5.53205536508e-06
0.0015 0.0125 5.49714501406e-06
0.0015 0.0135 5.44311871395e-06
0.0015 0.0145 5.36230117666e-06
0.0015 0.0155 5.29140317136e-06
0.0015 0.0165 5.23358987632e-06
0.0015 0.0175 5.18177987605e-06
0.0015 0.0185 5.13342476053e-06
0.0015 0.0195 5.09075107803e-06
0.0015 0.0205 5.06125854474e-06
0.0015 0.0215 5.04580716835e-06
0.0015 0.0225 5.01855026918e-06
0.0015 0.0235 4.98416515426e-06
0.0015 0.0245 4.94034641586e-06
0.0015 0.0255 4.85049118136e-06
0.0015 0.0265 4.7235082271e-06
0.0015 0.0275 4.57131179768e-06
0.0015 0.0285 4.44718476192e-06
0.0015 0.0295 4.26955643815e-06
0.0015 0.0305 4.09614255326e-06
0.0015 0.0315 2.07540582231e-06
0.0025 -0.0315 2.92269611272e-06
0.0025 -0.0305 5.40409403787e-06
0.0025 -0.0295 5.25488910625e-06
0.0025 -0.0285 5.36429260015e-06
0.0025 -0.0275 5.26278810958e-06
0.0025 -0.0265 5.20539609644e-06
0.0025 -0.0255 5.25334289005e-06
0.0025 -0.0245 5.57734134575e-06
0.0025 -0.0235 6.59480074816e-06
0.0025 -0.0225 9.64541489294e-06
0.0025 -0.0215 1.91564447818e-05
0.0025 -0.0205 4.94180057594e-05
0.0025 -0.0195 0.000150048264168
0.0025 -0.0185 0.000510293221182
0.0025 -0.0175 0.00145925963861
0.0025 -0.0165 0.00388845578869
0.0025 -0.0155 0.0118149183353
0.0025 -0.0145 0.0267277777477
0.0025 -0.0135 0.0419662176251
0.0025 -0.0125 0.0450511670293
0.0025 -0.0115 0.0302024246481
0.0025 -0.0105 0.00955597604455
0.0025 -0.0095 0.00172580328455
0.0025 -0.0085 0.00257438837972
0.0025 -0.0075 0.0015978248119
0.0025 -0.0065 0.000662594754982
0.0025 -0.0055 0.000244383984806
0.0025 -0.0045 0.000101137479929
0.0025 -0.0035 4.55100156992e-05
0.0025 -0.0025 2.33713042509e-05
0.0025 -0.0015 1.29630523466e-05
0.0025 -0.0005 8.35175175042e-06
0.0025 0.0005 6.39475928743e-06
0.0025 0.0015 5.56000663188e-06
0.0025 0.0025 5.16474554874e-06
0.0025 0.0035 4.93491676263e-06
0.0025 0.0045 4.78408568001e-06
0.0025 0.0055 4.67464206945e-06
0.0025 0.0065 4.59096806578e-06
0.0025 0.0075 4.52541981293e-06
0.0025 0.0085 4.46731241542e-06
0.0025 0.0095 4.41090442868e-06
0.0025 0.0105 4.35512706415e-06
0.0025 0.0115 4.30184485866e-06
0.0025 0.0125 4.25227427066e-06
0.0025 0.0135 4.2113414998e-06
0.0025 0.0145 4.18104163034e-06
0.0025 0.0155 4.16254238859e-06
0.0025 0.0165 4.15833165108e-06
0.0025 0.0175 4.16744224021e-06
0.0025 0.0185 4.18800176859e-06
0.0025 0.0195 4.21928349726e-06
0.0025 0.0205 4.26124759295e-06
0.0025 0.0215 4.31241336076e-06
0.0025 0.0225 4.3735979222e-06
0.0025 0.0235 4.44396705211e-06
0.0025 0.0245 4.52142380177e-06
0.0025 0.0255 4.6031638303e-06
0.0025 0.0265 4.68251273997e-06
0.0025 0.0275 4.74169291334e-06
0.0025 0.0285 4.77103736381e-06
0.0025 0.0295 4.54059977851e-06
0.0025 0.0305 4.23903402299e-06
0.0025 0.0315 2.13857568186e-06
0.0035 -0.0315 3.21448546574e-06
0.0035 -0.0305 5.68819885626e-06
0.0035 -0.0295 5.35316229855e-06
0.0035 -0.0285 5.61452686385e-06
0.0035 -0.0275 5.60659323973e-06
0.0035 -0.0265 5.6087765233e-06
0.0035 -0.0255 5.71602548749e-06
0.0035 -0.0245 6.17117472412e-06
0.0035 -0.0235 7.44953362802e-06
0.0035 -0.0225 1.07568410499e-05
0.0035 -0.0215 1.93700623073e-05
0.0035 -0.0205 4.43357816604e-05
0.0035 -0.0195 0.000120876473092
0.0035 -0.0185 0.000376500152207
0.0035 -0.0175 0.00104741566574
0.0035 -0.0165 0.00266047831109
0.0035 -0.0155 0.00788133010475
0.0035 -0.0145 0.0200031493392
0.0035 -0.0135 0.036201780587
0.0035 -0.0125 0.0449944890104
0.0035 -0.0115 0.0385361739626
0.0035 -0.0105 0.0207222447352
0.0035 -0.0095 0.00399509686532
0.0035 -0.0085 0.00274699642138
0.0035 -0.0075 0.00267661430761
0.0035 -0.0065 0.00138812068099
0.0035 -0.0055 0.000505221839996
0.0035 -0.0045 0.000180747145081
0.0035 -0.0035 7.30552778148e-05
0.0035 -0.0025 3.40874243237e-05
0.0035 -0.0015 1.80554246668e-05
0.0035 -0.0005 1.10570371307e-05
0.0035 0.0005 7.90246924126e-06
0.0035 0.0015 6.5141905514e-06
0.0035 0.0025 5.86781992601e-06
0.0035 0.0035 5.51685446934e-06
0.0035 0.0045 5.2906449328e-06
0.0035 0.0055 5.12664427481e-06
0.0035 0.0065 4.99642995797e-06
0.0035 0.0075 4.88192950546e-06
0.0035 0.0085 4.77249363056e-06
0.0035 0.0095 4.66440762939e-06
0.0035 0.0105 4.56028988151e-06
0.0035 0.0115 4.46697399146e-06
0.0035 0.0125 4.39198712088e-06
0.0035 0.0135 4.33950902166e-06
0.0035 0.0145 4.31174225648e-06
0.0035 0.0155 4.30920068639e-06
0.0035 0.0165 4.32995187604e-06
0.0035 0.0175 4.37070190504e-06
0.0035 0.0185 4.42784691135e-06
0.0035 0.0195 4.49853656854e-06
0.0035 0.0205 4.58081313526e-06
0.0035 0.0215 4.67369941084e-06
0.0035 0.0225 4.77672967209e-06
0.0035 0.0235 4.88951444321e-06
0.0035 0.0245 5.00929839544e-06
0.0035 0.0255 5.12706012318e-06
0.0035 0.0265 5.22757338924e-06
0.0035 0.0275 5.26512639303e-06
0.0035 0.0285 5.1872751429e-06
0.0035 0.0295 4.74071293636e-06
0.0035 0.0305 4.34209114716e-06
0.0035 0.0315 2.21614260217e-06
0.0045 -0.0315 3.36963534486e-06
0.0045 -0.0305 5.77562423916e-06
0.0045 -0.0295 5.23112166386e-06
0.0045 -0.0285 5.57384557582e-06
0.0045 -0.0275 5.69563694572e-06
0.0045 -0.0265 5.81796862542e-06
0.0045 -0.0255 6.02562510177e-06
0.0045 -0.0245 6.56162215452e-06
0.0045 -0.0235 7.77404759784e-06
0.0045 -0.0225 1.03909272655e-05
0.0045 -0.0215 1.65470985741e-05
0.0045 -0.0205 3.29071026416e-05
0.0045 -0.0195 7.91899870306e-05
0.0045 -0.0185 0.000234444182465
0.0045 -0.0175 0.00066321741616
0.0045 -0.0165 0.00175164553657
0.0045 -0.0155 0.00500650018452
0.0045 -0.0145 0.0137549683081
0.0045 -0.0135 0.0290185522476
0.0045 -0.0125 0.0417603652987
0.0045 -0.0115 0.0426223041944
0.0045 -0.0105 0.0312089518991
0.0045 -0.0095 0.0135338089175
0.0045 -0.0085 0.000540483384777
0.0045 -0.0075 0.00331412665312
0.0045 -0.0065 0.00241320565363
0.0045 -0.0055 0.00102688955405
0.0045 -0.0045 0.000346211801886
0.0045 -0.0035 0.000119412227617
0.0045 -0.0025 4.74834090955e-05
0.0045 -0.0015 2.4799686989e-05
0.0045 -0.0005 1.44351036193e-05
0.0045 0.0005 9.71063843307e-06
0.0045 0.0015 7.57378477729e-06
0.0045 0.0025 6.57914633746e-06
0.0045 0.0035 6.07259632084e-06
0.0045 0.0045 5.77640713115e-06
0.0045 0.0055 5.57061842177e-06
0.0045 0.0065 5.39805046485e-06
0.0045 0.0075 5.22983278706e-06
0.0045 0.0085 5.0557465835e-06
0.0045 0.0095 4.88020870492e-06
0.0045 0.0105 4.71618290587e-06
0.0045 0.0115 4.57762665836e-06
0.0045 0.0125 4.47463311218e-06
0.0045 0.0135 4.41238925092e-06
0.0045 0.0145 4.39120039918e-06
0.0045 0.0155 4.4077414712e-06
0.0045 0.0165 4.45658279865e-06
0.0045 0.0175 4.5311606736e-06
0.0045 0.0185 4.62492040356e-06
0.0045 0.0195 4.73228813934e-06
0.0045 0.0205 4.84927980127e-06
0.0045 0.0215 4.97355000247e-06
0.0045 0.0225 5.10352929476e-06
0.0045 0.0235 5.23617275703e-06
0.0045 0.0245 5.36444883095e-06
0.0045 0.0255 5.47227479608e-06
0.0045 0.0265 5.53084523681e-06
0.0045 0.0275 5.47492860655e-06
0.0045 0.0285 5.25635678374e-06
0.0045 0.0295 4.68484623591e-06
0.0045 0.0305 4.32983520878e-06
0.0045 0.0315 2.25609641136e-06
0.0055 -0.0315 3.52506708879e-06
0.0055 -0.0305 5.88166236151e-06
0.0055 -0.0295 5.10496562127e-06
0.0055 -0.0285 5.46392097839e-06
0.0055 -0.0275 5.66637199489e-06
0.0055 -0.0265 5.89157816769e-06
0.0055 -0.0255 6.15610402682e-06
0.0055 -0.0245 6.61682913897e-06
0.0055 -0.0235 7.43929847993e-06
0.0055 -0.0225 9.009416051e-06
0.0055 -0.0215 1.25527328086e-05
0.0055 -0.0205 2.14138469954e-05
0.0055 -0.0195 4.59855598607e-05
0.0055 -0.0185 0.000121478147506
0.0055 -0.0175 0.000359813419005
0.0055 -0.0165 0.00105107240662
0.0055 -0.0155 0.00300348175286
0.0055 -0.0145 0.00863494279386
0.0055 -0.0135 0.0213113499719
0.0055 -0.0125 0.0360524331856
0.0055 -0.0115 0.0427337430748
0.0055 -0.0105 0.0381470631429
0.0055 -0.0095 0.024412869962
0.0055 -0.0085 0.00827368941382
0.0055 -0.0075 0.00149461280124
0.0055 -0.0065 0.00322815951305
0.0055 -0.0055 0.00184142565455
0.0055 -0.0045 0.00066282425623
0.0055 -0.0035 0.000214236930218
0.0055 -0.0025 7.60934120112e-05
0.0055 -0.0015 3.43869556089e-05
0.0055 -0.0005 1.91833055028e-05
0.0055 0.0005 1.2491630173e-05
0.0055 0.0015 9.23190945761e-06
0.0055 0.0025 7.6408222035e-06
0.0055 0.0035 6.86410233475e-06
0.0055 0.0045 6.45829866622e-06
0.0055 0.0055 6.19577914861e-06
0.0055 0.0065 5.96432868087e-06
0.0055 0.0075 5.71942991191e-06
0.0055 0.0085 5.45851280062e-06
0.0055 0.0095 5.20089948966e-06
0.0055 0.0105 4.97090458573e-06
0.0055 0.0115 4.78764018044e-06
0.0055 0.0125 4.66160163854e-06
0.0055 0.0135 4.59520822367e-06
0.0055 0.0145 4.58498862077e-06
0.0055 0.0155 4.62350328253e-06
0.0055 0.0165 4.70083557322e-06
0.0055 0.0175 4.80615872688e-06
0.0055 0.0185 4.92926315603e-06
0.0055 0.0195 5.06185256862e-06
0.0055 0.0205 5.19817597883e-06
0.0055 0.0215 5.33448003102e-06
0.0055 0.0225 5.46723096502e-06
0.0055 0.0235 5.59034333913e-06
0.0055 0.0245 5.69172715196e-06
0.0055 0.0255 5.74765182942e-06
0.0055 0.0265 5.72180189265e-06
0.0055 0.0275 5.55283391614e-06
0.0055 0.0285 5.2300476645e-06
0.0055 0.0295 4.61060266978e-06
0.0055 0.0305 4.32772582628e-06
0.0055 0.0315 2.29231298569e-06
0.0065 -0.0315 3.64582991458e-06
0.0065 -0.0305 5.96498354847e-06
0.0065 -0.0295 4.98021712174e-06
0.0065 -0.0285 5.30845370312e-06
0.0065 -0.0275 5.52813713717e-06
0.0065 -0.0265 5.79124408165e-06
0.0065 -0.0255 6.03150464618e-06
0.0065 -0.0245 6.30542739057e-06
0.0065 -0.0235 6.6722817516e-06
0.0065 -0.0225 7.34933267267e-06
0.0065 -0.0215 9.02494529966e-06
0.0065 -0.0205 1.34264451855e-05
0.0065 -0.0195 2.50645519904e-05
0.0065 -0.0185 5.70335448295e-05
0.0065 -0.0175 0.000180403469789
0.0065 -0.0165 0.000575794187407
0.0065 -0.0155 0.00168593933988
0.0065 -0.0145 0.00491881866313
0.0065 -0.0135 0.0140880814808
0.0065 -0.0125 0.0285928614235
0.0065 -0.0115 0.0395633258459
0.0065 -0.0105 0.0410270245063
0.0065 -0.0095 0.0329771268057
0.0065 -0.0085 0.0183933093304
0.0065 -0.0075 0.00439811715012
0.0065 -0.0065 0.0024880920086
0.0065 -0.0055 0.00265716922112
0.0065 -0.0045 0.00122091661699
0.0065 -0.0035 0.000398468633918
0.0065 -0.0025 0.000126860396233
0.0065 -0.0015 4.81833880658e-05
0.0065 -0.0005 2.71753057507e-05
0.0065 0.0005 1.74592667184e-05
0.0065 0.0015 1.22453676032e-05
0.0065 0.0025 9.47827934337e-06
0.0065 0.0035 8.10144684228e-06
0.0065 0.0045 7.40824002495e-06
0.0065 0.0055 6.97767582614e-06
0.0065 0.0065 6.60264559741e-06
0.0065 0.0075 6.21824292077e-06
0.0065 0.0085 5.83372663809e-06
0.0065 0.0095 5.48117091211e-06
0.0065 0.0105 5.18873401072e-06
0.0065 0.0115 4.9725907701e-06
0.0065 0.0125 4.83759677116e-06
0.0065 0.0135 4.78043886653e-06
0.0065 0.0145 4.79214528336e-06
0.0065 0.0155 4.85968147321e-06
0.0065 0.0165 4.9676431576e-06
0.0065 0.0175 5.1003803731e-06
0.0065 0.0185 5.24421122006e-06
0.0065 0.0195 5.38897954572e-06
0.0065 0.0205 5.52820788857e-06
0.0065 0.0215 5.65761927526e-06
0.0065 0.0225 5.77243566204e-06
0.0065 0.0235 5.8638820705e-06
0.0065 0.0245 5.91590936937e-06
0.0065 0.0255 5.90154345414e-06
0.0065 0.0265 5.7882189651e-06
0.0065 0.0275 5.53297259896e-06
0.0065 0.0285 5.15676650583e-06
0.0065 0.0295 4.53367924535e-06
0.0065 0.0305 4.32857562559e-06
0.0065 0.0315 2.32379459155e-06
0.0075 -0.0315 3.74221096884e-06
0.0075 -0.0305 6.03314284318e-06
0.0075 -0.0295 4.87019736559e-06
0.0075 -0.0285 5.14544879695e-06
0.0075 -0.0275 5.33237447474e-06
0.0075 -0.0265 5.56335610189e-06
0.0075 -0.0255 5.71045462726e-06
0.0075 -0.0245 5.77599750987e-06
0.0075 -0.0235 5.78599772238e-06
0.0075 -0.0225 5.89845218146e-06
0.0075 -0.0215 6.54286159243e-06
0.0075 -0.0205 8.6725722968e-06
0.0075 -0.0195 1.4513569122e-05
0.0075 -0.0185 3.18452473032e-05
0.0075 -0.0175 9.08290625048e-05
0.0075 -0.0165 0.000289972293784
0.0075 -0.0155 0.000885394316748
0.0075 -0.0145 0.00257371484058
0.0075 -0.0135 0.00828218225278
0.0075 -0.0125 0.0204904144978
0.0075 -0.0115 0.0338226386297
0.0075 -0.0105 0.0403128467548
0.0075 -0.0095 0.037898470679
0.0075 -0.0085 0.0276614208448
0.0075 -0.0075 0.0132104218274
0.0075 -0.0065 0.00178769172233
0.0075 -0.0055 0.00265006568208
0.0075 -0.0045 0.0019284300407
0.0075 -0.0035 0.000748401492457
0.0075 -0.0025 0.000230574154542
0.0075 -0.0015 8.22525203414e-05
0.0075 -0.0005 4.35895920182e-05
0.0075 0.0005 2.77745504361e-05
0.0075 0.0015 1.85059636971e-05
0.0075 0.0025 1.31768315257e-05
0.0075 0.0035 1.03997708071e-05
0.0075 0.0045 8.97635301134e-06
0.0075 0.0055 8.09411724411e-06
0.0075 0.0065 7.38090214904e-06
0.0075 0.0075 6.74003773217e-06
0.0075 0.0085 6.17776048871e-06
0.0075 0.0095 5.71700995199e-06
0.0075 0.0105 5.37034799243e-06
0.0075 0.0115 5.13796019184e-06
0.0075 0.0125 5.01223709637e-06
0.0075 0.0135 4.9807301737e-06
0.0075 0.0145 5.02655384658e-06
0.0075 0.0155 5.12915165647e-06
0.0075 0.0165 5.26651750489e-06
0.0075 0.0175 5.41836172802e-06
0.0075 0.0185 5.56903355238e-06
0.0075 0.0195 5.70872186973e-06
0.0075 0.0205 5.83232319753e-06
0.0075 0.0215 5.93653374443e-06
0.0075 0.0225 6.01623824535e-06
0.0075 0.0235 6.06109155576e-06
0.0075 0.0245 6.05372709229e-06
0.0075 0.0255 5.96955760093e-06
0.0075 0.0265 5.78621264191e-06
0.0075 0.0275 5.47726945009e-06
0.0075 0.0285 5.08079825992e-06
0.0075 0.0295 4.47323853883e-06
0.0075 0.0305 4.33846500941e-06
0.0075 0.0315 2.35344468445e-06
0.0085 -0.0315 3.82697715186e-06
0.0085 -0.0305 6.09331430366e-06
0.0085 -0.0295 4.76993008937e-06
0.0085 -0.0285 4.98015336789e-06
0.0085 -0.0275 5.10343090138e-06
0.0085 -0.0265 5.26186036897e-06
0.0085 -0.0255 5.29896683747e-06
0.0085 -0.0245 5.20580833163e-06
0.0085 -0.0235 5.0087987138e-06
0.0085 -0.0225 4.84147663417e-06
0.0085 -0.0215 4.98995744558e-06
0.0085 -0.0205 6.03001549874e-06
0.0085 -0.0195 9.26068397553e-06
0.0085 -0.0185 1.8486271916e-05
0.0085 -0.0175 4.43178810537e-05
0.0085 -0.0165 0.000144878270761
0.0085 -0.0155 0.000453877978629
0.0085 -0.0145 0.00128465371912
0.0085 -0.0135 0.00430489366345
0.0085 -0.0125 0.0130469178075
0.0085 -0.0115 0.0263795119004
0.0085 -0.0105 0.0366721955122
0.0085 -0.0095 0.0391993462525
0.0085 -0.0085 0.0339795985823
0.0085 -0.0075 0.0224807966692
0.0085 -0.0065 0.00900272242766
0.0085 -0.0055 0.000843123756256
0.0085 -0.0045 0.00226295748167
0.0085 -0.0035 0.00131268397059
0.0085 -0.0025 0.000466179204073
0.0085 -0.0015 0.000157573509252
0.0085 -0.0005 8.32947954159e-05
0.0085 0.0005 5.21957157391e-05
0.0085 0.0015 3.27517431222e-05
0.0085 0.0025 2.11711083738e-05
0.0085 0.0035 1.51355930408e-05
0.0085 0.0045 1.19675375381e-05
0.0085 0.0055 9.97758999985e-06
0.0085 0.0065 8.51627885716e-06
0.0085 0.0075 7.3897809465e-06
0.0085 0.0085 6.54268278137e-06
0.0085 0.0095 5.93677220781e-06
0.0085 0.0105 5.5322108205e-06
0.0085 0.0115 5.29407710223e-06
0.0085 0.0125 5.19373247977e-06
0.0085 0.0135 5.20356837685e-06
0.0085 0.0145 5.29386187082e-06
0.0085 0.0155 5.43339382638e-06
0.0085 0.0165 5.59276001103e-06
0.0085 0.0175 5.74883651514e-06
0.0085 0.0185 5.88746723037e-06
0.0085 0.0195 6.0026927745e-06
0.0085 0.0205 6.09325606206e-06
0.0085 0.0215 6.15810896759e-06
0.0085 0.0225 6.19251914486e-06
0.0085 0.0235 6.18575814327e-06
0.0085 0.0245 6.12163822133e-06
0.0085 0.0255 5.98072473662e-06
0.0085 0.0265 5.74993106222e-06
0.0085 0.0275 5.41254335194e-06
0.0085 0.0285 5.01470101091e-06
0.0085 0.0295 4.42980384586e-06
0.0085 0.0305 4.35546368001e-06
0.0085 0.0315 2.38172792857e-06
0.0095 -0.0315 3.89141162105e-06
0.0095 -0.0305 6.13319912742e-06
0.0095 -0.0295 4.67469669989e-06
0.0095 -0.0285 4.81541557849e-06
0.0095 -0.0275 4.86482786957e-06
0.0095 -0.0265 4.9468522984e-06
0.0095 -0.0255 4.90046660727e-06
0.0095 -0.0245 4.72317894421e-06
0.0095 -0.0235 4.44351379125e-06
0.0095 -0.0225 4.16626752528e-06
0.0095 -0.0215 4.08471910299e-06
0.0095 -0.0205 4.56404092635e-06
0.0095 -0.0195 6.36466184359e-06
0.0095 -0.0185 1.15237781975e-05
0.0095 -0.0175 2.67672974497e-05
0.0095 -0.0165 8.35174442777e-05
0.0095 -0.0155 0.0002383419737
0.0095 -0.0145 0.000627205813778
0.0095 -0.0135 0.00200153305699
0.0095 -0.0125 0.00731344124892
0.0095 -0.0115 0.018520021585
0.0095 -0.0105 0.0308244640771
0.0095 -0.0095 0.037496033032
0.0095 -0.0085 0.0368294212132
0.0095 -0.0075 0.0296102116033
0.0095 -0.0065 0.0177313585724
0.0095 -0.0055 0.0060398273184
0.0095 -0.0045 0.000994216696868
0.0095 -0.0035 0.00172522962304
0.0095 -0.0025 0.000886322628679
0.0095 -0.0015 0.000303223909156
0.0095 -0.0005 0.000182237247321
0.0095 0.0005 0.000123757921753
0.0095 0.0015 6.71664545159e-05
0.0095 0.0025 3.89397597404e-05
0.0095 0.0035 2.58813978005e-05
0.0095 0.0045 1.8601003418e-05
0.0095 0.0055 1.39211273617e-05
0.0095 0.0065 1.07066320744e-05
0.0095 0.0075 8.54555405765e-06
0.0095 0.0085 7.14736724039e-06
0.0095 0.0095 6.27107176663e-06
0.0095 0.0105 5.75273451075e-06
0.0095 0.0115 5.4923168347e-06
0.0095 0.0125 5.41986683544e-06
0.0095 0.0135 5.47777834106e-06
0.0095 0.0145 5.61402878914e-06
0.0095 0.0155 5.78192755977e-06
0.0095 0.0165 5.94523944768e-06
0.0095 0.0175 6.08254106721e-06
0.0095 0.0185 6.18644271883e-06
0.0095 0.0195 6.25856863495e-06
0.0095 0.0205 6.30311124274e-06
0.0095 0.0215 6.32139280261e-06
0.0095 0.0225 6.308852185e-06
0.0095 0.0235 6.25472779786e-06
0.0095 0.0245 6.14464458519e-06
0.0095 0.0255 5.96354129751e-06
0.0095 0.0265 5.7040975607e-06
0.0095 0.0275 5.35433752552e-06
0.0095 0.0285 4.96425166764e-06
0.0095 0.0295 4.40261826045e-06
0.0095 0.0305 4.37853360723e-06
0.0095 0.0315 2.40918358826e-06
0.0105 -0.0315 3.9254960801e-06
0.0105 -0.0305 6.14036883327e-06
0.0105 -0.0295 4.58095682427e-06
0.0105 -0.0285 4.65655758005e-06
0.0105 -0.0275 4.64079177621e-06
0.0105 -0.0265 4.66768615924e-06
0.0105 -0.0255 4.58205572491e-06
0.0105 -0.0245 4.38718810109e-06
0.0105 -0.0235 4.1038646736e-06
0.0105 -0.0225 3.80487372151e-06
0.0105 -0.0215 3.62050145473e-06
0.0105 -0.0205 3.79069334618e-06
0.0105 -0.0195 4.78077115527e-06
0.0105 -0.0185 7.79387810969e-06
0.0105 -0.0175 1.66156790914e-05
0.0105 -0.0165 4.69203843715e-05
0.0105 -0.0155 0.00012196545318
0.0105 -0.0145 0.000290873410637
0.0105 -0.0135 0.000852480510216
0.0105 -0.0125 0.00357173085841
0.0105 -0.0115 0.0115822348346
0.0105 -0.0105 0.0237226468252
0.0105 -0.0095 0.0334348119267
0.0105 -0.0085 0.0365873360157
0.0105 -0.0075 0.0334763185188
0.0105 -0.0065 0.0251369925889
0.0105 -0.0055 0.0140094082554
0.0105 -0.0045 0.00472898759428
0.0105 -0.0035 0.00121681519318
0.0105 -0.0025 0.00120505543114
0.0105 -0.0015 0.000614767869016
0.0105 -0.0005 0.000438815407202
0.0105 0.0005 0.00030170225897
0.0105 0.0015 0.00015154515447
0.0105 0.0025 8.63627226974e-05
0.0105 0.0035 5.42358271005e-05
0.0105 0.0045 3.5618419654e-05
0.0105 0.0055 2.34988154795e-05
0.0105 0.0065 1.57786943491e-05
0.0105 0.0075 1.11975707753e-05
0.0105 0.0085 8.55107018473e-06
0.0105 0.0095 7.0298141561e-06
0.0105 0.0105 6.21119644812e-06
0.0105 0.0115 5.84313677536e-06
0.0105 0.0125 5.76102832689e-06
0.0105 0.0135 5.84753205831e-06
0.0105 0.0145 6.00939650965e-06
0.0105 0.0155 6.17763076964e-06
0.0105 0.0165 6.31256824941e-06
0.0105 0.0175 6.40115648342e-06
0.0105 0.0185 6.44781993618e-06
0.0105 0.0195 6.46357728508e-06
0.0105 0.0205 6.4572397244e-06
0.0105 0.0215 6.43063181773e-06
0.0105 0.0225 6.37779083903e-06
0.0105 0.0235 6.28696113884e-06
0.0105 0.0245 6.14452457602e-06
0.0105 0.0255 5.93782145998e-06
0.0105 0.0265 5.66260111566e-06
0.0105 0.0275 5.30922621021e-06
0.0105 0.0285 4.93000993107e-06
0.0105 0.0295 4.38919028421e-06
0.0105 0.0305 4.40643950146e-06
0.0105 0.0315 2.43615750886e-06
0.0115 -0.0315 3.93376638059e-06
0.0115 -0.0305 6.11709815367e-06
0.0115 -0.0295 4.48821669922e-06
0.0115 -0.0285 4.51287439887e-06
0.0115 -0.0275 4.45136182199e-06
0.0115 -0.0265 4.45286749069e-06
0.0115 -0.0255 4.36887231275e-06
0.0115 -0.0245 4.20254779537e-06
0.0115 -0.0235 3.96135182025e-06
0.0115 -0.0225 3.69121391018e-06
0.0115 -0.0215 3.48435012817e-06
0.0115 -0.0205 3.52153933498e-06
0.0115 -0.0195 4.12809962432e-06
0.0115 -0.0185 5.90695772991e-06
0.0115 -0.0175 1.03539454899e-05
0.0115 -0.0165 2.28908313443e-05
0.0115 -0.0155 5.26816473173e-05
0.0115 -0.0145 0.000115413641738
0.0115 -0.0135 0.00032691000404
0.0115 -0.0125 0.00148694827172
0.0115 -0.0115 0.00644349070983
0.0115 -0.0105 0.0166570277689
0.0115 -0.0095 0.0277758138054
0.0115 -0.0085 0.0339310127105
0.0115 -0.0075 0.0340250936164
0.0115 -0.0065 0.02937185341
0.0115 -0.0055 0.0212136501345
0.0115 -0.0045 0.0122927455538
0.0115 -0.0035 0.00583878352855
0.0115 -0.0025 0.00296973568652
0.0115 -0.0015 0.00186487472419
0.0115 -0.0005 0.00130618981969
0.0115 0.0005 0.000867529995194
0.0115 0.0015 0.000442017911425
0.0115 0.0025 0.000228041604807
0.0115 0.0035 0.000141799765756
0.0115 0.0045 8.68564797846e-05
0.0115 0.0055 4.88625836769e-05
0.0115 0.0065 2.8282408511e-05
0.0115 0.0075 1.78301777172e-05
0.0115 0.0085 1.20544846032e-05
0.0115 0.0095 8.92404924805e-06
0.0115 0.0105 7.31699055209e-06
0.0115 0.0115 6.57648884463e-06
0.0115 0.0125 6.34518727336e-06
0.0115 0.0135 6.37755156711e-06
0.0115 0.0145 6.49984876185e-06
0.0115 0.0155 6.61112922525e-06
0.0115 0.0165 6.6710487953e-06
0.0115 0.0175 6.67914122155e-06
0.0115 0.0185 6.65259525949e-06
0.0115 0.0195 6.60905322793e-06
0.0115 0.0205 6.55756715896e-06
0.0115 0.0215 6.49654201787e-06
0.0115 0.0225 6.41596801549e-06
0.0115 0.0235 6.301468719e-06
0.0115 0.0245 6.13890669249e-06
0.0115 0.0255 5.91677503433e-06
0.0115 0.0265 5.63283658898e-06
0.0115 0.0275 5.27920025908e-06
0.0115 0.0285 4.91039633174e-06
0.0115 0.0295 4.38687590424e-06
0.0115 0.0305 4.43867938654e-06
0.0115 0.0315 2.46337343204e-06
0.0125 -0.0315 3.89486246222e-06
0.0125 -0.0305 6.04898159541e-06
0.0125 -0.0295 4.4055576235e-06
0.0125 -0.0285 4.39248515049e-06
0.0125 -0.0275 4.30679440477e-06
0.0125 -0.0265 4.30832082957e-06
0.0125 -0.0255 4.25417312176e-06
0.0125 -0.0245 4.14392151655e-06
0.0125 -0.0235 3.97268512071e-06
0.0125 -0.0225 3.76814225505e-06
0.0125 -0.0215 3.60443889024e-06
0.0125 -0.0205 3.64995460956e-06
0.0125 -0.0195 4.21964251351e-06
0.0125 -0.0185 5.79049619195e-06
0.0125 -0.0175 8.93517000682e-06
0.0125 -0.0165 1.24545673364e-05
0.0125 -0.0155 1.23950313155e-05
0.0125 -0.0145 4.61918153732e-05
0.0125 -0.0135 0.000185604637928
0.0125 -0.0125 0.000527860728829
0.0125 -0.0115 0.00319786470642
0.0125 -0.0105 0.0108172983454
0.0125 -0.0095 0.0215875520117
0.0125 -0.0085 0.0295538527106
0.0125 -0.0075 0.0318972131635
0.0125 -0.0065 0.0299010087935
0.0125 -0.0055 0.0250457468427
0.0125 -0.0045 0.0190417379885
0.0125 -0.0035 0.0137260378656
0.0125 -0.0025 0.00980020386849
0.0125 -0.0015 0.00690446482129
0.0125 -0.0005 0.0047060062542
0.0125 0.0005 0.0029449967254
0.0125 0.0015 0.00156440640129
0.0125 0.0025 0.000830471768693
0.0125 0.0035 0.000497548687485
0.0125 0.0045 0.000255537265637
0.0125 0.0055 0.000118005067212
0.0125 0.0065 6.41061110818e-05
0.0125 0.0075 3.53291793194e-05
0.0125 0.0085 2.08177882197e-05
0.0125 0.0095 1.37278897423e-05
0.0125 0.0105 9.98995380718e-06
0.0125 0.0115 8.15229162549e-06
0.0125 0.0125 7.39266697921e-06
0.0125 0.0135 7.14979614945e-06
0.0125 0.0145 7.09305610266e-06
0.0125 0.0155 7.05595277101e-06
0.0125 0.0165 6.98574224189e-06
0.0125 0.0175 6.8885965036e-06
0.0125 0.0185 6.78641554309e-06
0.0125 0.0195 6.69429194947e-06
0.0125 0.0205 6.61388778896e-06
0.0125 0.0215 6.5351801733e-06
0.0125 0.0225 6.44151208481e-06
0.0125 0.0235 6.31485628749e-06
0.0125 0.0245 6.14033085553e-06
0.0125 0.0255 5.9077429831e-06
0.0125 0.0265 5.61721470119e-06
0.0125 0.0275 5.26301679485e-06
0.0125 0.0285 4.90239621715e-06
0.0125 0.0295 4.39289858779e-06
0.0125 0.0305 4.47649795949e-06
0.0125 0.0315 2.49311239551e-06
0.0135 -0.0315 3.87158230662e-06
0.0135 -0.0305 6.00043112239e-06
0.0135 -0.0295 4.33794485913e-06
0.0135 -0.0285 4.30025215786e-06
0.0135 -0.0275 4.20597348467e-06
0.0135 -0.0265 4.22364945196e-06
0.0135 -0.0255 4.21427082686e-06
0.0135 -0.0245 4.17450509368e-06
0.0135 -0.0235 4.09145680028e-06
0.0135 -0.0225 3.98251095391e-06
0.0135 -0.0215 3.91478789137e-06
0.0135 -0.0205 4.06348799964e-06
0.0135 -0.0195 4.79086715991e-06
0.0135 -0.0185 6.70661030523e-06
0.0135 -0.0175 1.04757247423e-05
0.0135 -0.0165 1.52835202242e-05
0.0135 -0.0155 1.44331014645e-05
0.0135 -0.0145 5.07215612799e-05
0.0135 -0.0135 0.000256311378771
0.0135 -0.0125 0.000428533705637
0.0135 -0.0115 0.0014333575796
0.0135 -0.0105 0.0069315389788
0.0135 -0.0095 0.0161667549019
0.0135 -0.0085 0.0242943853795
0.0135 -0.0075 0.0277477959144
0.0135 -0.0065 0.0272165172994
0.0135 -0.0055 0.0246681348217
0.0135 -0.0045 0.0218993691103
0.0135 -0.0035 0.0198387118428
0.0135 -0.0025 0.0179502917599
0.0135 -0.0015 0.0154906796538
0.0135 -0.0005 0.012416055188
0.0135 0.0005 0.008898704658
0.0135 0.0015 0.00539374134524
0.0135 0.0025 0.00286806066566
0.0135 0.0035 0.00152628122987
0.0135 0.0045 0.000790534411535
0.0135 0.0055 0.000379829677089
0.0135 0.0065 0.000180801493656
0.0135 0.0075 8.31202100149e-05
0.0135 0.0085 4.58066604977e-05
0.0135 0.0095 2.62012792173e-05
0.0135 0.0105 1.62381518497e-05
0.0135 0.0115 1.14724585623e-05
0.0135 0.0125 9.23616446298e-06
0.0135 0.0135 8.254126803e-06
0.0135 0.0145 7.7826729622e-06
0.0135 0.0155 7.47445306181e-06
0.0135 0.0165 7.22136691817e-06
0.0135 0.0175 7.01039970716e-06
0.0135 0.0185 6.84758433356e-06
0.0135 0.0195 6.73058722093e-06
0.0135 0.0205 6.64448527037e-06
0.0135 0.0215 6.56641396319e-06
0.0135 0.0225 6.47188115811e-06
0.0135 0.0235 6.33980064287e-06
0.0135 0.0245 6.15592955291e-06
0.0135 0.0255 5.91286104172e-06
0.0135 0.0265 5.61423079032e-06
0.0135 0.0275 5.25714201572e-06
0.0135 0.0285 4.9020978508e-06
0.0135 0.0295 4.40408461753e-06
0.0135 0.0305 4.52223433381e-06
0.0135 0.0315 2.52903324771e-06
0.0145 -0.0315 3.89522323338e-06
0.0145 -0.0305 6.00313080077e-06
0.0145 -0.0295 4.28615954399e-06
0.0145 -0.0285 4.23424854142e-06
0.0145 -0.0275 4.13982180652e-06
0.0145 -0.0265 4.18066980211e-06
0.0145 -0.0255 4.22064166588e-06
0.0145 -0.0245 4.25660585036e-06
0.0145 -0.0235 4.27302865497e-06
0.0145 -0.0225 4.28383458781e-06
0.0145 -0.0215 4.35601794637e-06
0.0145 -0.0205 4.68041446156e-06
0.0145 -0.0195 5.68243266791e-06
0.0145 -0.0185 8.13795457807e-06
0.0145 -0.0175 1.31894319807e-05
0.0145 -0.0165 2.24946006754e-05
0.0145 -0.0155 3.78212361872e-05
0.0145 -0.0145 6.86578218733e-05
0.0145 -0.0135 0.000325688122157
0.0145 -0.0125 0.000554163927369
0.0145 -0.0115 0.000776472264944
0.0145 -0.0105 0.00546759840497
0.0145 -0.0095 0.0128933902561
0.0145 -0.0085 0.0195083916729
0.0145 -0.0075 0.0224246608368
0.0145 -0.0065 0.0220046010933