% Model:              Benchmark260518.mph
% Version:            COMSOL 6.2.0.339
% Date:               May 19 2026, 17:26
% Dimension:          2
% Nodes:              4096
% Expressions:        1
% Description:        速度大小
% Length unit:        m
% x                       y                        spf.U (m/s)
5.0E-4                    -0.0315                  1.5040282037817371E-6
5.0E-4                    -0.0305                  3.0272331961901264E-6
5.0E-4                    -0.0295                  3.388237605353038E-6
5.0E-4                    -0.0285                  3.7745474179763736E-6
5.0E-4                    -0.0275                  3.986785147551905E-6
5.0E-4                    -0.0265                  4.164629604167013E-6
5.0E-4                    -0.0255                  4.311310164594616E-6
5.0E-4                    -0.0245                  4.438557758055744E-6
5.0E-4                    -0.0235                  4.544401961104154E-6
5.0E-4                    -0.0225                  4.650227597818653E-6
5.0E-4                    -0.0215                  4.758539331755155E-6
5.0E-4                    -0.0205                  4.8633163608363524E-6
5.0E-4                    -0.0195                  4.976208947129204E-6
5.0E-4                    -0.0185                  5.09307541084643E-6
5.0E-4                    -0.0175                  5.211540563924391E-6
5.0E-4                    -0.0165                  5.3446568739664515E-6
5.0E-4                    -0.0155                  5.486137844426209E-6
5.0E-4                    -0.0145                  5.6291806047554346E-6
5.0E-4                    -0.0135                  5.774580728393338E-6
5.0E-4                    -0.0125                  5.9016491511139925E-6
5.0E-4                    -0.0115                  6.006825428307332E-6
5.0E-4                    -0.0105                  6.098483092393005E-6
5.0E-4                    -0.0095                  6.1639458589977604E-6
5.0E-4                    -0.0085                  6.226083211520706E-6
5.0E-4                    -0.0075                  6.302977945456822E-6
5.0E-4                    -0.0065                  6.3955823050533486E-6
5.0E-4                    -0.0055                  6.500934378506566E-6
5.0E-4                    -0.0045                  6.63880094486845E-6
5.0E-4                    -0.0035                  7.105219764001888E-6
5.0E-4                    -0.0025                  7.885619006979304E-6
5.0E-4                    -0.0015                  9.883987324830979E-6
5.0E-4                    -5.0E-4                  1.7417462763163682E-5
5.0E-4                    5.0E-4                   4.2379265561665115E-5
5.0E-4                    0.0015                   1.335695314649111E-4
5.0E-4                    0.0025                   3.053278641941893E-4
5.0E-4                    0.0035                   0.0013974248257388553
5.0E-4                    0.0045                   0.011281133275983945
5.0E-4                    0.0055                   0.023653093587943312
5.0E-4                    0.0065                   0.027423757981823272
5.0E-4                    0.0075                   0.025910704954179888
5.0E-4                    0.0085                   0.020839303223652527
5.0E-4                    0.0095                   0.013415793540368086
5.0E-4                    0.0105                   0.006110793964011322
5.0E-4                    0.0115                   0.0015841474521762111
5.0E-4                    0.0125                   1.5966231399161277E-4
5.0E-4                    0.0135                   3.5150216773557946E-5
5.0E-4                    0.0145                   1.287736298021799E-5
5.0E-4                    0.0155                   6.499397466605009E-6
5.0E-4                    0.0165                   5.040292557458963E-6
5.0E-4                    0.0175                   4.683739875325515E-6
5.0E-4                    0.0185                   4.427028091837606E-6
5.0E-4                    0.0195                   4.335463202694408E-6
5.0E-4                    0.0205                   4.252044857035878E-6
5.0E-4                    0.0215                   4.18578463786975E-6
5.0E-4                    0.0225                   4.112580160422838E-6
5.0E-4                    0.0235                   4.036262843134482E-6
5.0E-4                    0.0245                   3.955762446122148E-6
5.0E-4                    0.0255                   3.855594093040133E-6
5.0E-4                    0.0265                   3.7363107136057322E-6
5.0E-4                    0.0275                   3.5850913143500578E-6
5.0E-4                    0.0285                   3.427670212041603E-6
5.0E-4                    0.0295                   3.0997325693694254E-6
5.0E-4                    0.0305                   2.8046931311040103E-6
5.0E-4                    0.0315                   1.4157431811820938E-6
0.0015                    -0.0315                  2.9533737117897337E-6
0.0015                    -0.0305                  5.872146918865035E-6
0.0015                    -0.0295                  6.325294248786212E-6
0.0015                    -0.0285                  6.758286349194627E-6
0.0015                    -0.0275                  6.9072208907351525E-6
0.0015                    -0.0265                  7.031876957690288E-6
0.0015                    -0.0255                  7.135084617153979E-6
0.0015                    -0.0245                  7.231793655382964E-6
0.0015                    -0.0235                  7.318734293970892E-6
0.0015                    -0.0225                  7.41548043591551E-6
0.0015                    -0.0215                  7.524253692424202E-6
0.0015                    -0.0205                  7.639798654069457E-6
0.0015                    -0.0195                  7.773419284686179E-6
0.0015                    -0.0185                  7.92268582793171E-6
0.0015                    -0.0175                  8.086934191220937E-6
0.0015                    -0.0165                  8.278777098934761E-6
0.0015                    -0.0155                  8.491245283799184E-6
0.0015                    -0.0145                  8.713917443650167E-6
0.0015                    -0.0135                  8.939859033503826E-6
0.0015                    -0.0125                  9.14075262990639E-6
0.0015                    -0.0115                  9.30410898727015E-6
0.0015                    -0.0105                  9.43072466561181E-6
0.0015                    -0.0095                  9.508545969233933E-6
0.0015                    -0.0085                  9.56510010358342E-6
0.0015                    -0.0075                  9.630428727881053E-6
0.0015                    -0.0065                  9.721052746807899E-6
0.0015                    -0.0055                  9.855427656920035E-6
0.0015                    -0.0045                  1.0110994379175258E-5
0.0015                    -0.0035                  1.0866566109396827E-5
0.0015                    -0.0025                  1.2433226700911884E-5
0.0015                    -0.0015                  1.662461768533534E-5
0.0015                    -5.0E-4                  3.0056717099798485E-5
0.0015                    5.0E-4                   7.194901556257036E-5
0.0015                    0.0015                   2.2564815741172575E-4
0.0015                    0.0025                   5.743910855710722E-4
0.0015                    0.0035                   0.0030827714725445085
0.0015                    0.0045                   0.012659487406535741
0.0015                    0.0055                   0.02384500478560084
0.0015                    0.0065                   0.02796593300670124
0.0015                    0.0075                   0.02618883517577267
0.0015                    0.0085                   0.020359604976215362
0.0015                    0.0095                   0.01199450452613775
0.0015                    0.0105                   0.004786985213119072
0.0015                    0.0115                   0.0012764109398939953
0.0015                    0.0125                   2.959597352563292E-4
0.0015                    0.0135                   6.021645190843135E-5
0.0015                    0.0145                   2.1618157256274583E-5
0.0015                    0.0155                   1.0789583741619805E-5
0.0015                    0.0165                   7.955294022931613E-6
0.0015                    0.0175                   7.188537918538197E-6
0.0015                    0.0185                   6.829430818163893E-6
0.0015                    0.0195                   6.7039251423177765E-6
0.0015                    0.0205                   6.6167956450670995E-6
0.0015                    0.0215                   6.550026977050783E-6
0.0015                    0.0225                   6.479973711917825E-6
0.0015                    0.0235                   6.41158669176644E-6
0.0015                    0.0245                   6.3469479219893E-6
0.0015                    0.0255                   6.274017414251646E-6
0.0015                    0.0265                   6.195537499892733E-6
0.0015                    0.0275                   6.099595426243023E-6
0.0015                    0.0285                   6.01444114548907E-6
0.0015                    0.0295                   5.683871759473858E-6
0.0015                    0.0305                   5.396848978320529E-6
0.0015                    0.0315                   2.767739740311133E-6
0.0025                    -0.0315                  3.1231270274406178E-6
0.0025                    -0.0305                  6.030344005749788E-6
0.0025                    -0.0295                  6.245443156247742E-6
0.0025                    -0.0285                  6.504186308656674E-6
0.0025                    -0.0275                  6.424374830110823E-6
0.0025                    -0.0265                  6.31042471729307E-6
0.0025                    -0.0255                  6.188582085564877E-6
0.0025                    -0.0245                  6.086333935195695E-6
0.0025                    -0.0235                  6.00634625928151E-6
0.0025                    -0.0225                  5.949738784977996E-6
0.0025                    -0.0215                  5.917256037438396E-6
0.0025                    -0.0205                  5.91044121346152E-6
0.0025                    -0.0195                  5.930805898217904E-6
0.0025                    -0.0185                  5.9820394348934285E-6
0.0025                    -0.0175                  6.067442929143229E-6
0.0025                    -0.0165                  6.187503992603296E-6
0.0025                    -0.0155                  6.339678089831736E-6
0.0025                    -0.0145                  6.515003742761798E-6
0.0025                    -0.0135                  6.697197904997477E-6
0.0025                    -0.0125                  6.866202968951294E-6
0.0025                    -0.0115                  6.999234677495095E-6
0.0025                    -0.0105                  7.076768160451409E-6
0.0025                    -0.0095                  7.092404462621108E-6
0.0025                    -0.0085                  7.055305194386982E-6
0.0025                    -0.0075                  6.995429042943046E-6
0.0025                    -0.0065                  6.9591455032195285E-6
0.0025                    -0.0055                  7.013243731230608E-6
0.0025                    -0.0045                  7.2860931845270276E-6
0.0025                    -0.0035                  8.020006656909512E-6
0.0025                    -0.0025                  9.930675515924092E-6
0.0025                    -0.0015                  1.490050814979254E-5
0.0025                    -5.0E-4                  2.771186643923155E-5
0.0025                    5.0E-4                   6.403891524444723E-5
0.0025                    0.0015                   2.1909193566889326E-4
0.0025                    0.0025                   7.563336201347442E-4
0.0025                    0.0035                   0.0038368299725010796
0.0025                    0.0045                   0.013279062158623933
0.0025                    0.0055                   0.024190631145995886
0.0025                    0.0065                   0.02843271502187313
0.0025                    0.0075                   0.026238526248084003
0.0025                    0.0085                   0.019466891158333662
0.0025                    0.0095                   0.010507692555428334
0.0025                    0.0105                   0.0038722538448158978
0.0025                    0.0115                   0.0010965172469553572
0.0025                    0.0125                   2.77826842753662E-4
0.0025                    0.0135                   6.136060852626694E-5
0.0025                    0.0145                   1.9762888509890504E-5
0.0025                    0.0155                   9.292571296462665E-6
0.0025                    0.0165                   6.2494652714885965E-6
0.0025                    0.0175                   5.3168844128521385E-6
0.0025                    0.0185                   5.071793089337793E-6
0.0025                    0.0195                   5.015397317399216E-6
0.0025                    0.0205                   5.0203761400189105E-6
0.0025                    0.0215                   5.039085870391219E-6
0.0025                    0.0225                   5.0678547468398986E-6
0.0025                    0.0235                   5.111305583677065E-6
0.0025                    0.0245                   5.175617063818534E-6
0.0025                    0.0255                   5.263986560481103E-6
0.0025                    0.0265                   5.376710923594793E-6
0.0025                    0.0275                   5.495415664665197E-6
0.0025                    0.0285                   5.608713952832941E-6
0.0025                    0.0295                   5.474523556680838E-6
0.0025                    0.0305                   5.554427790328629E-6
0.0025                    0.0315                   2.980189285592928E-6
0.0035                    -0.0315                  3.381315192375798E-6
0.0035                    -0.0305                  6.286036701832088E-6
0.0035                    -0.0295                  6.396072463419533E-6
0.0035                    -0.0285                  6.864413700718175E-6
0.0035                    -0.0275                  6.904127045406594E-6
0.0035                    -0.0265                  6.827807453657469E-6
0.0035                    -0.0255                  6.686438104566361E-6
0.0035                    -0.0245                  6.540397831354665E-6
0.0035                    -0.0235                  6.405736668066781E-6
0.0035                    -0.0225                  6.291285715017321E-6
0.0035                    -0.0215                  6.2008971104633805E-6
0.0035                    -0.0205                  6.13816975905154E-6
0.0035                    -0.0195                  6.107863941812761E-6
0.0035                    -0.0185                  6.115840831968033E-6
0.0035                    -0.0175                  6.1680910316920366E-6
0.0035                    -0.0165                  6.268959886211297E-6
0.0035                    -0.0155                  6.418503309630026E-6
0.0035                    -0.0145                  6.6104353233039025E-6
0.0035                    -0.0135                  6.830769736046187E-6
0.0035                    -0.0125                  7.057154925929162E-6
0.0035                    -0.0115                  7.260722494872761E-6
0.0035                    -0.0105                  7.41089065236329E-6
0.0035                    -0.0095                  7.4843393148434455E-6
0.0035                    -0.0085                  7.479107172847308E-6
0.0035                    -0.0075                  7.4274637230485395E-6
0.0035                    -0.0065                  7.404376374845119E-6
0.0035                    -0.0055                  7.529816816100448E-6
0.0035                    -0.0045                  7.98799805551923E-6
0.0035                    -0.0035                  9.141006986773586E-6
0.0035                    -0.0025                  1.1848700820135635E-5
0.0035                    -0.0015                  1.826226239125545E-5
0.0035                    -5.0E-4                  3.4171767831215644E-5
0.0035                    5.0E-4                   7.833390742797243E-5
0.0035                    0.0015                   2.788255569808015E-4
0.0035                    0.0025                   0.0010765351069337134
0.0035                    0.0035                   0.0047358629121854534
0.0035                    0.0045                   0.014233366669196815
0.0035                    0.0055                   0.02476604534152735
0.0035                    0.0065                   0.02880990342962045
0.0035                    0.0075                   0.026015466390693888
0.0035                    0.0085                   0.018342002744661655
0.0035                    0.0095                   0.009190607347255087
0.0035                    0.0105                   0.003192934803302747
0.0035                    0.0115                   9.260892807349923E-4
0.0035                    0.0125                   2.4451819831426344E-4
0.0035                    0.0135                   6.0204173635594463E-5
0.0035                    0.0145                   2.0822913442157594E-5
0.0035                    0.0155                   9.832761681663022E-6
0.0035                    0.0165                   6.600474419036508E-6
0.0035                    0.0175                   5.576595187389082E-6
0.0035                    0.0185                   5.296004813709953E-6
0.0035                    0.0195                   5.245181254526212E-6
0.0035                    0.0205                   5.2578789091066725E-6
0.0035                    0.0215                   5.29139692906497E-6
0.0035                    0.0225                   5.341727256748694E-6
0.0035                    0.0235                   5.414773998607121E-6
0.0035                    0.0245                   5.514137806665759E-6
0.0035                    0.0255                   5.6348911267293846E-6
0.0035                    0.0265                   5.764375480787115E-6
0.0035                    0.0275                   5.852800226124399E-6
0.0035                    0.0285                   5.874503547944522E-6
0.0035                    0.0295                   5.582708163026537E-6
0.0035                    0.0305                   5.838018143355018E-6
0.0035                    0.0315                   3.2728897289263204E-6
0.0045                    -0.0315                  3.5634573055617547E-6
0.0045                    -0.0305                  6.390010446641532E-6
0.0045                    -0.0295                  6.2782574060490216E-6
0.0045                    -0.0285                  6.861736232816997E-6
0.0045                    -0.0275                  7.0670540419028856E-6
0.0045                    -0.0265                  7.114181919992168E-6
0.0045                    -0.0255                  7.030521979349172E-6
0.0045                    -0.0245                  6.896000794079194E-6
0.0045                    -0.0235                  6.745218361152726E-6
0.0045                    -0.0225                  6.598598190750512E-6
0.0045                    -0.0215                  6.466722265023476E-6
0.0045                    -0.0205                  6.3577455110774575E-6
0.0045                    -0.0195                  6.279913374226648E-6
0.0045                    -0.0185                  6.242830535838287E-6
0.0045                    -0.0175                  6.256861052628791E-6
0.0045                    -0.0165                  6.33118982281143E-6
0.0045                    -0.0155                  6.471334243590732E-6
0.0045                    -0.0145                  6.676548293150924E-6
0.0045                    -0.0135                  6.937641952251213E-6
0.0045                    -0.0125                  7.2354834553791474E-6
0.0045                    -0.0115                  7.540413134945932E-6
0.0045                    -0.0105                  7.814583314797242E-6
0.0045                    -0.0095                  8.02085083902437E-6
0.0045                    -0.0085                  8.142365757156778E-6
0.0045                    -0.0075                  8.212308356122497E-6
0.0045                    -0.0065                  8.344805144790659E-6
0.0045                    -0.0055                  8.757630228351627E-6
0.0045                    -0.0045                  9.772844618596931E-6
0.0045                    -0.0035                  1.1892448104293503E-5
0.0045                    -0.0025                  1.6176009841660915E-5
0.0045                    -0.0015                  2.5278294110557117E-5
0.0045                    -5.0E-4                  4.8601000041579734E-5
0.0045                    5.0E-4                   1.2447353671206167E-4
0.0045                    0.0015                   4.07397564309554E-4
0.0045                    0.0025                   0.0014542811359822452
0.0045                    0.0035                   0.0056590162685662875
0.0045                    0.0045                   0.015324249863521223
0.0045                    0.0055                   0.025426356856133592
0.0045                    0.0065                   0.029024050161318843
0.0045                    0.0075                   0.025530404903558932
0.0045                    0.0085                   0.017120701546394355
0.0045                    0.0095                   0.008061641680137543
0.0045                    0.0105                   0.002681761341281674
0.0045                    0.0115                   7.855056681927775E-4
0.0045                    0.0125                   2.1437756238117423E-4
0.0045                    0.0135                   5.618018369885124E-5
0.0045                    0.0145                   2.0987048437569176E-5
0.0045                    0.0155                   1.0366680605974674E-5
0.0045                    0.0165                   7.019818852920705E-6
0.0045                    0.0175                   5.922944212333331E-6
0.0045                    0.0185                   5.603447245223108E-6
0.0045                    0.0195                   5.527884541432163E-6
0.0045                    0.0205                   5.526803792357036E-6
0.0045                    0.0215                   5.556121783169045E-6
0.0045                    0.0225                   5.612226039220389E-6
0.0045                    0.0235                   5.696458313558321E-6
0.0045                    0.0245                   5.8033741584728916E-6
0.0045                    0.0255                   5.913872355304745E-6
0.0045                    0.0265                   5.995547496939743E-6
0.0045                    0.0275                   5.980298661852573E-6
0.0045                    0.0285                   5.863635741234606E-6
0.0045                    0.0295                   5.480044687927606E-6
0.0045                    0.0305                   5.944171965542001E-6
0.0045                    0.0315                   3.445298931869386E-6
0.0055                    -0.0315                  3.720182723973952E-6
0.0055                    -0.0305                  6.493701808389772E-6
0.0055                    -0.0295                  6.160917085554133E-6
0.0055                    -0.0285                  6.779320074896964E-6
0.0055                    -0.0275                  7.107299762225483E-6
0.0055                    -0.0265                  7.299611518872554E-6
0.0055                    -0.0255                  7.325445636132383E-6
0.0055                    -0.0245                  7.2549518576108016E-6
0.0055                    -0.0235                  7.131074954160135E-6
0.0055                    -0.0225                  6.985189827422649E-6
0.0055                    -0.0215                  6.835692867321931E-6
0.0055                    -0.0205                  6.6959198137911545E-6
0.0055                    -0.0195                  6.5781664314802625E-6
0.0055                    -0.0185                  6.496138473321027E-6
0.0055                    -0.0175                  6.465337519837172E-6
0.0055                    -0.0165                  6.501676084646654E-6
0.0055                    -0.0155                  6.6187078460875575E-6
0.0055                    -0.0145                  6.824528437090952E-6
0.0055                    -0.0135                  7.119223845773039E-6
0.0055                    -0.0125                  7.492907163966676E-6
0.0055                    -0.0115                  7.924008673077631E-6
0.0055                    -0.0105                  8.379494969087788E-6
0.0055                    -0.0095                  8.821945979102049E-6
0.0055                    -0.0085                  9.233119536967047E-6
0.0055                    -0.0075                  9.668921603723408E-6
0.0055                    -0.0065                  1.0339731525049668E-5
0.0055                    -0.0055                  1.1678038481944072E-5
0.0055                    -0.0045                  1.4387051620501972E-5
0.0055                    -0.0035                  1.929899530334124E-5
0.0055                    -0.0025                  2.77046104058817E-5
0.0055                    -0.0015                  4.391406284591651E-5
0.0055                    -5.0E-4                  8.103266683332714E-5
0.0055                    5.0E-4                   2.097030068435143E-4
0.0055                    0.0015                   6.053623627797833E-4
0.0055                    0.0025                   0.001928227656239185
0.0055                    0.0035                   0.006694375571027278
0.0055                    0.0045                   0.016516158722421577
0.0055                    0.0055                   0.02599270253599184
0.0055                    0.0065                   0.02895508906225735
0.0055                    0.0075                   0.02481182394569634
0.0055                    0.0085                   0.015896804763501457
0.0055                    0.0095                   0.007118329856481464
0.0055                    0.0105                   0.0022951578137622797
0.0055                    0.0115                   6.764964109931382E-4
0.0055                    0.0125                   1.9094029415122815E-4
0.0055                    0.0135                   5.3405690850084436E-5
0.0055                    0.0145                   2.1369863004223258E-5
0.0055                    0.0155                   1.1153123793490138E-5
0.0055                    0.0165                   7.686967166400896E-6
0.0055                    0.0175                   6.474153004257008E-6
0.0055                    0.0185                   6.074885448698475E-6
0.0055                    0.0195                   5.943797415132345E-6
0.0055                    0.0205                   5.906548060231242E-6
0.0055                    0.0215                   5.916863721842748E-6
0.0055                    0.0225                   5.965069522172957E-6
0.0055                    0.0235                   6.04193136303799E-6
0.0055                    0.0245                   6.127490474442013E-6
0.0055                    0.0255                   6.186310422735564E-6
0.0055                    0.0265                   6.174728187052158E-6
0.0055                    0.0275                   6.032009076547189E-6
0.0055                    0.0285                   5.806025126763834E-6
0.0055                    0.0295                   5.387137412703951E-6
0.0055                    0.0305                   6.072388180723042E-6
0.0055                    0.0315                   3.616307415407458E-6
0.0065                    -0.0315                  3.854728884042509E-6
0.0065                    -0.0305                  6.586156975947997E-6
0.0065                    -0.0295                  6.0410677780979605E-6
0.0065                    -0.0285                  6.6409621582011675E-6
0.0065                    -0.0275                  7.027312579606628E-6
0.0065                    -0.0265                  7.329847076725747E-6
0.0065                    -0.0255                  7.468916134092192E-6
0.0065                    -0.0245                  7.487311648935888E-6
0.0065                    -0.0235                  7.420168794722639E-6
0.0065                    -0.0225                  7.3021227331716005E-6
0.0065                    -0.0215                  7.156887778173934E-6
0.0065                    -0.0205                  7.002096534916342E-6
0.0065                    -0.0195                  6.8532508151615056E-6
0.0065                    -0.0185                  6.727359848527504E-6
0.0065                    -0.0175                  6.644654030913464E-6
0.0065                    -0.0165                  6.628213750026769E-6
0.0065                    -0.0155                  6.701558678705343E-6
0.0065                    -0.0145                  6.885053016297937E-6
0.0065                    -0.0135                  7.192667427541179E-6
0.0065                    -0.0125                  7.630517218558482E-6
0.0065                    -0.0115                  8.196823023837447E-6
0.0065                    -0.0105                  8.88261613622298E-6
0.0065                    -0.0095                  9.680551217565496E-6
0.0065                    -0.0085                  1.0618734185526855E-5
0.0065                    -0.0075                  1.185213441240901E-5
0.0065                    -0.0065                  1.3869688709811612E-5
0.0065                    -0.0055                  1.7762424970774046E-5