% Model:              Benchmark260518.mph
% Version:            COMSOL 6.2.0.339
% Date:               May 20 2026, 08:19
% Dimension:          2
% Nodes:              4096
% Expressions:        1
% Description:        速度大小
% Length unit:        m
% x                       y                        spf.U (m/s)
5.0E-4                    -0.0315                  1.1812660177182552E-6
5.0E-4                    -0.0305                  2.3976759175919783E-6
5.0E-4                    -0.0295                  2.70568182958419E-6
5.0E-4                    -0.0285                  3.0190985920352162E-6
5.0E-4                    -0.0275                  3.2056797501809115E-6
5.0E-4                    -0.0265                  3.374311714380572E-6
5.0E-4                    -0.0255                  3.5143411581966294E-6
5.0E-4                    -0.0245                  3.63738327051605E-6
5.0E-4                    -0.0235                  3.7466004260446864E-6
5.0E-4                    -0.0225                  3.828689235661354E-6
5.0E-4                    -0.0215                  3.899366679363262E-6
5.0E-4                    -0.0205                  4.0056977416245096E-6
5.0E-4                    -0.0195                  4.154834662010796E-6
5.0E-4                    -0.0185                  4.341178526300556E-6
5.0E-4                    -0.0175                  4.595063223723863E-6
5.0E-4                    -0.0165                  5.034995371436634E-6
5.0E-4                    -0.0155                  5.783179336245073E-6
5.0E-4                    -0.0145                  6.9767827952835835E-6
5.0E-4                    -0.0135                  8.85331170825373E-6
5.0E-4                    -0.0125                  1.4326790111655011E-5
5.0E-4                    -0.0115                  3.25742994239317E-5
5.0E-4                    -0.0105                  9.056573615223754E-5
5.0E-4                    -0.0095                  2.330223551118599E-4
5.0E-4                    -0.0085                  4.384286000554451E-4
5.0E-4                    -0.0075                  6.578418331782737E-4
5.0E-4                    -0.0065                  0.0011069639587914187
5.0E-4                    -0.0055                  0.002142465831229044
5.0E-4                    -0.0045                  0.0036859294069067983
5.0E-4                    -0.0035                  0.005379608503543719
5.0E-4                    -0.0025                  0.006818409824335611
5.0E-4                    -0.0015                  0.007660871754561439
5.0E-4                    -5.0E-4                  0.007708006587488018
5.0E-4                    5.0E-4                   0.006938860247880219
5.0E-4                    0.0015                   0.00551198100551922
5.0E-4                    0.0025                   0.0037003476913809057
5.0E-4                    0.0035                   0.0018765097445445997
5.0E-4                    0.0045                   0.0016915819370856382
5.0E-4                    0.0055                   0.0028483234934837494
5.0E-4                    0.0065                   0.002923430769856583
5.0E-4                    0.0075                   0.001992391580049613
5.0E-4                    0.0085                   0.0010254126178639129
5.0E-4                    0.0095                   7.942284590843151E-4
5.0E-4                    0.0105                   9.754782607870512E-4
5.0E-4                    0.0115                   0.0010821877849372054
5.0E-4                    0.0125                   0.0021150438774106377
5.0E-4                    0.0135                   0.004406479444609657
5.0E-4                    0.0145                   0.04467545619106946
5.0E-4                    0.0155                   0.07861598609934484
5.0E-4                    0.0165                   0.06383721551085486
5.0E-4                    0.0175                   0.02491614073624245
5.0E-4                    0.0185                   7.754095705426421E-4
5.0E-4                    0.0195                   6.80452598225915E-4
5.0E-4                    0.0205                   1.5984157975719823E-4
5.0E-4                    0.0215                   5.5509269711714104E-5
5.0E-4                    0.0225                   2.820030253512826E-5
5.0E-4                    0.0235                   1.0227711296866763E-5
5.0E-4                    0.0245                   4.045827436393426E-6
5.0E-4                    0.0255                   1.9721567834215306E-6
5.0E-4                    0.0265                   1.2576762809112581E-6
5.0E-4                    0.0275                   1.0104473035155693E-6
5.0E-4                    0.0285                   9.240225624500762E-7
5.0E-4                    0.0295                   8.834285995163276E-7
5.0E-4                    0.0305                   8.605893649544821E-7
5.0E-4                    0.0315                   4.42089749993606E-7
0.0015                    -0.0315                  2.3084091563550715E-6
0.0015                    -0.0305                  4.642766916614644E-6
0.0015                    -0.0295                  5.069629638781764E-6
0.0015                    -0.0285                  5.4259554506743765E-6
0.0015                    -0.0275                  5.5517049567633015E-6
0.0015                    -0.0265                  5.661193689714065E-6
0.0015                    -0.0255                  5.749584653332058E-6
0.0015                    -0.0245                  5.83178945531037E-6
0.0015                    -0.0235                  5.9079026892846155E-6
0.0015                    -0.0225                  5.964349483185823E-6
0.0015                    -0.0215                  6.0186684817922435E-6
0.0015                    -0.0205                  6.12096993789637E-6
0.0015                    -0.0195                  6.28744476774269E-6
0.0015                    -0.0185                  6.529975093191051E-6
0.0015                    -0.0175                  6.916859430369056E-6
0.0015                    -0.0165                  7.636317892562964E-6
0.0015                    -0.0155                  8.956464167748146E-6
0.0015                    -0.0145                  1.1342125150047478E-5
0.0015                    -0.0135                  1.604923799156212E-5
0.0015                    -0.0125                  2.85369920134305E-5
0.0015                    -0.0115                  6.595116822028443E-5
0.0015                    -0.0105                  1.731131612034657E-4
0.0015                    -0.0095                  4.8002797834099844E-4
0.0015                    -0.0085                  0.0011019084118881312
0.0015                    -0.0075                  0.0024423488196988964
0.0015                    -0.0065                  0.0050845998879896735
0.0015                    -0.0055                  0.00883737332095872
0.0015                    -0.0045                  0.01287354092571504
0.0015                    -0.0035                  0.016452560356063278
0.0015                    -0.0025                  0.019082174267037098
0.0015                    -0.0015                  0.020502169931716174
0.0015                    -5.0E-4                  0.020637629352730533
0.0015                    5.0E-4                   0.019538680384991545
0.0015                    0.0015                   0.017347894083337714
0.0015                    0.0025                   0.014234220890262168
0.0015                    0.0035                   0.010239787164274145
0.0015                    0.0045                   0.005549684844357601
0.0015                    0.0055                   0.0026674707837614038
0.0015                    0.0065                   0.004492045554981836
0.0015                    0.0075                   0.004654714068980836
0.0015                    0.0085                   0.003304415206035791
0.0015                    0.0095                   0.0025364529603630385
0.0015                    0.0105                   0.0025049948458135515
0.0015                    0.0115                   0.0027175926331770876
0.0015                    0.0125                   0.0039889578465084384
0.0015                    0.0135                   0.013007413381401158
0.0015                    0.0145                   0.05437820158041773
0.0015                    0.0155                   0.07750043327212958
0.0015                    0.0165                   0.05925297090273099
0.0015                    0.0175                   0.02229137610231082
0.0015                    0.0185                   0.0012165997809530657
0.0015                    0.0195                   0.001550896106029213
0.0015                    0.0205                   4.428512939988416E-4
0.0015                    0.0215                   1.3155261110350054E-4
0.0015                    0.0225                   5.3029428431352336E-5
0.0015                    0.0235                   1.8953701681656717E-5
0.0015                    0.0245                   7.6278249510542334E-6
0.0015                    0.0255                   3.7565641873428175E-6
0.0015                    0.0265                   2.415796772956175E-6
0.0015                    0.0275                   1.9619390376860516E-6
0.0015                    0.0285                   1.8294797924911594E-6
0.0015                    0.0295                   1.7799404751391248E-6
0.0015                    0.0305                   1.7224859389454612E-6
0.0015                    0.0315                   8.797568742519413E-7
0.0025                    -0.0315                  2.363677159909729E-6
0.0025                    -0.0305                  4.691323877329589E-6
0.0025                    -0.0295                  5.0310968824737255E-6
0.0025                    -0.0285                  5.255920859536789E-6
0.0025                    -0.0275                  5.158789733364655E-6
0.0025                    -0.0265                  5.00966948462643E-6
0.0025                    -0.0255                  4.850616154532667E-6
0.0025                    -0.0245                  4.708936287374584E-6
0.0025                    -0.0235                  4.5871432261159575E-6
0.0025                    -0.0225                  4.486914483026924E-6
0.0025                    -0.0215                  4.412088333076825E-6
0.0025                    -0.0205                  4.372661018036817E-6
0.0025                    -0.0195                  4.392782850228482E-6
0.0025                    -0.0185                  4.522336030185459E-6
0.0025                    -0.0175                  4.866801259365482E-6
0.0025                    -0.0165                  5.6395080160689835E-6
0.0025                    -0.0155                  7.298968099951624E-6
0.0025                    -0.0145                  1.0954932399774482E-5
0.0025                    -0.0135                  1.9549832449477496E-5
0.0025                    -0.0125                  4.1756810103803014E-5
0.0025                    -0.0115                  1.020239959555033E-4
0.0025                    -0.0105                  2.993399350477536E-4
0.0025                    -0.0095                  9.049105272502634E-4
0.0025                    -0.0085                  0.002618953198315218
0.0025                    -0.0075                  0.006374356061840599
0.0025                    -0.0065                  0.011833875620587768
0.0025                    -0.0055                  0.01729439147855913
0.0025                    -0.0045                  0.02152890830341576
0.0025                    -0.0035                  0.024350641219510485
0.0025                    -0.0025                  0.026036791997018506
0.0025                    -0.0015                  0.026928627841848393
0.0025                    -5.0E-4                  0.02730046016575355
0.0025                    5.0E-4                   0.027275165415667928
0.0025                    0.0015                   0.026783056184034496
0.0025                    0.0025                   0.025525932459795588
0.0025                    0.0035                   0.02295833248874834
0.0025                    0.0045                   0.01840223664344119
0.0025                    0.0055                   0.011518157359731128
0.0025                    0.0065                   0.003980359196465134
0.0025                    0.0075                   0.003416232005827229
0.0025                    0.0085                   0.0058411548232711365
0.0025                    0.0095                   0.006073140091535577
0.0025                    0.0105                   0.005346941810709572
0.0025                    0.0115                   0.004588615783638882
0.0025                    0.0125                   0.0026953000495656305
0.0025                    0.0135                   0.023801905854247827
0.0025                    0.0145                   0.061625147550272596
0.0025                    0.0155                   0.07509058620158386
0.0025                    0.0165                   0.05309106208857024
0.0025                    0.0175                   0.01812169985431024
0.0025                    0.0185                   7.287867662171857E-4
0.0025                    0.0195                   0.0019605481737920987
0.0025                    0.0205                   6.207275070080591E-4
0.0025                    0.0215                   1.6623382689017269E-4
0.0025                    0.0225                   5.335665633330085E-5
0.0025                    0.0235                   1.8095222485752968E-5
0.0025                    0.0245                   7.652895948457964E-6
0.0025                    0.0255                   3.978554557097036E-6
0.0025                    0.0265                   2.6697208942998105E-6
0.0025                    0.0275                   2.227757775212546E-6
0.0025                    0.0285                   2.1067063304463952E-6
0.0025                    0.0295                   2.018206727232114E-6
0.0025                    0.0305                   1.862988031033924E-6
0.0025                    0.0315                   9.365561853308724E-7
0.0035                    -0.0315                  2.4555920946343986E-6
0.0035                    -0.0305                  4.7883488765382185E-6
0.0035                    -0.0295                  5.189517802383801E-6
0.0035                    -0.0285                  5.61447911041931E-6
0.0035                    -0.0275                  5.610295871543259E-6
0.0035                    -0.0265                  5.462480019962865E-6
0.0035                    -0.0255                  5.2496192217808626E-6
0.0035                    -0.0245                  5.033545451062409E-6
0.0035                    -0.0235                  4.834130314056934E-6
0.0035                    -0.0225                  4.6603671425746245E-6
0.0035                    -0.0215                  4.519059599693022E-6
0.0035                    -0.0205                  4.425666096195069E-6
0.0035                    -0.0195                  4.417277112317405E-6
0.0035                    -0.0185                  4.57732247456423E-6
0.0035                    -0.0175                  5.084302743560845E-6
0.0035                    -0.0165                  6.326640448186585E-6
0.0035                    -0.0155                  9.223795735494166E-6
0.0035                    -0.0145                  1.6050654277342205E-5
0.0035                    -0.0135                  3.342232067318004E-5
0.0035                    -0.0125                  8.069437637688948E-5
0.0035                    -0.0115                  2.3850313092703044E-4
0.0035                    -0.0105                  7.378786241201721E-4
0.0035                    -0.0095                  0.0022563602112712277
0.0035                    -0.0085                  0.006225151298107968
0.0035                    -0.0075                  0.012584868719313268
0.0035                    -0.0065                  0.018881604304712588
0.0035                    -0.0055                  0.023213358279375533
0.0035                    -0.0045                  0.025525535737044115
0.0035                    -0.0035                  0.026569028016848493
0.0035                    -0.0025                  0.026982809444312607
0.0035                    -0.0015                  0.02721496492933138
0.0035                    -5.0E-4                  0.027611624064847635
0.0035                    5.0E-4                   0.02839158335770283
0.0035                    0.0015                   0.0295299299954129
0.0035                    0.0025                   0.030620747759725026
0.0035                    0.0035                   0.030921646991348598
0.0035                    0.0045                   0.02945706033489911
0.0035                    0.0055                   0.025182890769664686
0.0035                    0.0065                   0.017720174864955866
0.0035                    0.0075                   0.008592071708312488
0.0035                    0.0085                   0.002933803542994994
0.0035                    0.0095                   0.005878297183227934
0.0035                    0.0105                   0.007127619792683793
0.0035                    0.0115                   0.005580682133963999
0.0035                    0.0125                   0.008062282183951169
0.0035                    0.0135                   0.03722267700768282
0.0035                    0.0145                   0.06684728791345927
0.0035                    0.0155                   0.07100053088791893
0.0035                    0.0165                   0.04525719149268755
0.0035                    0.0175                   0.012995765066113907
0.0035                    0.0185                   0.0010156816742166864
0.0035                    0.0195                   0.002053872676881337
0.0035                    0.0205                   6.380762118812699E-4
0.0035                    0.0215                   1.68422163812416E-4
0.0035                    0.0225                   5.1586104842017904E-5
0.0035                    0.0235                   1.7786850509830192E-5
0.0035                    0.0245                   8.00649466621985E-6
0.0035                    0.0255                   4.5597976278846335E-6
0.0035                    0.0265                   3.287831267285919E-6
0.0035                    0.0275                   2.831074320443882E-6
0.0035                    0.0285                   2.6375797325139916E-6
0.0035                    0.0295                   2.4004360262018403E-6
0.0035                    0.0305                   2.084647070957772E-6
0.0035                    0.0315                   1.0294363641370726E-6
0.0045                    -0.0315                  2.504571478636192E-6
0.0045                    -0.0305                  4.788864821554048E-6
0.0045                    -0.0295                  5.152296167629725E-6
0.0045                    -0.0285                  5.710567498915346E-6
0.0045                    -0.0275                  5.849240195177149E-6
0.0045                    -0.0265                  5.781344958177444E-6
0.0045                    -0.0255                  5.5812060144613865E-6
0.0045                    -0.0245                  5.337821241493444E-6
0.0045                    -0.0235                  5.095607205954145E-6
0.0045                    -0.0225                  4.88019611396621E-6
0.0045                    -0.0215                  4.710003815316599E-6
0.0045                    -0.0205                  4.6132789203258215E-6
0.0045                    -0.0195                  4.651081851898391E-6
0.0045                    -0.0185                  4.96151813346097E-6
0.0045                    -0.0175                  5.853514136425829E-6
0.0045                    -0.0165                  8.045432346881002E-6
0.0045                    -0.0155                  1.3286149273872608E-5
0.0045                    -0.0145                  2.656932959839173E-5
0.0045                    -0.0135                  6.305133338392546E-5
0.0045                    -0.0125                  1.8278849863529E-4
0.0045                    -0.0115                  5.767471954412083E-4
0.0045                    -0.0105                  0.0016939443872188566
0.0045                    -0.0095                  0.0050445949335714
0.0045                    -0.0085                  0.011690801787622085
0.0045                    -0.0075                  0.01911143442101269
0.0045                    -0.0065                  0.023905510708653953
0.0045                    -0.0055                  0.025654143178149125
0.0045                    -0.0045                  0.025514070816387003
0.0045                    -0.0035                  0.024341433089902755
0.0045                    -0.0025                  0.022805751212940227
0.0045                    -0.0015                  0.021629050661471087
0.0045                    -5.0E-4                  0.0213992767709967
0.0045                    5.0E-4                   0.022448089642683904
0.0045                    0.0015                   0.02481164498892689
0.0045                    0.0025                   0.02811140984359952
0.0045                    0.0035                   0.03150217957268372
0.0045                    0.0045                   0.0338995072005418
0.0045                    0.0055                   0.03412977237084749
0.0045                    0.0065                   0.031190940247978752
0.0045                    0.0075                   0.024769581163976703
0.0045                    0.0085                   0.015774279496075523
0.0045                    0.0095                   0.006836902575721319
0.0045                    0.0105                   0.0013816489104579541
0.0045                    0.0115                   0.005176516514450432
0.0045                    0.0125                   0.02159452091673038
0.0045                    0.0135                   0.049505696731826386
0.0045                    0.0145                   0.06845894093399243
0.0045                    0.0155                   0.06468408609573735
0.0045                    0.0165                   0.036096458575363366
0.0045                    0.0175                   0.007595629534359475
0.0045                    0.0185                   0.001545349356395412
0.0045                    0.0195                   0.001791034935938412
0.0045                    0.0205                   5.599725786695211E-4
0.0045                    0.0215                   1.5147704074838233E-4
0.0045                    0.0225                   4.539223894937318E-5
0.0045                    0.0235                   1.7129527490423087E-5
0.0045                    0.0245                   8.191664108956545E-6
0.0045                    0.0255                   5.0720797603873485E-6
0.0045                    0.0265                   3.900912979039105E-6
0.0045                    0.0275                   3.44182721260725E-6
0.0045                    0.0285                   3.161926490897869E-6
0.0045                    0.0295                   2.7833877550084475E-6
0.0045                    0.0305                   2.3237746780483795E-6
0.0045                    0.0315                   1.129532571459604E-6
0.0055                    -0.0315                  2.538183855027377E-6
0.0055                    -0.0305                  4.80562197276987E-6
0.0055                    -0.0295                  5.144211191989859E-6
0.0055                    -0.0285                  5.784181459556739E-6
0.0055                    -0.0275                  6.050133601053679E-6
0.0055                    -0.0265                  6.098842006996873E-6
0.0055                    -0.0255                  5.9686296710004604E-6
0.0055                    -0.0245                  5.755300404661811E-6
0.0055                    -0.0235                  5.5285538905520555E-6
0.0055                    -0.0225                  5.340507858492339E-6
0.0055                    -0.0215                  5.231968460233914E-6
0.0055                    -0.0205                  5.254961998318253E-6
0.0055                    -0.0195                  5.51197381893767E-6
0.0055                    -0.0185                  6.235313136551086E-6
0.0055                    -0.0175                  7.96251322234899E-6
0.0055                    -0.0165                  1.1961175930294117E-5
0.0055                    -0.0155                  2.1826471282085203E-5
0.0055                    -0.0145                  4.8544386455551264E-5
0.0055                    -0.0135                  1.350977531243469E-4
0.0055                    -0.0125                  4.216177083236012E-4
0.0055                    -0.0115                  0.001216105846781591
0.0055                    -0.0105                  0.0035979885143209893
0.0055                    -0.0095                  0.009453461133022258
0.0055                    -0.0085                  0.01777838915442001
0.0055                    -0.0075                  0.024132694945220037
0.0055                    -0.0065                  0.02623134008587539
0.0055                    -0.0055                  0.025078708311943095
0.0055                    -0.0045                  0.0219815274873932
0.0055                    -0.0035                  0.018017556760260043
0.0055                    -0.0025                  0.014389934517113182
0.0055                    -0.0015                  0.01197180049479007
0.0055                    -5.0E-4                  0.0110992505358287
0.0055                    5.0E-4                   0.01184872745067182
0.0055                    0.0015                   0.014316660814618902
0.0055                    0.0025                   0.018525854192718273
0.0055                    0.0035                   0.02407718573190476
0.0055                    0.0045                   0.029996036593870817
0.0055                    0.0055                   0.034883033355398385
0.0055                    0.0065                   0.0373862200450992
0.0055                    0.0075                   0.03653383873194375
0.0055                    0.0085                   0.03202315385730568
0.0055                    0.0095                   0.02506601831329733
0.0055                    0.0105                   0.019236040408959144
0.0055                    0.0115                   0.02143741786126817
0.0055                    0.0125                   0.03659033133446842
0.0055                    0.0135                   0.056115642279326555
0.0055                    0.0145                   0.06561039096456302
0.0055                    0.0155                   0.05603109654403951
0.0055                    0.0165                   0.026832583089931677
0.0055                    0.0175                   0.003305730174026121
0.0055                    0.0185                   0.001920188332503772
0.0055                    0.0195                   0.001432148561823359
0.0055                    0.0205                   5.07069491134805E-4
0.0055                    0.0215                   1.5106061424387682E-4
0.0055                    0.0225                   4.432458023584282E-5
0.0055                    0.0235                   1.7566086060516275E-5
0.0055                    0.0245                   8.882318089096313E-6
0.0055                    0.0255                   5.828266459311046E-6
0.0055                    0.0265                   4.6547124077838395E-6
0.0055                    0.0275                   4.146238542078878E-6
0.0055                    0.0285                   3.767356483894951E-6
0.0055                    0.0295                   3.2515647341935226E-6
0.0055                    0.0305                   2.634429828522165E-6
0.0055                    0.0315                   1.25449835227763E-6
0.0065                    -0.0315                  2.574043391940168E-6
0.0065                    -0.0305                  4.838317184579025E-6
0.0065                    -0.0295                  5.150848351117913E-6
0.0065                    -0.0285                  5.8446968557600345E-6
0.0065                    -0.0275                  6.209982738502879E-6
0.0065                    -0.0265                  6.376922180084505E-6
0.0065                    -0.0255                  6.352443401467125E-6
0.0065                    -0.0245                  6.230655837859819E-6
0.0065                    -0.0235                  6.110784292308013E-6
0.0065                    -0.0225                  6.0883264545237885E-6
0.0065                    -0.0215                  6.2512728402738546E-6
0.0065                    -0.0205                  6.6989123138464184E-6
0.0065                    -0.0195                  7.598058199639566E-6
0.0065                    -0.0185                  9.321908478837664E-6
0.0065                    -0.0175                  1.2781484214697777E-5
0.0065                    -0.0165                  2.053584528883088E-5
0.0065                    -0.0155                  3.9961345743212176E-5
0.0065                    -0.0145                  1.0088824128292501E-4
0.0065                    -0.0135                  2.97554362091614E-4
0.0065                    -0.0125                  8.49829308949628E-4
0.0065                    -0.0115                  0.0024184314795838813
0.0065                    -0.0105                  0.006861185719530365
0.0065                    -0.0095                  0.014898817248266099
0.0065                    -0.0085                  0.022990688566645198
0.0065                    -0.0075                  0.026851026829424328
0.0065                    -0.0065                  0.02590474713388143
0.0065                    -0.0055                  0.02163710032442776
0.0065                    -0.0045                  0.015734552374277046