% Model:              Benchmark260518.mph
% Version:            COMSOL 6.2.0.339
% Date:               May 19 2026, 06:30
% Dimension:          2
% Nodes:              4096
% Expressions:        1
% Description:        速度大小
% Length unit:        m
% x                       y                        spf.U (m/s)
5.0E-4                    -0.0315                  1.656724030815903E-6
5.0E-4                    -0.0305                  3.363644699744263E-6
5.0E-4                    -0.0295                  3.7989583790579784E-6
5.0E-4                    -0.0285                  4.225339990351208E-6
5.0E-4                    -0.0275                  4.465528136180486E-6
5.0E-4                    -0.0265                  4.69165922604958E-6
5.0E-4                    -0.0255                  4.900193489570785E-6
5.0E-4                    -0.0245                  5.069961234989769E-6
5.0E-4                    -0.0235                  5.264226000153452E-6
5.0E-4                    -0.0225                  5.5550822265827715E-6
5.0E-4                    -0.0215                  5.997735927140429E-6
5.0E-4                    -0.0205                  6.717877471074943E-6
5.0E-4                    -0.0195                  8.205489894810748E-6
5.0E-4                    -0.0185                  1.3052024237290412E-5
5.0E-4                    -0.0175                  2.808839389945092E-5
5.0E-4                    -0.0165                  7.021252760830545E-5
5.0E-4                    -0.0155                  1.692845187675392E-4
5.0E-4                    -0.0145                  3.003573669371221E-4
5.0E-4                    -0.0135                  3.8800591055019446E-4
5.0E-4                    -0.0125                  5.510670342822149E-4
5.0E-4                    -0.0115                  0.0013534863958392757
5.0E-4                    -0.0105                  0.0030618011778198164
5.0E-4                    -0.0095                  0.005503030745824877
5.0E-4                    -0.0085                  0.008244414948123781
5.0E-4                    -0.0075                  0.010772414601914651
5.0E-4                    -0.0065                  0.012738056528767945
5.0E-4                    -0.0055                  0.013963827805654725
5.0E-4                    -0.0045                  0.01431394504812464
5.0E-4                    -0.0035                  0.013661170744842575
5.0E-4                    -0.0025                  0.011944368603522252
5.0E-4                    -0.0015                  0.009306397255836778
5.0E-4                    -5.0E-4                  0.006391824647966041
5.0E-4                    5.0E-4                   0.003823533838114923
5.0E-4                    0.0015                   0.0034090857464894263
5.0E-4                    0.0025                   0.005531327173564448
5.0E-4                    0.0035                   0.005991542486116473
5.0E-4                    0.0045                   0.004803492786719076
5.0E-4                    0.0055                   0.0030869485270378825
5.0E-4                    0.0065                   0.06672117496291542
5.0E-4                    0.0075                   0.15466866563584877
5.0E-4                    0.0085                   0.1705003268744541
5.0E-4                    0.0095                   0.08612503047950665
5.0E-4                    0.0105                   0.00361358693653785
5.0E-4                    0.0115                   0.0019610886280560427
5.0E-4                    0.0125                   4.110422391914174E-4
5.0E-4                    0.0135                   3.004887817093624E-4
5.0E-4                    0.0145                   1.4676737034562807E-4
5.0E-4                    0.0155                   5.102302101591527E-5
5.0E-4                    0.0165                   2.1114220703569588E-5
5.0E-4                    0.0175                   1.0881608619927193E-5
5.0E-4                    0.0185                   7.046378062581943E-6
5.0E-4                    0.0195                   5.5018518001670665E-6
5.0E-4                    0.0205                   4.7342845958164956E-6
5.0E-4                    0.0215                   4.213764151033585E-6
5.0E-4                    0.0225                   3.7749241298033483E-6
5.0E-4                    0.0235                   3.3787271293671934E-6
5.0E-4                    0.0245                   3.0231504828947902E-6
5.0E-4                    0.0255                   2.713619489428476E-6
5.0E-4                    0.0265                   2.4549801677897167E-6
5.0E-4                    0.0275                   2.2447957472595034E-6
5.0E-4                    0.0285                   2.084055690542005E-6
5.0E-4                    0.0295                   1.9282780243749384E-6
5.0E-4                    0.0305                   1.8318667803616737E-6
5.0E-4                    0.0315                   9.245442983851012E-7
0.0015                    -0.0315                  3.230101818011922E-6
0.0015                    -0.0305                  6.495984274551187E-6
0.0015                    -0.0295                  7.094428212147326E-6
0.0015                    -0.0285                  7.587958599211726E-6
0.0015                    -0.0275                  7.757745572820572E-6
0.0015                    -0.0265                  7.928162996440246E-6
0.0015                    -0.0255                  8.100698671285601E-6
0.0015                    -0.0245                  8.266885800172909E-6
0.0015                    -0.0235                  8.498945026524287E-6
0.0015                    -0.0225                  8.903363704869748E-6
0.0015                    -0.0215                  9.627984321085667E-6
0.0015                    -0.0205                  1.1055896671592401E-5
0.0015                    -0.0195                  1.4446129600423882E-5
0.0015                    -0.0185                  2.4439905753165816E-5
0.0015                    -0.0175                  5.4331422630551234E-5
0.0015                    -0.0165                  1.3952472639150104E-4
0.0015                    -0.0155                  3.431111857640659E-4
0.0015                    -0.0145                  6.748530146610585E-4
0.0015                    -0.0135                  0.0013467697301744962
0.0015                    -0.0125                  0.0032619001707821864
0.0015                    -0.0115                  0.006979724514563613
0.0015                    -0.0105                  0.011835204427722321
0.0015                    -0.0095                  0.016934610239749386
0.0015                    -0.0085                  0.021554367508207738
0.0015                    -0.0075                  0.025270701669609933
0.0015                    -0.0065                  0.027900602764095193
0.0015                    -0.0055                  0.02937317796458576
0.0015                    -0.0045                  0.029668546018425175
0.0015                    -0.0035                  0.028786899631914734
0.0015                    -0.0025                  0.026757976507617832
0.0015                    -0.0015                  0.023685925250202827
0.0015                    -5.0E-4                  0.01983297194453175
0.0015                    5.0E-4                   0.014998544550267367
0.0015                    0.0015                   0.008868473244744251
0.0015                    0.0025                   0.006893262529196905
0.0015                    0.0035                   0.010208866802686423
0.0015                    0.0045                   0.01008363880275865
0.0015                    0.0055                   0.0077999282061535615
0.0015                    0.0065                   0.06692862285847258
0.0015                    0.0075                   0.150443306889763
0.0015                    0.0085                   0.16892414855093352
0.0015                    0.0095                   0.09572541244009157
0.0015                    0.0105                   0.010170921443681777
0.0015                    0.0115                   0.005196340145332398
0.0015                    0.0125                   0.00108290901201176
0.0015                    0.0135                   6.024073135018447E-4
0.0015                    0.0145                   2.8731125179238474E-4
0.0015                    0.0155                   1.0641016810564103E-4
0.0015                    0.0165                   4.6159871166923244E-5
0.0015                    0.0175                   2.4396928452201136E-5
0.0015                    0.0185                   1.5983167235784224E-5
0.0015                    0.0195                   1.2502585857367978E-5
0.0015                    0.0205                   1.0753442033975189E-5
0.0015                    0.0215                   9.559715877185586E-6
0.0015                    0.0225                   8.538915539288329E-6
0.0015                    0.0235                   7.590366737485413E-6
0.0015                    0.0245                   6.706827496086174E-6
0.0015                    0.0255                   5.907273194640344E-6
0.0015                    0.0265                   5.218271717632077E-6
0.0015                    0.0275                   4.653003761852304E-6
0.0015                    0.0285                   4.239407200729853E-6
0.0015                    0.0295                   3.848323419031798E-6
0.0015                    0.0305                   3.5957982217627207E-6
0.0015                    0.0315                   1.803058691730624E-6
0.0025                    -0.0315                  3.298871246606179E-6
0.0025                    -0.0305                  6.540692492431932E-6
0.0025                    -0.0295                  7.0041873148176885E-6
0.0025                    -0.0285                  7.333899202431867E-6
0.0025                    -0.0275                  7.2378628288678725E-6
0.0025                    -0.0265                  7.103972647356764E-6
0.0025                    -0.0255                  6.990199156778276E-6
0.0025                    -0.0245                  6.946015462362715E-6
0.0025                    -0.0235                  7.0082406282901965E-6
0.0025                    -0.0225                  7.275665727947064E-6
0.0025                    -0.0215                  8.006813515486393E-6
0.0025                    -0.0205                  9.909874632983514E-6
0.0025                    -0.0195                  1.4916192453038287E-5
0.0025                    -0.0185                  2.7987653392504342E-5
0.0025                    -0.0175                  6.585287473229519E-5
0.0025                    -0.0165                  1.8796575207911896E-4
0.0025                    -0.0155                  5.278435797014882E-4
0.0025                    -0.0145                  0.0013761566239668523
0.0025                    -0.0135                  0.003878748963992608
0.0025                    -0.0125                  0.00893966700137052
0.0025                    -0.0115                  0.015262258590742485
0.0025                    -0.0105                  0.02083668314596204
0.0025                    -0.0095                  0.02481058058731793
0.0025                    -0.0085                  0.027307073793428897
0.0025                    -0.0075                  0.02869799034170704
0.0025                    -0.0065                  0.029278384193786852
0.0025                    -0.0055                  0.029330828007139237
0.0025                    -0.0045                  0.029167329910656403
0.0025                    -0.0035                  0.0290675607253258
0.0025                    -0.0025                  0.029269799080033552
0.0025                    -0.0015                  0.029764530085735284
0.0025                    -5.0E-4                  0.02993178266283881
0.0025                    5.0E-4                   0.028469277529241756
0.0025                    0.0015                   0.02361709385905341
0.0025                    0.0025                   0.013888728518307289
0.0025                    0.0035                   0.0032563225307285387
0.0025                    0.0045                   0.00788961971087371
0.0025                    0.0055                   0.010365547259689958
0.0025                    0.0065                   0.06634670315204097
0.0025                    0.0075                   0.1452330676752556
0.0025                    0.0085                   0.16609753988436793
0.0025                    0.0095                   0.10467269623816368
0.0025                    0.0105                   0.017524729286271103
0.0025                    0.0115                   0.00763556592098308
0.0025                    0.0125                   0.002183773082920439
0.0025                    0.0135                   8.554331138357003E-4
0.0025                    0.0145                   3.932738332590872E-4
0.0025                    0.0155                   1.4982663711740797E-4
0.0025                    0.0165                   6.672480339526895E-5
0.0025                    0.0175                   3.55541219582482E-5
0.0025                    0.0185                   2.2955845686733742E-5
0.0025                    0.0195                   1.7510679767331996E-5
0.0025                    0.0205                   1.473502211113453E-5
0.0025                    0.0215                   1.2933423188120424E-5
0.0025                    0.0225                   1.148514584908171E-5
0.0025                    0.0235                   1.0172399563818901E-5
0.0025                    0.0245                   8.931778334071735E-6
0.0025                    0.0255                   7.762234324398983E-6
0.0025                    0.0265                   6.692769384895716E-6
0.0025                    0.0275                   5.748241089418933E-6
0.0025                    0.0285                   4.979050525812863E-6
0.0025                    0.0295                   4.209233550437816E-6
0.0025                    0.0305                   3.727829308682878E-6
0.0025                    0.0315                   1.8519461742902521E-6
0.0035                    -0.0315                  3.4296687662968414E-6
0.0035                    -0.0305                  6.669765461868434E-6
0.0035                    -0.0295                  7.1949350613547505E-6
0.0035                    -0.0285                  7.78867094781587E-6
0.0035                    -0.0275                  7.82144819558589E-6
0.0035                    -0.0265                  7.710808826404262E-6
0.0035                    -0.0255                  7.578134919215072E-6
0.0035                    -0.0245                  7.529281886939399E-6
0.0035                    -0.0235                  7.64324992235663E-6
0.0035                    -0.0225                  8.087930223090834E-6
0.0035                    -0.0215                  9.295519167831733E-6
0.0035                    -0.0205                  1.2401402305558964E-5
0.0035                    -0.0195                  2.0423103498744772E-5
0.0035                    -0.0185                  4.209211927548518E-5
0.0035                    -0.0175                  1.0339181246883456E-4
0.0035                    -0.0165                  3.365614207501252E-4
0.0035                    -0.0155                  0.00105405508542161
0.0035                    -0.0145                  0.003304732734655214
0.0035                    -0.0135                  0.008509550860970506
0.0035                    -0.0125                  0.01557596365430118
0.0035                    -0.0115                  0.021489130570612722
0.0035                    -0.0105                  0.024869263669726808
0.0035                    -0.0095                  0.026097878011468015
0.0035                    -0.0085                  0.02586011562949771
0.0035                    -0.0075                  0.024711732889326658
0.0035                    -0.0065                  0.02327142699555067
0.0035                    -0.0055                  0.022092067667174965
0.0035                    -0.0045                  0.021564196960726863
0.0035                    -0.0035                  0.02204004698372099
0.0035                    -0.0025                  0.023883771496415646
0.0035                    -0.0015                  0.027230364482267212
0.0035                    -5.0E-4                  0.0314626537562807
0.0035                    5.0E-4                   0.035036323104998664
0.0035                    0.0015                   0.03573220522424435
0.0035                    0.0025                   0.03101547373806606
0.0035                    0.0035                   0.01916234707151789
0.0035                    0.0045                   0.00549962746058305
0.0035                    0.0055                   0.011327176840132002
0.0035                    0.0065                   0.06634976283170059
0.0035                    0.0075                   0.13765683801028425
0.0035                    0.0085                   0.1605814301471599
0.0035                    0.0095                   0.1138606181970096
0.0035                    0.0105                   0.02867076230709067
0.0035                    0.0115                   0.008964526330046844
0.0035                    0.0125                   0.00466682368499003
0.0035                    0.0135                   0.0015192101246381032
0.0035                    0.0145                   6.703583184601834E-4
0.0035                    0.0155                   2.3664501114262194E-4
0.0035                    0.0165                   1.0610373435299254E-4
0.0035                    0.0175                   5.5331192032000676E-5
0.0035                    0.0185                   3.447071428709917E-5
0.0035                    0.0195                   2.4741428074950723E-5
0.0035                    0.0205                   1.967169027481597E-5
0.0035                    0.0215                   1.6586482974976927E-5
0.0035                    0.0225                   1.4405048160056558E-5
0.0035                    0.0235                   1.263295977967258E-5
0.0035                    0.0245                   1.1048623954816037E-5
0.0035                    0.0255                   9.562586849820447E-6
0.0035                    0.0265                   8.156830629765581E-6
0.0035                    0.0275                   6.833103191507317E-6
0.0035                    0.0285                   5.6439233828871634E-6
0.0035                    0.0295                   4.448881763869871E-6
0.0035                    0.0305                   3.816628343401901E-6
0.0035                    0.0315                   1.9181852251872635E-6
0.0045                    -0.0315                  3.5288869587642593E-6
0.0045                    -0.0305                  6.700889237966846E-6
0.0045                    -0.0295                  7.128910513638592E-6
0.0045                    -0.0285                  7.888273139266092E-6
0.0045                    -0.0275                  8.109095436699123E-6
0.0045                    -0.0265                  8.124121422853963E-6
0.0045                    -0.0255                  8.070479041761326E-6
0.0045                    -0.0245                  8.120247384345458E-6
0.0045                    -0.0235                  8.423437723309981E-6
0.0045                    -0.0225                  9.25451724563588E-6
0.0045                    -0.0215                  1.1322053799211001E-5
0.0045                    -0.0205                  1.6486006946059804E-5
0.0045                    -0.0195                  2.964703015205151E-5
0.0045                    -0.0185                  6.823978292559677E-5
0.0045                    -0.0175                  2.0406628851759996E-4
0.0045                    -0.0165                  6.722966455274254E-4
0.0045                    -0.0155                  0.002180367382018683
0.0045                    -0.0145                  0.0065881480946880875
0.0045                    -0.0135                  0.014025571710259196
0.0045                    -0.0125                  0.020867419920019517
0.0045                    -0.0115                  0.024352903612722576
0.0045                    -0.0105                  0.02470295227678217
0.0045                    -0.0095                  0.02280778802010701
0.0045                    -0.0085                  0.019507866868487773
0.0045                    -0.0075                  0.0159077930198547
0.0045                    -0.0065                  0.012940280848442823
0.0045                    -0.0055                  0.010998432727787203
0.0045                    -0.0045                  0.010164771205358067
0.0045                    -0.0035                  0.010591064831185427
0.0045                    -0.0025                  0.012686069806203426
0.0045                    -0.0015                  0.016996241695576845
0.0045                    -5.0E-4                  0.023601915045954724
0.0045                    5.0E-4                   0.03150182045934503
0.0045                    0.0015                   0.03840340720158696
0.0045                    0.0025                   0.041380763616484066
0.0045                    0.0035                   0.03772813035638026
0.0045                    0.0045                   0.027298151878835896
0.0045                    0.0055                   0.022843572789181085
0.0045                    0.0065                   0.06441364675208434
0.0045                    0.0075                   0.12376227206065679
0.0045                    0.0085                   0.150155268910247
0.0045                    0.0095                   0.1217521985201848
0.0045                    0.0105                   0.0471533476175674
0.0045                    0.0115                   0.004553115109282732
0.0045                    0.0125                   0.008821933951193786
0.0045                    0.0135                   0.003203333360115686
0.0045                    0.0145                   0.0011282544857336005
0.0045                    0.0155                   4.1261219494103784E-4
0.0045                    0.0165                   1.7947723461537432E-4
0.0045                    0.0175                   9.451523502732284E-5
0.0045                    0.0185                   5.617956217059224E-5
0.0045                    0.0195                   3.7424700021333325E-5
0.0045                    0.0205                   2.7288015181873445E-5
0.0045                    0.0215                   2.1438842312261827E-5
0.0045                    0.0225                   1.773922224724148E-5
0.0045                    0.0235                   1.511562342845556E-5
0.0045                    0.0245                   1.3026919463455191E-5
0.0045                    0.0255                   1.118505515493498E-5
0.0045                    0.0265                   9.457150171137733E-6
0.0045                    0.0275                   7.784510416709316E-6
0.0045                    0.0285                   6.219875629839576E-6
0.0045                    0.0295                   4.693624504987452E-6
0.0045                    0.0305                   3.9399897587365865E-6
0.0045                    0.0315                   1.9885091140996627E-6
0.0055                    -0.0315                  3.6221226366766247E-6
0.0055                    -0.0305                  6.775313730445849E-6
0.0055                    -0.0295                  7.1268056650545724E-6
0.0055                    -0.0285                  8.000966863789489E-6
0.0055                    -0.0275                  8.40519921497982E-6
0.0055                    -0.0265                  8.616004085291038E-6
0.0055                    -0.0255                  8.76218840470047E-6
0.0055                    -0.0245                  9.08219441062547E-6
0.0055                    -0.0235                  9.831718859865397E-6
0.0055                    -0.0225                  1.1454105963032315E-5
0.0055                    -0.0215                  1.5082074682035894E-5
0.0055                    -0.0205                  2.3845476615547118E-5
0.0055                    -0.0195                  4.7262072482426625E-5
0.0055                    -0.0185                  1.1404442669648345E-4
0.0055                    -0.0175                  3.873798652555833E-4
0.0055                    -0.0165                  0.0012678058218156753
0.0055                    -0.0155                  0.0041656482502302914
0.0055                    -0.0145                  0.010846907309884041
0.0055                    -0.0135                  0.019080538312260312
0.0055                    -0.0125                  0.024062639512762263
0.0055                    -0.0115                  0.024534722900390545
0.0055                    -0.0105                  0.021628109597899108
0.0055                    -0.0095                  0.016582381032339277
0.0055                    -0.0085                  0.011226169702761099
0.0055                    -0.0075                  0.007110491574489051
0.0055                    -0.0065                  0.004622917513713336
0.0055                    -0.0055                  0.003350377476805322
0.0055                    -0.0045                  0.002870328304753935
0.0055                    -0.0035                  0.0030332656858908414
0.0055                    -0.0025                  0.004039393235649862
0.0055                    -0.0015                  0.006457993835211801
0.0055                    -5.0E-4                  0.011205046229747644
0.0055                    5.0E-4                   0.018943796319170748
0.0055                    0.0015                   0.02898407758867325
0.0055                    0.0025                   0.03871135027225505
0.0055                    0.0035                   0.044675472857018325
0.0055                    0.0045                   0.04405079627364497
0.0055                    0.0055                   0.039240951077431585
0.0055                    0.0065                   0.055174360791302564
0.0055                    0.0075                   0.10006600235432687
0.0055                    0.0085                   0.13326437006962857
0.0055                    0.0095                   0.1260972203966379
0.0055                    0.0105                   0.07315859700728508
0.0055                    0.0115                   0.012333388667628937
0.0055                    0.0125                   0.0115104210943602
0.0055                    0.0135                   0.006972241604995782
0.0055                    0.0145                   0.0023213243354942223
0.0055                    0.0155                   8.200784413979008E-4
0.0055                    0.0165                   3.7760143562464837E-4
0.0055                    0.0175                   1.890780540273104E-4
0.0055                    0.0185                   1.0745780260696591E-4
0.0055                    0.0195                   6.484486384661081E-5
0.0055                    0.0205                   4.276908656495821E-5
0.0055                    0.0215                   3.058926819592246E-5
0.0055                    0.0225                   2.3311182459639422E-5
0.0055                    0.0235                   1.8687965793607505E-5
0.0055                    0.0245                   1.5473115529583525E-5
0.0055                    0.0255                   1.2982432391260999E-5
0.0055                    0.0265                   1.084364250459982E-5
0.0055                    0.0275                   8.858187442711384E-6
0.0055                    0.0285                   7.015912979705349E-6
0.0055                    0.0295                   5.235497169090253E-6
0.0055                    0.0305                   4.235515542795963E-6
0.0055                    0.0315                   2.082908992571478E-6
0.0065                    -0.0315                  3.691403811873369E-6
0.0065                    -0.0305                  6.850203945911371E-6
0.0065                    -0.0295                  7.179202759503225E-6
0.0065                    -0.0285                  8.190436916640372E-6
0.0065                    -0.0275                  8.820971041660133E-6
0.0065                    -0.0265                  9.336155224480678E-6
0.0065                    -0.0255                  9.896873724309162E-6
0.0065                    -0.0245                  1.0858897957244799E-5
0.0065                    -0.0235                  1.2640440306189821E-5
0.0065                    -0.0225                  1.590871806113914E-5
0.0065                    -0.0215                  2.237534381179819E-5
0.0065                    -0.0205                  3.707756315252257E-5
0.0065                    -0.0195                  7.881320714779285E-5
0.0065                    -0.0185                  2.2091771532298747E-4
0.0065                    -0.0175                  7.131496363035401E-4
0.0065                    -0.0165                  0.0022813009211292523
0.0065                    -0.0155                  0.0070194203285616754
0.0065                    -0.0145                  0.015397088493167402
0.0065                    -0.0135                  0.022894822560230618
0.0065                    -0.0125                  0.02528213159141705
0.0065                    -0.0115                  0.0226315495971703
0.0065                    -0.0105                  0.016704967837816744
0.0065                    -0.0095                  0.009946107569566421
0.0065                    -0.0085                  0.004854240296683
0.0065                    -0.0075                  0.002153962091026199
0.0065                    -0.0065                  0.0010531747543438144
0.0065                    -0.0055                  6.704354677798966E-4
0.0065                    -0.0045                  6.050199467570893E-4