% Model:              Benchmark260518.mph
% Version:            COMSOL 6.2.0.339
% Date:               May 21 2026, 19:31
% Dimension:          2
% Nodes:              4096
% Expressions:        1
% Description:        速度大小
% Length unit:        m
% x                       y                        spf.U (m/s)
5.0E-4                    -0.0315                  3.0175168509354783E-6
5.0E-4                    -0.0305                  6.0330076785061934E-6
5.0E-4                    -0.0295                  6.711214288289377E-6
5.0E-4                    -0.0285                  7.4889505628422834E-6
5.0E-4                    -0.0275                  7.966184503827308E-6
5.0E-4                    -0.0265                  8.459564740561737E-6
5.0E-4                    -0.0255                  8.958338845094305E-6
5.0E-4                    -0.0245                  9.539807383644829E-6
5.0E-4                    -0.0235                  1.0300482898909167E-5
5.0E-4                    -0.0225                  1.1403595036724669E-5
5.0E-4                    -0.0215                  1.3071102060141582E-5
5.0E-4                    -0.0205                  1.590526052003186E-5
5.0E-4                    -0.0195                  2.0317978347263207E-5
5.0E-4                    -0.0185                  3.183230805026497E-5
5.0E-4                    -0.0175                  6.914138311264733E-5
5.0E-4                    -0.0165                  1.8043732487591822E-4
5.0E-4                    -0.0155                  5.266709431794739E-4
5.0E-4                    -0.0145                  0.0012505962696376038
5.0E-4                    -0.0135                  0.002612210398151801
5.0E-4                    -0.0125                  0.004616628737806104
5.0E-4                    -0.0115                  0.006488109920771417
5.0E-4                    -0.0105                  0.0074891392531942075
5.0E-4                    -0.0095                  0.007423484916589754
5.0E-4                    -0.0085                  0.006468063801107648
5.0E-4                    -0.0075                  0.005017341699044614
5.0E-4                    -0.0065                  0.0035424018316619434
5.0E-4                    -0.0055                  0.0024823197550689746
5.0E-4                    -0.0045                  0.002132541412433832
5.0E-4                    -0.0035                  0.0024884229799959166
5.0E-4                    -0.0025                  0.003356639557354604
5.0E-4                    -0.0015                  0.004487812958979571
5.0E-4                    -5.0E-4                  0.005616640587261984
5.0E-4                    5.0E-4                   0.006490295613145747
5.0E-4                    0.0015                   0.006895876627627327
5.0E-4                    0.0025                   0.006715684516714376
5.0E-4                    0.0035                   0.005951940105442079
5.0E-4                    0.0045                   0.004710946953263582
5.0E-4                    0.0055                   0.0031681287817263925
5.0E-4                    0.0065                   0.0016615905976248868
5.0E-4                    0.0075                   0.0017597570710409611
5.0E-4                    0.0085                   0.0032996675923485153
5.0E-4                    0.0095                   0.004483145184977701
5.0E-4                    0.0105                   0.004884992182655074
5.0E-4                    0.0115                   0.004564684183896267
5.0E-4                    0.0125                   0.003767465787405399
5.0E-4                    0.0135                   0.0028635411786864192
5.0E-4                    0.0145                   0.0024192046884052103
5.0E-4                    0.0155                   0.004844229832383641
5.0E-4                    0.0165                   0.03207583175441268
5.0E-4                    0.0175                   0.054265758760728214
5.0E-4                    0.0185                   0.053482190244908086
5.0E-4                    0.0195                   0.044453382807596094
5.0E-4                    0.0205                   0.030733242944588544
5.0E-4                    0.0215                   0.018573563444566957
5.0E-4                    0.0225                   0.008656111424220273
5.0E-4                    0.0235                   0.0022453620358886053
5.0E-4                    0.0245                   0.0012027106826018544
5.0E-4                    0.0255                   7.458463564318418E-4
5.0E-4                    0.0265                   1.569856870942098E-4
5.0E-4                    0.0275                   1.4399978938104174E-5
5.0E-4                    0.0285                   9.454506024485062E-6
5.0E-4                    0.0295                   9.360354155837466E-6
5.0E-4                    0.0305                   9.506817661533775E-6
5.0E-4                    0.0315                   5.291376294148049E-6
0.0015                    -0.0315                  5.834783102077238E-6
0.0015                    -0.0305                  1.1441498803411227E-5
0.0015                    -0.0295                  1.2139427035992153E-5
0.0015                    -0.0285                  1.3029816264624657E-5
0.0015                    -0.0275                  1.3504694489945984E-5
0.0015                    -0.0265                  1.4096450633595486E-5
0.0015                    -0.0255                  1.4802529231203159E-5
0.0015                    -0.0245                  1.574977442892002E-5
0.0015                    -0.0235                  1.7119614619399723E-5
0.0015                    -0.0225                  1.925356711661589E-5
0.0015                    -0.0215                  2.2766277300402033E-5
0.0015                    -0.0205                  2.897801900044392E-5
0.0015                    -0.0195                  4.019757493333001E-5
0.0015                    -0.0185                  6.694758127739125E-5
0.0015                    -0.0175                  1.4064387095970456E-4
0.0015                    -0.0165                  3.5141999765798027E-4
0.0015                    -0.0155                  0.0010431504803663208
0.0015                    -0.0145                  0.0029217348617973345
0.0015                    -0.0135                  0.006669880595829804
0.0015                    -0.0125                  0.011075993874435888
0.0015                    -0.0115                  0.014266260962262103
0.0015                    -0.0105                  0.015787594712783383
0.0015                    -0.0095                  0.015855678497476253
0.0015                    -0.0085                  0.014758273723637472
0.0015                    -0.0075                  0.01277036938884019
0.0015                    -0.0065                  0.01039460855683541
0.0015                    -0.0055                  0.008600343444550818
0.0015                    -0.0045                  0.008414352592422463
0.0015                    -0.0035                  0.00991113930356524
0.0015                    -0.0025                  0.01242914310854381
0.0015                    -0.0015                  0.015279467704742663
0.0015                    -5.0E-4                  0.017885283039407257
0.0015                    5.0E-4                   0.01983209250379883
0.0015                    0.0015                   0.02086022066809325
0.0015                    0.0025                   0.020860674758072264
0.0015                    0.0035                   0.019852737477648923
0.0015                    0.0045                   0.017931184985145374
0.0015                    0.0055                   0.015199342784075628
0.0015                    0.0065                   0.011714959222174632
0.0015                    0.0075                   0.007627672665217614
0.0015                    0.0085                   0.0037473060713837654
0.0015                    0.0095                   0.0028108977391761553
0.0015                    0.0105                   0.0046771881271677985
0.0015                    0.0115                   0.0058444994157729295
0.0015                    0.0125                   0.005791853160357081
0.0015                    0.0135                   0.004813664360562804
0.0015                    0.0145                   0.002972495991245058
0.0015                    0.0155                   0.015719257391396776
0.0015                    0.0165                   0.04054348793738966
0.0015                    0.0175                   0.05304408419931369
0.0015                    0.0185                   0.050791244445528315
0.0015                    0.0195                   0.041221754190348944
0.0015                    0.0205                   0.028130271509051133
0.0015                    0.0215                   0.017113023680712883
0.0015                    0.0225                   0.008190479952788671
0.0015                    0.0235                   0.0023869237942112168
0.0015                    0.0245                   7.440836630813495E-4
0.0015                    0.0255                   4.1105577800084947E-4
0.0015                    0.0265                   1.5776633095200486E-4
0.0015                    0.0275                   6.500086749352944E-5
0.0015                    0.0285                   3.0124737136609888E-5
0.0015                    0.0295                   1.7918190752316998E-5
0.0015                    0.0305                   1.2092477022878374E-5
0.0015                    0.0315                   5.551751655541936E-6
0.0025                    -0.0315                  6.183737631580835E-6
0.0025                    -0.0305                  1.1531757162566491E-5
0.0025                    -0.0295                  1.1423756813458862E-5
0.0025                    -0.0285                  1.1966221911953745E-5
0.0025                    -0.0275                  1.2125694834866107E-5
0.0025                    -0.0265                  1.2457569364956845E-5
0.0025                    -0.0255                  1.3025932756930366E-5
0.0025                    -0.0245                  1.4005330796630192E-5
0.0025                    -0.0235                  1.56678397084141E-5
0.0025                    -0.0225                  1.8596505504453386E-5
0.0025                    -0.0215                  2.4055285289434206E-5
0.0025                    -0.0205                  3.477598027253935E-5
0.0025                    -0.0195                  5.659218189742095E-5
0.0025                    -0.0185                  1.0219399431204484E-4
0.0025                    -0.0175                  2.09207273106572E-4
0.0025                    -0.0165                  4.9668815043262E-4
0.0025                    -0.0155                  0.0015458297759926337
0.0025                    -0.0145                  0.005055689230500809
0.0025                    -0.0135                  0.01035265009698193
0.0025                    -0.0125                  0.01390212209579557
0.0025                    -0.0115                  0.01491959112890741
0.0025                    -0.0105                  0.015023426179642734
0.0025                    -0.0095                  0.015279505835636214
0.0025                    -0.0085                  0.015788129491451162
0.0025                    -0.0075                  0.015802042889855164
0.0025                    -0.0065                  0.014978321597041825
0.0025                    -0.0055                  0.01455415025899227
0.0025                    -0.0045                  0.0160336089212256
0.0025                    -0.0035                  0.01911841920242251
0.0025                    -0.0025                  0.02270800340240885
0.0025                    -0.0015                  0.026020767414787656
0.0025                    -5.0E-4                  0.028666333805862566
0.0025                    5.0E-4                   0.030545421674661666
0.0025                    0.0015                   0.031718637461199274
0.0025                    0.0025                   0.032288803350973054
0.0025                    0.0035                   0.0323193760309196
0.0025                    0.0045                   0.03178805028712636
0.0025                    0.0055                   0.030557937297816615
0.0025                    0.0065                   0.028385188773176067
0.0025                    0.0075                   0.02501949679444857
0.0025                    0.0085                   0.020458069141757147
0.0025                    0.0095                   0.015156790739587384
0.0025                    0.0105                   0.009911553841575882
0.0025                    0.0115                   0.005744162254120515
0.0025                    0.0125                   0.003813801951667056
0.0025                    0.0135                   0.005086480445680587
0.0025                    0.0145                   0.012443055605784183
0.0025                    0.0155                   0.02829458322298232
0.0025                    0.0165                   0.04442663874018142
0.0025                    0.0175                   0.049858485297296584
0.0025                    0.0185                   0.046135280787512736
0.0025                    0.0195                   0.03649855047778
0.0025                    0.0205                   0.024762772612465827
0.0025                    0.0215                   0.015766346034886452
0.0025                    0.0225                   0.008866772141813474
0.0025                    0.0235                   0.0041825993382785245
0.0025                    0.0245                   0.0018476956911347717
0.0025                    0.0255                   9.071340484962238E-4
0.0025                    0.0265                   4.953234411111566E-4
0.0025                    0.0275                   2.486475257072274E-4
0.0025                    0.0285                   1.040429452150906E-4
0.0025                    0.0295                   4.28534486092018E-5
0.0025                    0.0305                   2.2083138661568672E-5
0.0025                    0.0315                   9.285438133108302E-6
0.0035                    -0.0315                  6.740889197206723E-6
0.0035                    -0.0305                  1.1965434136312731E-5
0.0035                    -0.0295                  1.1380600825761398E-5
0.0035                    -0.0285                  1.2232480881672706E-5
0.0035                    -0.0275                  1.2632759751447392E-5
0.0035                    -0.0265                  1.3173091853067013E-5
0.0035                    -0.0255                  1.3992149967104879E-5
0.0035                    -0.0245                  1.5441691892138817E-5
0.0035                    -0.0235                  1.8102607633954163E-5
0.0035                    -0.0225                  2.3220631104856164E-5
0.0035                    -0.0215                  3.359547668434282E-5
0.0035                    -0.0205                  5.5482232626959743E-5
0.0035                    -0.0195                  1.0474151339784737E-4
0.0035                    -0.0185                  2.0943843833305187E-4
0.0035                    -0.0175                  4.3831943509894255E-4
0.0035                    -0.0165                  0.001063995696033289
0.0035                    -0.0155                  0.0033447500552128808
0.0035                    -0.0145                  0.008843096601192812
0.0035                    -0.0135                  0.014094823723356836
0.0035                    -0.0125                  0.014640117943928308
0.0035                    -0.0115                  0.012138833505334212
0.0035                    -0.0105                  0.01001093471176825
0.0035                    -0.0095                  0.009743639930445542
0.0035                    -0.0085                  0.011265268113726122
0.0035                    -0.0075                  0.013343302177558816
0.0035                    -0.0065                  0.014709383805547586
0.0035                    -0.0055                  0.01650493412378528
0.0035                    -0.0045                  0.02012271106803955
0.0035                    -0.0035                  0.02446696911869326
0.0035                    -0.0025                  0.028263261053611897
0.0035                    -0.0015                  0.031093006870949062
0.0035                    -5.0E-4                  0.03300028524816832
0.0035                    5.0E-4                   0.034227894277390494
0.0035                    0.0015                   0.035052258406572175
0.0035                    0.0025                   0.03574267558674679
0.0035                    0.0035                   0.03649668646419032
0.0035                    0.0045                   0.0373232416362888
0.0035                    0.0055                   0.03802711934632901
0.0035                    0.0065                   0.03827332549291261
0.0035                    0.0075                   0.037628584851137514
0.0035                    0.0085                   0.03568838639995635
0.0035                    0.0095                   0.03233745270061303
0.0035                    0.0105                   0.028036983250521546
0.0035                    0.0115                   0.023839425987532133
0.0035                    0.0125                   0.02124448178558186
0.0035                    0.0135                   0.022177533979918247
0.0035                    0.0145                   0.02821554615081529
0.0035                    0.0155                   0.0375061786349785
0.0035                    0.0165                   0.04430213598569455
0.0035                    0.0175                   0.04438000201563818
0.0035                    0.0185                   0.039156976956269685
0.0035                    0.0195                   0.030126973848646012
0.0035                    0.0205                   0.02090363176302967
0.0035                    0.0215                   0.015342607675287506
0.0035                    0.0225                   0.011768487677949292
0.0035                    0.0235                   0.008622467817634268
0.0035                    0.0245                   0.005593418502543682
0.0035                    0.0255                   0.003179205667220019
0.0035                    0.0265                   0.0016599601109883277
0.0035                    0.0275                   8.093166904894007E-4
0.0035                    0.0285                   3.4713051607285184E-4
0.0035                    0.0295                   1.2507237150836454E-4
0.0035                    0.0305                   4.988713865462321E-5
0.0035                    0.0315                   1.9146524145519453E-5
0.0045                    -0.0315                  7.076728529309566E-6
0.0045                    -0.0305                  1.2080065138876765E-5
0.0045                    -0.0295                  1.0933251965834143E-5
0.0045                    -0.0285                  1.1942431509469992E-5
0.0045                    -0.0275                  1.2682215020673978E-5
0.0045                    -0.0265                  1.3651615762373733E-5
0.0045                    -0.0255                  1.5059340117590548E-5
0.0045                    -0.0245                  1.7562176209829445E-5
0.0045                    -0.0235                  2.237154664435935E-5
0.0045                    -0.0225                  3.2148784117599767E-5
0.0045                    -0.0215                  5.269841286358189E-5
0.0045                    -0.0205                  9.934835465523275E-5
0.0045                    -0.0195                  2.1177586878041397E-4
0.0045                    -0.0185                  5.301626602997863E-4
0.0045                    -0.0175                  0.0011814679209210177
0.0045                    -0.0165                  0.002820924670421366
0.0045                    -0.0155                  0.007191127270525048
0.0045                    -0.0145                  0.013415990518485682
0.0045                    -0.0135                  0.01608604494105796
0.0045                    -0.0125                  0.012874111606255286
0.0045                    -0.0115                  0.007797009131560471
0.0045                    -0.0105                  0.004602437839483451
0.0045                    -0.0095                  0.0038038611548759163
0.0045                    -0.0085                  0.004817512404445958
0.0045                    -0.0075                  0.007126211438131795
0.0045                    -0.0065                  0.00995287370234668
0.0045                    -0.0055                  0.014239032684835092
0.0045                    -0.0045                  0.01991578153614642
0.0045                    -0.0035                  0.024936580833693843
0.0045                    -0.0025                  0.0283052092478504
0.0045                    -0.0015                  0.03003942466885092
0.0045                    -5.0E-4                  0.030466205631118407
0.0045                    5.0E-4                   0.030127196111380507
0.0045                    0.0015                   0.029746183496749456
0.0045                    0.0025                   0.029942332757312933
0.0045                    0.0035                   0.031005764399766232
0.0045                    0.0045                   0.03292907890991428
0.0045                    0.0055                   0.035457265846869465
0.0045                    0.0065                   0.03814377921141339
0.0045                    0.0075                   0.040433539174086375
0.0045                    0.0085                   0.04180254628882724
0.0045                    0.0095                   0.041828703254298716
0.0045                    0.0105                   0.04046033621371897
0.0045                    0.0115                   0.0382997602063218
0.0045                    0.0125                   0.036461278508101914
0.0045                    0.0135                   0.03617123197904606
0.0045                    0.0145                   0.037845722081183
0.0045                    0.0155                   0.04006584881725164
0.0045                    0.0165                   0.040142013486125394
0.0045                    0.0175                   0.03632479034210049
0.0045                    0.0185                   0.02978507235986644
0.0045                    0.0195                   0.022368761469793167
0.0045                    0.0205                   0.01785807299120788
0.0045                    0.0215                   0.017507438172493464
0.0045                    0.0225                   0.017431232649986264
0.0045                    0.0235                   0.015791726624105325
0.0045                    0.0245                   0.01260018310263553
0.0045                    0.0255                   0.008650934961617838
0.0045                    0.0265                   0.004982151977725229
0.0045                    0.0275                   0.0023869890320528976
0.0045                    0.0285                   9.953960876177025E-4
0.0045                    0.0295                   3.7785628231725403E-4
0.0045                    0.0305                   1.3517009276851007E-4
0.0045                    0.0315                   4.435882413581591E-5
0.0055                    -0.0315                  7.413700135019468E-6
0.0055                    -0.0305                  1.2259563276249393E-5
0.0055                    -0.0295                  1.0535771996019579E-5
0.0055                    -0.0285                  1.157803507298938E-5
0.0055                    -0.0275                  1.262334058386805E-5
0.0055                    -0.0265                  1.4207404394509734E-5
0.0055                    -0.0255                  1.669766800639528E-5
0.0055                    -0.0245                  2.1293852877014178E-5
0.0055                    -0.0235                  3.0484743070012E-5
0.0055                    -0.0225                  4.962647165700576E-5
0.0055                    -0.0215                  9.234915223233506E-5
0.0055                    -0.0205                  1.9457458941813524E-4
0.0055                    -0.0195                  4.942765495053889E-4
0.0055                    -0.0185                  0.0012914168507164481
0.0055                    -0.0175                  0.003030652633873635
0.0055                    -0.0165                  0.006766190954081493
0.0055                    -0.0155                  0.012541717932618747
0.0055                    -0.0145                  0.01657750450571278
0.0055                    -0.0135                  0.014819767376655385
0.0055                    -0.0125                  0.008973592331901167
0.0055                    -0.0115                  0.004038169314492957
0.0055                    -0.0105                  0.0018173271505545134
0.0055                    -0.0095                  0.001219389846109759
0.0055                    -0.0085                  0.0013856035319326134
0.0055                    -0.0075                  0.0023907242957738155
0.0055                    -0.0065                  0.00532945498589951
0.0055                    -0.0055                  0.011767862690808999
0.0055                    -0.0045                  0.01866303888323296
0.0055                    -0.0035                  0.023235870514517528
0.0055                    -0.0025                  0.025179918776250268
0.0055                    -0.0015                  0.024708683659915052
0.0055                    -5.0E-4                  0.022569955684765004
0.0055                    5.0E-4                   0.020004244001785604
0.0055                    0.0015                   0.0181318594163711
0.0055                    0.0025                   0.017466534742227712
0.0055                    0.0035                   0.01810348082346341
0.0055                    0.0045                   0.020033716788258892
0.0055                    0.0055                   0.023184688232216366
0.0055                    0.0065                   0.02729836806638995
0.0055                    0.0075                   0.03188432261054223
0.0055                    0.0085                   0.03629487742611197
0.0055                    0.0095                   0.039803646627585426
0.0055                    0.0105                   0.04182195927676005
0.0055                    0.0115                   0.04219663763400961
0.0055                    0.0125                   0.04133533676665899
0.0055                    0.0135                   0.039988887118329416
0.0055                    0.0145                   0.03857800749843038
0.0055                    0.0155                   0.03654051700827945
0.0055                    0.0165                   0.03253117174883582
0.0055                    0.0175                   0.025941166202614774
0.0055                    0.0185                   0.01880818696942257
0.0055                    0.0195                   0.015008074207660442
0.0055                    0.0205                   0.017046480196182084
0.0055                    0.0215                   0.020562437041853298
0.0055                    0.0225                   0.022407449036150547
0.0055                    0.0235                   0.02223260322877636
0.0055                    0.0245                   0.020173623085330147
0.0055                    0.0255                   0.016420956691075832
0.0055                    0.0265                   0.011377493346603922
0.0055                    0.0275                   0.006287332670005871
0.0055                    0.0285                   0.0027115918286553923
0.0055                    0.0295                   0.001001356362809326
0.0055                    0.0305                   3.868010084953073E-4
0.0055                    0.0315                   1.2734128166582518E-4
0.0065                    -0.0315                  7.717781113797969E-6
0.0065                    -0.0305                  1.2460091064744742E-5
0.0065                    -0.0295                  1.0222352525915297E-5
0.0065                    -0.0285                  1.1250896005742595E-5
0.0065                    -0.0275                  1.2620063468002288E-5
0.0065                    -0.0265                  1.5099966884480609E-5
0.0065                    -0.0255                  1.9499429476932473E-5
0.0065                    -0.0245                  2.8136863921579863E-5
0.0065                    -0.0235                  4.591997525516874E-5
0.0065                    -0.0225                  8.53249049888979E-5
0.0065                    -0.0215                  1.788273381002481E-4
0.0065                    -0.0205                  4.5316514202684965E-4
0.0065                    -0.0195                  0.0012128091048583456
0.0065                    -0.0185                  0.0030659709609517022
0.0065                    -0.0175                  0.006838614441632607
0.0065                    -0.0165                  0.012282428113985437
0.0065                    -0.0155                  0.01648872718868282
0.0065                    -0.0145                  0.015831022117728737
0.0065                    -0.0135                  0.010478014582961529
0.0065                    -0.0125                  0.004807765848279382
0.0065                    -0.0115                  0.0017969573576930584
0.0065                    -0.0105                  7.472929146830202E-4
0.0065                    -0.0095                  4.705506114734812E-4
0.0065                    -0.0085                  5.421001558587162E-4
0.0065                    -0.0075                  0.0011594541103062779
0.0065                    -0.0065                  0.00469232154493781
0.0065                    -0.0055                  0.012368677091443278
0.0065                    -0.0045                  0.019092084354192747