% Model:              Benchmark260518.mph
% Version:            COMSOL 6.2.0.339
% Date:               May 20 2026, 11:12
% Dimension:          2
% Nodes:              4096
% Expressions:        1
% Description:        速度大小
% Length unit:        m
% x                       y                        spf.U (m/s)
5.0E-4                    -0.0315                  8.707703892249305E-7
5.0E-4                    -0.0305                  1.7655879894577892E-6
5.0E-4                    -0.0295                  1.9927845299351577E-6
5.0E-4                    -0.0285                  2.2485698813306667E-6
5.0E-4                    -0.0275                  2.4125753159451303E-6
5.0E-4                    -0.0265                  2.544624702204109E-6
5.0E-4                    -0.0255                  2.645881501453127E-6
5.0E-4                    -0.0245                  2.708097891963401E-6
5.0E-4                    -0.0235                  2.7453804532672395E-6
5.0E-4                    -0.0225                  2.7784938798461924E-6
5.0E-4                    -0.0215                  2.8115106397031736E-6
5.0E-4                    -0.0205                  2.8384029793516535E-6
5.0E-4                    -0.0195                  2.8617005612680896E-6
5.0E-4                    -0.0185                  2.878299686048745E-6
5.0E-4                    -0.0175                  2.8805462104168833E-6
5.0E-4                    -0.0165                  2.9031747701382906E-6
5.0E-4                    -0.0155                  2.9125032187203804E-6
5.0E-4                    -0.0145                  2.8670082077592516E-6
5.0E-4                    -0.0135                  2.926171643960028E-6
5.0E-4                    -0.0125                  3.1837957814557594E-6
5.0E-4                    -0.0115                  3.5170278994179405E-6
5.0E-4                    -0.0105                  3.892631320768006E-6
5.0E-4                    -0.0095                  4.474791528913935E-6
5.0E-4                    -0.0085                  5.97619179377823E-6
5.0E-4                    -0.0075                  1.031968974682425E-5
5.0E-4                    -0.0065                  2.282272778158717E-5
5.0E-4                    -0.0055                  5.886700913987652E-5
5.0E-4                    -0.0045                  1.6534773484723324E-4
5.0E-4                    -0.0035                  3.6357595522749334E-4
5.0E-4                    -0.0025                  6.384186735566284E-4
5.0E-4                    -0.0015                  0.0010759949748569606
5.0E-4                    -5.0E-4                  0.0017773816381621461
5.0E-4                    5.0E-4                   0.002642122009542567
5.0E-4                    0.0015                   0.0034424983479935008
5.0E-4                    0.0025                   0.003974919759454397
5.0E-4                    0.0035                   0.00411955710055027
5.0E-4                    0.0045                   0.003855717867582593
5.0E-4                    0.0055                   0.0032504271054311033
5.0E-4                    0.0065                   0.002437275489963819
5.0E-4                    0.0075                   0.0015733543944273167
5.0E-4                    0.0085                   8.165493337181288E-4
5.0E-4                    0.0095                   3.523044704907459E-4
5.0E-4                    0.0105                   8.798368444838168E-4
5.0E-4                    0.0115                   0.004197247719239568
5.0E-4                    0.0125                   0.013975269378952828
5.0E-4                    0.0135                   0.020944486283777583
5.0E-4                    0.0145                   0.01939250195929114
5.0E-4                    0.0155                   0.015907603686273124
5.0E-4                    0.0165                   0.01115200055077841
5.0E-4                    0.0175                   0.00644402894217438
5.0E-4                    0.0185                   0.0027261922999815068
5.0E-4                    0.0195                   7.378474075055323E-4
5.0E-4                    0.0205                   1.5791878639858517E-4
5.0E-4                    0.0215                   7.990708101382918E-5
5.0E-4                    0.0225                   2.6921508689768072E-5
5.0E-4                    0.0235                   1.0921585279814498E-5
5.0E-4                    0.0245                   6.349796319975401E-6
5.0E-4                    0.0255                   5.119413588301024E-6
5.0E-4                    0.0265                   4.5577536387359196E-6
5.0E-4                    0.0275                   4.140870423993217E-6
5.0E-4                    0.0285                   3.8305269690457126E-6
5.0E-4                    0.0295                   3.394904569742389E-6
5.0E-4                    0.0305                   3.020115617429101E-6
5.0E-4                    0.0315                   1.512917904783013E-6
0.0015                    -0.0315                  1.6991398120464582E-6
0.0015                    -0.0305                  3.4185762561455453E-6
0.0015                    -0.0295                  3.74243286155063E-6
0.0015                    -0.0285                  4.045311318215242E-6
0.0015                    -0.0275                  4.179455987913216E-6
0.0015                    -0.0265                  4.280646503733889E-6
0.0015                    -0.0255                  4.350993900605821E-6
0.0015                    -0.0245                  4.387119145078596E-6
0.0015                    -0.0235                  4.402345375637003E-6
0.0015                    -0.0225                  4.41721976251838E-6
0.0015                    -0.0215                  4.434873690690458E-6
0.0015                    -0.0205                  4.448438222201975E-6
0.0015                    -0.0195                  4.459349298257008E-6
0.0015                    -0.0185                  4.46510864668087E-6
0.0015                    -0.0175                  4.4631961503344955E-6
0.0015                    -0.0165                  4.48902448491742E-6
0.0015                    -0.0155                  4.51490967706283E-6
0.0015                    -0.0145                  4.519882105812177E-6
0.0015                    -0.0135                  4.683105192241066E-6
0.0015                    -0.0125                  5.128986787962834E-6
0.0015                    -0.0115                  5.791923124672844E-6
0.0015                    -0.0105                  6.7438329525327835E-6
0.0015                    -0.0095                  8.421863095984468E-6
0.0015                    -0.0085                  1.2240004314470249E-5
0.0015                    -0.0075                  2.1743915194543408E-5
0.0015                    -0.0065                  4.599195922581785E-5
0.0015                    -0.0055                  1.1250792714315107E-4
0.0015                    -0.0045                  3.2999605568476777E-4
0.0015                    -0.0035                  8.2059029412443E-4
0.0015                    -0.0025                  0.0018110645315076318
0.0015                    -0.0015                  0.003546453700956285
0.0015                    -5.0E-4                  0.005791360963900389
0.0015                    5.0E-4                   0.00798962837774328
0.0015                    0.0015                   0.00971651046066786
0.0015                    0.0025                   0.01076476624871289
0.0015                    0.0035                   0.011092629804662066
0.0015                    0.0045                   0.010744549109324864
0.0015                    0.0055                   0.009824834481546335
0.0015                    0.0065                   0.00849532563809523
0.0015                    0.0075                   0.006969551578311225
0.0015                    0.0085                   0.005549721564759572
0.0015                    0.0095                   0.004861335177474611
0.0015                    0.0105                   0.006281948373658646
0.0015                    0.0115                   0.011602286076977282
0.0015                    0.0125                   0.018167353764559895
0.0015                    0.0135                   0.020319412626349776
0.0015                    0.0145                   0.01819737389481976
0.0015                    0.0155                   0.014365533050490119
0.0015                    0.0165                   0.009597222653987356
0.0015                    0.0175                   0.005066652972915581
0.0015                    0.0185                   0.0018983683270693019
0.0015                    0.0195                   5.437894935766566E-4
0.0015                    0.0205                   2.25861929247215E-4
0.0015                    0.0215                   1.1601248819528208E-4
0.0015                    0.0225                   4.335125010731643E-5
0.0015                    0.0235                   1.8362189442479195E-5
0.0015                    0.0245                   1.0618210954249326E-5
0.0015                    0.0255                   8.303655973935896E-6
0.0015                    0.0265                   7.430917887889805E-6
0.0015                    0.0275                   6.954704756317342E-6
0.0015                    0.0285                   6.678282350845849E-6
0.0015                    0.0295                   6.228016187807613E-6
0.0015                    0.0305                   5.839086045666271E-6
0.0015                    0.0315                   2.976999562556647E-6
0.0025                    -0.0315                  1.7306699536309616E-6
0.0025                    -0.0305                  3.4438015409702064E-6
0.0025                    -0.0295                  3.7145557433775485E-6
0.0025                    -0.0285                  3.914851261759821E-6
0.0025                    -0.0275                  3.879918484031068E-6
0.0025                    -0.0265                  3.8042302286007313E-6
0.0025                    -0.0255                  3.7126727262868367E-6
0.0025                    -0.0245                  3.6267609062392898E-6
0.0025                    -0.0235                  3.5499456344563147E-6
0.0025                    -0.0225                  3.483701058470717E-6
0.0025                    -0.0215                  3.426503844161406E-6
0.0025                    -0.0205                  3.3761410488963777E-6
0.0025                    -0.0195                  3.3313283551686415E-6
0.0025                    -0.0185                  3.2949401539652443E-6
0.0025                    -0.0175                  3.2772556641991413E-6
0.0025                    -0.0165                  3.2896402465046863E-6
0.0025                    -0.0155                  3.3532239036961115E-6
0.0025                    -0.0145                  3.5099710446465977E-6
0.0025                    -0.0135                  3.8225661153020135E-6
0.0025                    -0.0125                  4.402410211727404E-6
0.0025                    -0.0115                  5.442212365227313E-6
0.0025                    -0.0105                  7.2977142880066464E-6
0.0025                    -0.0095                  1.0814144232717604E-5
0.0025                    -0.0085                  1.8056351084307054E-5
0.0025                    -0.0075                  3.430243625101378E-5
0.0025                    -0.0065                  7.215648351254065E-5
0.0025                    -0.0055                  1.6246550416459688E-4
0.0025                    -0.0045                  4.938065908572655E-4
0.0025                    -0.0035                  0.0015151845847102198
0.0025                    -0.0025                  0.0037569814289083233
0.0025                    -0.0015                  0.006915270497573368
0.0025                    -5.0E-4                  0.009928067494345584
0.0025                    5.0E-4                   0.012116782519941381
0.0025                    0.0015                   0.013476392111663807
0.0025                    0.0025                   0.014266987054995841
0.0025                    0.0035                   0.014691719807884805
0.0025                    0.0045                   0.01486042468878219
0.0025                    0.0055                   0.014771071018871509
0.0025                    0.0065                   0.014356525725687332
0.0025                    0.0075                   0.013621643460801105
0.0025                    0.0085                   0.012783902282383332
0.0025                    0.0095                   0.01240032093865968
0.0025                    0.0105                   0.013363790292887727
0.0025                    0.0115                   0.015841940145302318
0.0025                    0.0125                   0.01818920023870836
0.0025                    0.0135                   0.018242676824363445
0.0025                    0.0145                   0.015918278743316718
0.0025                    0.0155                   0.01222507426349641
0.0025                    0.0165                   0.007816236770321323
0.0025                    0.0175                   0.0038316182228503057
0.0025                    0.0185                   0.001362236145322143
0.0025                    0.0195                   4.0564567204770736E-4
0.0025                    0.0205                   1.3761104201866578E-4
0.0025                    0.0215                   6.458658543490605E-5
0.0025                    0.0225                   3.0311290977454342E-5
0.0025                    0.0235                   1.4972563948096307E-5
0.0025                    0.0245                   8.980261508520429E-6
0.0025                    0.0255                   6.855314371987034E-6
0.0025                    0.0265                   6.227267270079287E-6
0.0025                    0.0275                   6.114641634047079E-6
0.0025                    0.0285                   6.166350794712167E-6
0.0025                    0.0295                   6.022149224809787E-6
0.0025                    0.0305                   6.085109428297046E-6
0.0025                    0.0315                   3.257761555381305E-6
0.0035                    -0.0315                  1.7804546942459459E-6
0.0035                    -0.0305                  3.4850694422206184E-6
0.0035                    -0.0295                  3.7993174096241927E-6
0.0035                    -0.0285                  4.141914846477404E-6
0.0035                    -0.0275                  4.177620692802591E-6
0.0035                    -0.0265                  4.113022788765788E-6
0.0035                    -0.0255                  3.999548328066231E-6
0.0035                    -0.0245                  3.879227299789681E-6
0.0035                    -0.0235                  3.7646933696710882E-6
0.0035                    -0.0225                  3.6604951278835546E-6
0.0035                    -0.0215                  3.5660770433863714E-6
0.0035                    -0.0205                  3.479605565147243E-6
0.0035                    -0.0195                  3.401200360603593E-6
0.0035                    -0.0185                  3.3362833896811665E-6
0.0035                    -0.0175                  3.2987317917054972E-6
0.0035                    -0.0165                  3.315677040321314E-6
0.0035                    -0.0155                  3.4303993053936227E-6
0.0035                    -0.0145                  3.7097024716916863E-6
0.0035                    -0.0135                  4.269472334578354E-6
0.0035                    -0.0125                  5.335853639715199E-6
0.0035                    -0.0115                  7.3891983135966284E-6
0.0035                    -0.0105                  1.1312840103124905E-5
0.0035                    -0.0095                  1.8726048576886793E-5
0.0035                    -0.0085                  3.44121887450875E-5
0.0035                    -0.0075                  7.089884677893886E-5
0.0035                    -0.0065                  1.664530685740486E-4
0.0035                    -0.0055                  4.008049623312724E-4
0.0035                    -0.0045                  0.0010975477435718206
0.0035                    -0.0035                  0.0032319414195329976
0.0035                    -0.0025                  0.007004419009397894
0.0035                    -0.0015                  0.010640440720204522
0.0035                    -5.0E-4                  0.012768080811441014
0.0035                    5.0E-4                   0.013558694897598693
0.0035                    0.0015                   0.013660599276316267
0.0035                    0.0025                   0.013597905882889182
0.0035                    0.0035                   0.013717949263897066
0.0035                    0.0045                   0.014178983444720322
0.0035                    0.0055                   0.014910795241926435
0.0035                    0.0065                   0.015654025908125646
0.0035                    0.0075                   0.016118317245543565
0.0035                    0.0085                   0.016177499764120487
0.0035                    0.0095                   0.01596000036549357
0.0035                    0.0105                   0.015779425671086086
0.0035                    0.0115                   0.015833534326709475
0.0035                    0.0125                   0.015767948898330497
0.0035                    0.0135                   0.014781280565205187
0.0035                    0.0145                   0.012746113538016982
0.0035                    0.0155                   0.009846133369181892
0.0035                    0.0165                   0.006269553516139786
0.0035                    0.0175                   0.0030338836641860736
0.0035                    0.0185                   0.0011199318681308001
0.0035                    0.0195                   3.7275483742822815E-4
0.0035                    0.0205                   1.2640019410573827E-4
0.0035                    0.0215                   5.024945938827026E-5
0.0035                    0.0225                   2.582857439377958E-5
0.0035                    0.0235                   1.4422331630796799E-5
0.0035                    0.0245                   9.351517981912519E-6
0.0035                    0.0255                   7.394899025105923E-6
0.0035                    0.0265                   6.762490922447757E-6
0.0035                    0.0275                   6.599537805225555E-6
0.0035                    0.0285                   6.5502191593204174E-6
0.0035                    0.0295                   6.240018160200126E-6
0.0035                    0.0305                   6.5493178447160165E-6
0.0035                    0.0315                   3.6911549322164202E-6
0.0045                    -0.0315                  1.8102535913316237E-6
0.0045                    -0.0305                  3.4645766025535588E-6
0.0045                    -0.0295                  3.7312926127804016E-6
0.0045                    -0.0285                  4.156523769675995E-6
0.0045                    -0.0275                  4.2910682366702155E-6
0.0045                    -0.0265                  4.2893339192392475E-6
0.0045                    -0.0255                  4.196907306684695E-6
0.0045                    -0.0245                  4.071010750907112E-6
0.0045                    -0.0235                  3.936935004544003E-6
0.0045                    -0.0225                  3.8067209542732515E-6
0.0045                    -0.0215                  3.6840177304225127E-6
0.0045                    -0.0205                  3.5700064095437528E-6
0.0045                    -0.0195                  3.4677793694112015E-6
0.0045                    -0.0185                  3.3876363948518704E-6
0.0045                    -0.0175                  3.3539504035801394E-6
0.0045                    -0.0165                  3.4148125402351695E-6
0.0045                    -0.0155                  3.657155362503627E-6
0.0045                    -0.0145                  4.22151184308572E-6
0.0045                    -0.0135                  5.3356137131320375E-6
0.0045                    -0.0125                  7.4579169401254196E-6
0.0045                    -0.0115                  1.1633079207785623E-5
0.0045                    -0.0105                  2.048622232031492E-5
0.0045                    -0.0095                  3.8690767585982924E-5
0.0045                    -0.0085                  7.436613027121872E-5
0.0045                    -0.0075                  1.7347579908565366E-4
0.0045                    -0.0065                  4.2997431927923756E-4
0.0045                    -0.0055                  0.001012310012295097
0.0045                    -0.0045                  0.0026090490060553945
0.0045                    -0.0035                  0.006261712124118077
0.0045                    -0.0025                  0.010817276713375174
0.0045                    -0.0015                  0.013466607477800414
0.0045                    -5.0E-4                  0.013572982540206148
0.0045                    5.0E-4                   0.01226576897027487
0.0045                    0.0015                   0.010640556226769227
0.0045                    0.0025                   0.00938507835456891
0.0045                    0.0035                   0.008835660219903571
0.0045                    0.0045                   0.009072318424792966
0.0045                    0.0055                   0.009992770519307812
0.0045                    0.0065                   0.011328041560287223
0.0045                    0.0075                   0.012676444674276368
0.0045                    0.0085                   0.013631305250604917
0.0045                    0.0095                   0.013912024555327512
0.0045                    0.0105                   0.013445594469191354
0.0045                    0.0115                   0.0124219629980552
0.0045                    0.0125                   0.011236582765645606
0.0045                    0.0135                   0.010218428235955517
0.0045                    0.0145                   0.00936972186483013
0.0045                    0.0155                   0.008044093677474157
0.0045                    0.0165                   0.005688296367963361
0.0045                    0.0175                   0.003032620105455349
0.0045                    0.0185                   0.0012365077054871314
0.0045                    0.0195                   4.40304296057293E-4
0.0045                    0.0205                   1.4680778247255452E-4
0.0045                    0.0215                   5.1265117191782345E-5
0.0045                    0.0225                   2.4472411439897366E-5
0.0045                    0.0235                   1.3955412680715956E-5
0.0045                    0.0245                   9.512352275872743E-6
0.0045                    0.0255                   7.752999607437133E-6
0.0045                    0.0265                   7.1326709698517776E-6
0.0045                    0.0275                   6.874881036817464E-6
0.0045                    0.0285                   6.671284228703291E-6
0.0045                    0.0295                   6.2446402816885076E-6
0.0045                    0.0305                   6.743762445257818E-6
0.0045                    0.0315                   3.916807800400305E-6
0.0055                    -0.0315                  1.8406124772599123E-6
0.0055                    -0.0305                  3.467160870324264E-6
0.0055                    -0.0295                  3.680486811563708E-6
0.0055                    -0.0285                  4.13866121733115E-6
0.0055                    -0.0275                  4.346783919259559E-6
0.0055                    -0.0265                  4.421147828331323E-6
0.0055                    -0.0255                  4.37912816573188E-6
0.0055                    -0.0245                  4.275639954271577E-6
0.0055                    -0.0235                  4.144354105681869E-6
0.0055                    -0.0225                  4.006399352238641E-6
0.0055                    -0.0215                  3.8725264482648E-6
0.0055                    -0.0205                  3.7499679425927715E-6
0.0055                    -0.0195                  3.64897518212114E-6
0.0055                    -0.0185                  3.5913793326269827E-6
0.0055                    -0.0175                  3.6230238918187376E-6
0.0055                    -0.0165                  3.8348899266211746E-6
0.0055                    -0.0155                  4.399058144384019E-6
0.0055                    -0.0145                  5.638545795333447E-6
0.0055                    -0.0135                  8.068004005532862E-6
0.0055                    -0.0125                  1.253355210536776E-5
0.0055                    -0.0115                  2.153327135320146E-5
0.0055                    -0.0105                  4.189727161133441E-5
0.0055                    -0.0095                  9.644638757246532E-5
0.0055                    -0.0085                  2.0529232544390274E-4
0.0055                    -0.0075                  4.5748843236792795E-4
0.0055                    -0.0065                  0.0010409410984115876
0.0055                    -0.0055                  0.002417563525641514
0.0055                    -0.0045                  0.005533536115926022
0.0055                    -0.0035                  0.010249738524579631
0.0055                    -0.0025                  0.013965553423647673
0.0055                    -0.0015                  0.014403141060528
0.0055                    -5.0E-4                  0.012117775559136512
0.0055                    5.0E-4                   0.0089077073235595
0.0055                    0.0015                   0.006169431105788792
0.0055                    0.0025                   0.004487319119561141
0.0055                    0.0035                   0.003762513195625656
0.0055                    0.0045                   0.0037420941011246513
0.0055                    0.0055                   0.004273656665689383
0.0055                    0.0065                   0.005236220554541248
0.0055                    0.0075                   0.0064192093252885786
0.0055                    0.0085                   0.007494338308486648
0.0055                    0.0095                   0.008064099806191343
0.0055                    0.0105                   0.007831337799975876
0.0055                    0.0115                   0.00682399203295419
0.0055                    0.0125                   0.005726552287479089
0.0055                    0.0135                   0.005883013229098671
0.0055                    0.0145                   0.007201340676879482
0.0055                    0.0155                   0.007835028041695733
0.0055                    0.0165                   0.006606996003232282
0.0055                    0.0175                   0.004035360973062521
0.0055                    0.0185                   0.0017608275745273048
0.0055                    0.0195                   6.076941904735636E-4
0.0055                    0.0205                   1.910239010270275E-4
0.0055                    0.0215                   6.0633168835820765E-5
0.0055                    0.0225                   2.6474099496446957E-5
0.0055                    0.0235                   1.4503291138960037E-5
0.0055                    0.0245                   9.917825392105504E-6
0.0055                    0.0255                   8.145981335900759E-6
0.0055                    0.0265                   7.467855658123299E-6
0.0055                    0.0275                   7.095558530122491E-6
0.0055                    0.0285                   6.767955806528604E-6
0.0055                    0.0295                   6.272501877893233E-6
0.0055                    0.0305                   6.870098707954861E-6
0.0055                    0.0315                   4.044947390060046E-6
0.0065                    -0.0315                  1.8690220824498353E-6
0.0065                    -0.0305                  3.48061599870021E-6
0.0065                    -0.0295                  3.6447626452857137E-6
0.0065                    -0.0285                  4.104935285852624E-6
0.0065                    -0.0275                  4.3481757172893575E-6
0.0065                    -0.0265                  4.475973682703861E-6
0.0065                    -0.0255                  4.483004362116105E-6
0.0065                    -0.0245                  4.411753364809412E-6
0.0065                    -0.0235                  4.296238628876221E-6
0.0065                    -0.0225                  4.164789020306522E-6
0.0065                    -0.0215                  4.037620547959573E-6
0.0065                    -0.0205                  3.933140070081391E-6
0.0065                    -0.0195                  3.877299670665574E-6
0.0065                    -0.0185                  3.918307186943305E-6
0.0065                    -0.0175                  4.151317388153312E-6
0.0065                    -0.0165                  4.759931856301005E-6
0.0065                    -0.0155                  6.108500610253397E-6
0.0065                    -0.0145                  8.911647510827008E-6
0.0065                    -0.0135                  1.4767013146474573E-5
0.0065                    -0.0125                  2.608028603413066E-5
0.0065                    -0.0115                  4.689901877923793E-5
0.0065                    -0.0105                  1.0268237486596272E-4
0.0065                    -0.0095                  2.500169878345696E-4
0.0065                    -0.0085                  5.435497141458531E-4
0.0065                    -0.0075                  0.0011438229594131146
0.0065                    -0.0065                  0.002514185161470408
0.0065                    -0.0055                  0.005365940946662189