% Model:              Benchmark260518.mph
% Version:            COMSOL 6.2.0.339
% Date:               May 21 2026, 12:03
% Dimension:          2
% Nodes:              4096
% Expressions:        1
% Description:        速度大小
% Length unit:        m
% x                       y                        spf.U (m/s)
5.0E-4                    -0.0315                  1.2258904809550402E-6
5.0E-4                    -0.0305                  2.4724679404193662E-6
5.0E-4                    -0.0295                  2.7774101738284967E-6
5.0E-4                    -0.0285                  3.0895258899413535E-6
5.0E-4                    -0.0275                  3.2566626660671964E-6
5.0E-4                    -0.0265                  3.4006479558477534E-6
5.0E-4                    -0.0255                  3.5196723037205785E-6
5.0E-4                    -0.0245                  3.6426050865877863E-6
5.0E-4                    -0.0235                  3.7759492557813093E-6
5.0E-4                    -0.0225                  3.941135391047918E-6
5.0E-4                    -0.0215                  4.150828387301297E-6
5.0E-4                    -0.0205                  4.411442656698665E-6
5.0E-4                    -0.0195                  4.754942983532998E-6
5.0E-4                    -0.0185                  5.271149509614543E-6
5.0E-4                    -0.0175                  6.126716148945453E-6
5.0E-4                    -0.0165                  8.144577803027455E-6
5.0E-4                    -0.0155                  1.4699786181516E-5
5.0E-4                    -0.0145                  3.572195881708143E-5
5.0E-4                    -0.0135                  1.0452473635980397E-4
5.0E-4                    -0.0125                  2.140021393857009E-4
5.0E-4                    -0.0115                  2.7651438363881327E-4
5.0E-4                    -0.0105                  2.973519894268959E-4
5.0E-4                    -0.0095                  9.854142311808193E-4
5.0E-4                    -0.0085                  0.0039053274313985732
5.0E-4                    -0.0075                  0.011029862536964983
5.0E-4                    -0.0065                  0.015047991048426424
5.0E-4                    -0.0055                  0.01272443373090588
5.0E-4                    -0.0045                  0.01004845560367652
5.0E-4                    -0.0035                  0.007358215392237838
5.0E-4                    -0.0025                  0.005111733286061133
5.0E-4                    -0.0015                  0.003471552196370157
5.0E-4                    -5.0E-4                  0.002576434364305352
5.0E-4                    5.0E-4                   0.0026991901401146935
5.0E-4                    0.0015                   0.0038940056588514615
5.0E-4                    0.0025                   0.005948168201643338
5.0E-4                    0.0035                   0.008662805597611378
5.0E-4                    0.0045                   0.011743315363609634
5.0E-4                    0.0055                   0.014511800156296403
5.0E-4                    0.0065                   0.016341722389390124
5.0E-4                    0.0075                   0.011206944749909768
5.0E-4                    0.0085                   0.003269025257360315
5.0E-4                    0.0095                   6.413563999860062E-4
5.0E-4                    0.0105                   3.3593569148498287E-4
5.0E-4                    0.0115                   2.4532746692578183E-4
5.0E-4                    0.0125                   1.1994769011749204E-4
5.0E-4                    0.0135                   4.0644035560888766E-5
5.0E-4                    0.0145                   1.668793953785295E-5
5.0E-4                    0.0155                   9.285608974798499E-6
5.0E-4                    0.0165                   7.027690912872388E-6
5.0E-4                    0.0175                   6.067841539681875E-6
5.0E-4                    0.0185                   5.524062479714822E-6
5.0E-4                    0.0195                   5.2013401249347635E-6
5.0E-4                    0.0205                   4.97597492516291E-6
5.0E-4                    0.0215                   4.802807694171344E-6
5.0E-4                    0.0225                   4.652360454936368E-6
5.0E-4                    0.0235                   4.512849194112686E-6
5.0E-4                    0.0245                   4.373086570587098E-6
5.0E-4                    0.0255                   4.224188185526116E-6
5.0E-4                    0.0265                   4.0642945357260415E-6
5.0E-4                    0.0275                   3.8715933222919016E-6
5.0E-4                    0.0285                   3.6343224482212274E-6
5.0E-4                    0.0295                   3.25141531147643E-6
5.0E-4                    0.0305                   2.8948601477640347E-6
5.0E-4                    0.0315                   1.4296089226406083E-6
0.0015                    -0.0315                  2.40438404210127E-6
0.0015                    -0.0305                  4.788215432231403E-6
0.0015                    -0.0295                  5.170720500041435E-6
0.0015                    -0.0285                  5.520757241983511E-6
0.0015                    -0.0275                  5.632885600324603E-6
0.0015                    -0.0265                  5.728032280898526E-6
0.0015                    -0.0255                  5.8076397266045736E-6
0.0015                    -0.0245                  5.908405303059419E-6
0.0015                    -0.0235                  6.046622493989512E-6
0.0015                    -0.0225                  6.256592525820587E-6
0.0015                    -0.0215                  6.566455702017777E-6
0.0015                    -0.0205                  7.000377172918937E-6
0.0015                    -0.0195                  7.620653434747538E-6
0.0015                    -0.0185                  8.604449086942476E-6
0.0015                    -0.0175                  1.0433618082641105E-5
0.0015                    -0.0165                  1.4897022852105357E-5
0.0015                    -0.0155                  2.804670269057315E-5
0.0015                    -0.0145                  6.823672576408437E-5
0.0015                    -0.0135                  1.9856927307474178E-4
0.0015                    -0.0125                  4.300204641716683E-4
0.0015                    -0.0115                  7.24160126590289E-4
0.0015                    -0.0105                  0.0016043579192653041
0.0015                    -0.0095                  0.0046695455137220655
0.0015                    -0.0085                  0.010505724763237646
0.0015                    -0.0075                  0.015424086897432198
0.0015                    -0.0065                  0.0153996602216023
0.0015                    -0.0055                  0.012365480861096954
0.0015                    -0.0045                  0.009251245604040389
0.0015                    -0.0035                  0.006398275464257372
0.0015                    -0.0025                  0.004124512085187591
0.0015                    -0.0015                  0.002514969729375172
0.0015                    -5.0E-4                  0.0016029895853927672
0.0015                    5.0E-4                   0.0016857866887143938
0.0015                    0.0015                   0.0028527852798307354
0.0015                    0.0025                   0.004886264077971245
0.0015                    0.0035                   0.007687494244182411
0.0015                    0.0045                   0.011010260381939863
0.0015                    0.0055                   0.014311515046793248
0.0015                    0.0065                   0.016896433886274997
0.0015                    0.0075                   0.015462529622802874
0.0015                    0.0085                   0.008917606915536024
0.0015                    0.0095                   0.002971916118211318
0.0015                    0.0105                   9.523860096763844E-4
0.0015                    0.0115                   4.913369547534934E-4
0.0015                    0.0125                   2.2348375682864662E-4
0.0015                    0.0135                   7.531207609398329E-5
0.0015                    0.0145                   3.06070385768395E-5
0.0015                    0.0155                   1.6178689431410937E-5
0.0015                    0.0165                   1.1337228471755744E-5
0.0015                    0.0175                   9.389954013858358E-6
0.0015                    0.0185                   8.440017688165186E-6
0.0015                    0.0195                   7.942996352534033E-6
0.0015                    0.0205                   7.648706896542946E-6
0.0015                    0.0215                   7.4537981923333396E-6
0.0015                    0.0225                   7.305401490039381E-6
0.0015                    0.0235                   7.182198111333176E-6
0.0015                    0.0245                   7.07088959026454E-6
0.0015                    0.0255                   6.963194643019641E-6
0.0015                    0.0265                   6.858258203587746E-6
0.0015                    0.0275                   6.728240986376351E-6
0.0015                    0.0285                   6.55713317282382E-6
0.0015                    0.0295                   6.117702581441352E-6
0.0015                    0.0305                   5.620453254208242E-6
0.0015                    0.0315                   2.7996860049527E-6
0.0025                    -0.0315                  2.5378669679954907E-6
0.0025                    -0.0305                  4.906212188934158E-6
0.0025                    -0.0295                  5.088491405857777E-6
0.0025                    -0.0285                  5.30172466302867E-6
0.0025                    -0.0275                  5.233204956103421E-6
0.0025                    -0.0265                  5.13153996199057E-6
0.0025                    -0.0255                  5.023179985171873E-6
0.0025                    -0.0245                  4.943094237927975E-6
0.0025                    -0.0235                  4.919087383833275E-6
0.0025                    -0.0225                  4.989706214361153E-6
0.0025                    -0.0215                  5.201442175341783E-6
0.0025                    -0.0205                  5.610292159943156E-6
0.0025                    -0.0195                  6.313948656180285E-6
0.0025                    -0.0185                  7.574380033464397E-6
0.0025                    -0.0175                  1.0246852730023115E-5
0.0025                    -0.0165                  1.680860962187684E-5
0.0025                    -0.0155                  3.405335242461013E-5
0.0025                    -0.0145                  8.373632732186662E-5
0.0025                    -0.0135                  2.6241693672630163E-4
0.0025                    -0.0125                  6.79278676454285E-4
0.0025                    -0.0115                  0.001717816480427922
0.0025                    -0.0105                  0.004650601779797735
0.0025                    -0.0095                  0.009764876612904419
0.0025                    -0.0085                  0.014641716299051909
0.0025                    -0.0075                  0.016389474446028576
0.0025                    -0.0065                  0.014468303809314579
0.0025                    -0.0055                  0.010951104024947058
0.0025                    -0.0045                  0.007551545427557023
0.0025                    -0.0035                  0.004714532075293777
0.0025                    -0.0025                  0.0026988270984586536
0.0025                    -0.0015                  0.0014422615055243737
0.0025                    -5.0E-4                  7.859909819019931E-4
0.0025                    5.0E-4                   8.585265992719861E-4
0.0025                    0.0015                   0.001738520143862538
0.0025                    0.0025                   0.0034292692688815637
0.0025                    0.0035                   0.006079717982565265
0.0025                    0.0045                   0.00956351447767608
0.0025                    0.0055                   0.013349495744857102
0.0025                    0.0065                   0.016630823660827607
0.0025                    0.0075                   0.017169682094754966
0.0025                    0.0085                   0.013102293993780142
0.0025                    0.0095                   0.00667673625410162
0.0025                    0.0105                   0.0022807946106355973
0.0025                    0.0115                   7.663560355673194E-4
0.0025                    0.0125                   2.839446816155023E-4
0.0025                    0.0135                   8.614240899449164E-5
0.0025                    0.0145                   3.402980094056445E-5
0.0025                    0.0155                   1.63710019925486E-5
0.0025                    0.0165                   9.768735574945083E-6
0.0025                    0.0175                   7.1719419990679976E-6
0.0025                    0.0185                   6.115050591778646E-6
0.0025                    0.0195                   5.691494528727944E-6
0.0025                    0.0205                   5.550783240372639E-6
0.0025                    0.0215                   5.539135081940694E-6
0.0025                    0.0225                   5.592172432629579E-6
0.0025                    0.0235                   5.684194995892884E-6
0.0025                    0.0245                   5.806838916949803E-6
0.0025                    0.0255                   5.956169969146038E-6
0.0025                    0.0265                   6.125967923347931E-6
0.0025                    0.0275                   6.281852822624658E-6
0.0025                    0.0285                   6.380402893632856E-6
0.0025                    0.0295                   6.103421559167225E-6
0.0025                    0.0305                   5.72053866391131E-6
0.0025                    0.0315                   2.8942149980164788E-6
0.0035                    -0.0315                  2.748375747947819E-6
0.0035                    -0.0305                  5.111787042970851E-6
0.0035                    -0.0295                  5.206351660068791E-6
0.0035                    -0.0285                  5.595188353303014E-6
0.0035                    -0.0275                  5.6288957002296625E-6
0.0035                    -0.0265                  5.558516470193815E-6
0.0035                    -0.0255                  5.4245852972031855E-6
0.0035                    -0.0245                  5.286849396929554E-6
0.0035                    -0.0235                  5.187473347781676E-6
0.0035                    -0.0225                  5.189094268684491E-6
0.0035                    -0.0215                  5.38042788417777E-6
0.0035                    -0.0205                  5.887053913459007E-6
0.0035                    -0.0195                  6.9217994944432265E-6
0.0035                    -0.0185                  8.97276631149828E-6
0.0035                    -0.0175                  1.3409841762038128E-5
0.0035                    -0.0165                  2.4162309977658318E-5
0.0035                    -0.0155                  5.3263492894404445E-5
0.0035                    -0.0145                  1.3379477549379194E-4
0.0035                    -0.0135                  4.450513135600405E-4
0.0035                    -0.0125                  0.0013844853467761232
0.0035                    -0.0115                  0.003961192458300534
0.0035                    -0.0105                  0.00872851732245453
0.0035                    -0.0095                  0.013768981472068577
0.0035                    -0.0085                  0.01630285300720041
0.0035                    -0.0075                  0.015363607628332502
0.0035                    -0.0065                  0.01202031771403002
0.0035                    -0.0055                  0.008142790626291004
0.0035                    -0.0045                  0.004886541271016534
0.0035                    -0.0035                  0.0026163877907075667
0.0035                    -0.0025                  0.0012968075198740066
0.0035                    -0.0015                  6.132195199594395E-4
0.0035                    -5.0E-4                  3.1877486045223233E-4
0.0035                    5.0E-4                   3.715793237773851E-4
0.0035                    0.0015                   8.156664378299064E-4
0.0035                    0.0025                   0.0018498416088222538
0.0035                    0.0035                   0.0038471565081696357
0.0035                    0.0045                   0.00705332181410784
0.0035                    0.0055                   0.011178745206522189
0.0035                    0.0065                   0.015347228997188482
0.0035                    0.0075                   0.017731077144320033
0.0035                    0.0085                   0.016164771901265328
0.0035                    0.0095                   0.010725430022524012
0.0035                    0.0105                   0.004815697212961658
0.0035                    0.0115                   0.0015482162475399085
0.0035                    0.0125                   4.6662311326872827E-4
0.0035                    0.0135                   1.3273670022975116E-4
0.0035                    0.0145                   5.095894300345969E-5
0.0035                    0.0155                   2.2555900597291184E-5
0.0035                    0.0165                   1.2186664005038738E-5
0.0035                    0.0175                   8.055113957291283E-6
0.0035                    0.0185                   6.415556305495631E-6
0.0035                    0.0195                   5.804421573998779E-6
0.0035                    0.0205                   5.641373865603181E-6
0.0035                    0.0215                   5.677774696540232E-6
0.0035                    0.0225                   5.808516607298825E-6
0.0035                    0.0235                   5.990322529466874E-6
0.0035                    0.0245                   6.2041949057863925E-6
0.0035                    0.0255                   6.434612445069758E-6
0.0035                    0.0265                   6.657721658974282E-6
0.0035                    0.0275                   6.803559409528113E-6
0.0035                    0.0285                   6.791072806398115E-6
0.0035                    0.0295                   6.287787782530573E-6
0.0035                    0.0305                   5.895309871825535E-6
0.0035                    0.0315                   3.0620123737414032E-6
0.0045                    -0.0315                  2.8889207493618035E-6
0.0045                    -0.0305                  5.185305497701678E-6
0.0045                    -0.0295                  5.103838489981517E-6
0.0045                    -0.0285                  5.593510607770216E-6
0.0045                    -0.0275                  5.771168176998673E-6
0.0045                    -0.0265                  5.8100904809440875E-6
0.0045                    -0.0255                  5.726070004528251E-6
0.0045                    -0.0245                  5.589255233436632E-6
0.0045                    -0.0235                  5.457084912622243E-6
0.0045                    -0.0225                  5.4199062295935186E-6
0.0045                    -0.0215                  5.628242641529804E-6
0.0045                    -0.0205                  6.336500847786161E-6
0.0045                    -0.0195                  7.986230900575442E-6
0.0045                    -0.0185                  1.1471186630036187E-5
0.0045                    -0.0175                  1.905777618241003E-5
0.0045                    -0.0165                  3.7229123557231014E-5
0.0045                    -0.0155                  8.946473412073021E-5
0.0045                    -0.0145                  2.709624397828181E-4
0.0045                    -0.0135                  8.690196759733245E-4
0.0045                    -0.0125                  0.002829455100373492
0.0045                    -0.0115                  0.007273954185768018
0.0045                    -0.0105                  0.012743971730940946
0.0045                    -0.0095                  0.016013035284713067
0.0045                    -0.0085                  0.015618454239902615
0.0045                    -0.0075                  0.012383852560307822
0.0045                    -0.0065                  0.008211875846188986
0.0045                    -0.0055                  0.00468278023029086
0.0045                    -0.0045                  0.0023618984442416017
0.0045                    -0.0035                  0.0010942559507283465
0.0045                    -0.0025                  5.001916682743001E-4
0.0045                    -0.0015                  2.2942334537553706E-4
0.0045                    -5.0E-4                  1.2797301427815082E-4
0.0045                    5.0E-4                   1.497811176248585E-4
0.0045                    0.0015                   3.2221601557249697E-4
0.0045                    0.0025                   8.019443563944949E-4
0.0045                    0.0035                   0.001886700051578316
0.0045                    0.0045                   0.004088443268696395
0.0045                    0.0055                   0.007801832419698503
0.0045                    0.0065                   0.012618705604264742
0.0045                    0.0075                   0.016844141456926445
0.0045                    0.0085                   0.01799220086322173
0.0045                    0.0095                   0.014605648346884851
0.0045                    0.0105                   0.008287310022512241
0.0045                    0.0115                   0.0031179885977349955
0.0045                    0.0125                   9.078779321956989E-4
0.0045                    0.0135                   2.737156051063501E-4
0.0045                    0.0145                   8.927023547203441E-5
0.0045                    0.0155                   3.578475474777125E-5
0.0045                    0.0165                   1.689347745514471E-5
0.0045                    0.0175                   9.828366938012588E-6
0.0045                    0.0185                   7.068819129351148E-6
0.0045                    0.0195                   6.06390024883126E-6
0.0045                    0.0205                   5.788820675277235E-6
0.0045                    0.0215                   5.828132026708957E-6
0.0045                    0.0225                   6.008534597212631E-6
0.0045                    0.0235                   6.253504739607564E-6
0.0045                    0.0245                   6.523294694451296E-6
0.0045                    0.0255                   6.782657384430175E-6
0.0045                    0.0265                   6.983385730238952E-6
0.0045                    0.0275                   7.030370863180438E-6
0.0045                    0.0285                   6.855722514326924E-6
0.0045                    0.0295                   6.217824108639251E-6
0.0045                    0.0305                   5.946494666764995E-6
0.0045                    0.0315                   3.1775988060282324E-6
0.0055                    -0.0315                  2.999526058986638E-6
0.0055                    -0.0305                  5.246707377494351E-6
0.0055                    -0.0295                  4.994452983326851E-6
0.0055                    -0.0285                  5.518468263381898E-6
0.0055                    -0.0275                  5.806662404836867E-6
0.0055                    -0.0265                  5.979978089510608E-6
0.0055                    -0.0255                  6.0040081687655946E-6
0.0055                    -0.0245                  5.936727328514311E-6
0.0055                    -0.0235                  5.842624676452603E-6
0.0055                    -0.0225                  5.843890809980149E-6
0.0055                    -0.0215                  6.181336159993696E-6
0.0055                    -0.0205                  7.331042280983807E-6
0.0055                    -0.0195                  1.0240773715739386E-5
0.0055                    -0.0185                  1.67810651782461E-5
0.0055                    -0.0175                  3.066422872314918E-5
0.0055                    -0.0165                  6.427025904853153E-5
0.0055                    -0.0155                  1.5679993709017553E-4
0.0055                    -0.0145                  5.274683814899472E-4
0.0055                    -0.0135                  0.0017381668076567173
0.0055                    -0.0125                  0.005272697032260928
0.0055                    -0.0115                  0.01117263932759152
0.0055                    -0.0105                  0.015802513015651713
0.0055                    -0.0095                  0.01619171588028425
0.0055                    -0.0085                  0.012878742640559524
0.0055                    -0.0075                  0.008230807517524849
0.0055                    -0.0065                  0.00440850209318356
0.0055                    -0.0055                  0.002110163032030842
0.0055                    -0.0045                  9.48673177879121E-4
0.0055                    -0.0035                  4.074547853400223E-4
0.0055                    -0.0025                  1.8278840549178845E-4
0.0055                    -0.0015                  9.106955447815769E-5
0.0055                    -5.0E-4                  5.498734615380031E-5
0.0055                    5.0E-4                   6.266717405751904E-5
0.0055                    0.0015                   1.29438972671677E-4
0.0055                    0.0025                   3.386781101152711E-4
0.0055                    0.0035                   8.04108085914509E-4
0.0055                    0.0045                   0.001877264446588473
0.0055                    0.0055                   0.004319786287125625
0.0055                    0.0065                   0.008728618508072352
0.0055                    0.0075                   0.014247871896294687
0.0055                    0.0085                   0.018161015702673665
0.0055                    0.0095                   0.017640869254416894
0.0055                    0.0105                   0.012295643784175346
0.0055                    0.0115                   0.005716676076828796
0.0055                    0.0125                   0.0018912727219092963
0.0055                    0.0135                   6.145010879349465E-4
0.0055                    0.0145                   1.9283709333785807E-4
0.0055                    0.0155                   6.484480318775933E-5
0.0055                    0.0165                   2.6591214718044417E-5
0.0055                    0.0175                   1.3256727457036173E-5
0.0055                    0.0185                   8.462934950158807E-6
0.0055                    0.0195                   6.724420489995253E-6
0.0055                    0.0205                   6.1874129575086074E-6
0.0055                    0.0215                   6.158210364579359E-6
0.0055                    0.0225                   6.344866970919853E-6
0.0055                    0.0235                   6.615116015621999E-6
0.0055                    0.0245                   6.8973916170437965E-6
0.0055                    0.0255                   7.132498274235139E-6
0.0055                    0.0265                   7.2550781270132325E-6
0.0055                    0.0275                   7.17338335932115E-6
0.0055                    0.0285                   6.868724297404842E-6
0.0055                    0.0295                   6.166889838734374E-6
0.0055                    0.0305                   6.0061313341773834E-6
0.0055                    0.0315                   3.2712003549990816E-6
0.0065                    -0.0315                  3.0948311903365747E-6
0.0065                    -0.0305                  5.298198728844254E-6
0.0065                    -0.0295                  4.874057103463915E-6
0.0065                    -0.0285                  5.3854998564218985E-6
0.0065                    -0.0275                  5.730301259717853E-6
0.0065                    -0.0265                  6.014256416635624E-6
0.0065                    -0.0255                  6.1660782820864074E-6
0.0065                    -0.0245                  6.224625115130747E-6
0.0065                    -0.0235                  6.258544172572111E-6
0.0065                    -0.0225                  6.435650466421689E-6
0.0065                    -0.0215                  7.144777721978524E-6
0.0065                    -0.0205                  9.254241884323347E-6
0.0065                    -0.0195                  1.4686053587114629E-5
0.0065                    -0.0185                  2.8081971312158523E-5
0.0065                    -0.0175                  5.892260130036291E-5
0.0065                    -0.0165                  1.2585874309680153E-4
0.0065                    -0.0155                  3.3593827272895604E-4
0.0065                    -0.0145                  0.001043744121815111
0.0065                    -0.0135                  0.0033660499737528634
0.0065                    -0.0125                  0.008662703386901153
0.0065                    -0.0115                  0.014806836488947638
0.0065                    -0.0105                  0.017102393977163052
0.0065                    -0.0095                  0.014260210112440146
0.0065                    -0.0085                  0.008959659826601043
0.0065                    -0.0075                  0.0044426617695594245
0.0065                    -0.0065                  0.0019494023661043064
0.0065                    -0.0055                  8.684246081327485E-4