% Model:              Benchmark260518.mph
% Version:            COMSOL 6.2.0.339
% Date:               May 21 2026, 19:28
% Dimension:          2
% Nodes:              4096
% Expressions:        1
% Description:        速度大小
% Length unit:        m
% x                       y                        spf.U (m/s)
5.0E-4                    -0.0315                  1.4775880974007268E-6
5.0E-4                    -0.0305                  2.893392045820969E-6
5.0E-4                    -0.0295                  3.164054775774999E-6
5.0E-4                    -0.0285                  3.531582773025973E-6
5.0E-4                    -0.0275                  3.7095671841417954E-6
5.0E-4                    -0.0265                  3.8547274027507005E-6
5.0E-4                    -0.0255                  3.979968518694548E-6
5.0E-4                    -0.0245                  4.081732911502128E-6
5.0E-4                    -0.0235                  4.170872973178088E-6
5.0E-4                    -0.0225                  4.254925798052544E-6
5.0E-4                    -0.0215                  4.332383380176269E-6
5.0E-4                    -0.0205                  4.401018949177915E-6
5.0E-4                    -0.0195                  4.464180247638228E-6
5.0E-4                    -0.0185                  4.530033009851214E-6
5.0E-4                    -0.0175                  4.604374498709803E-6
5.0E-4                    -0.0165                  4.688711155290088E-6
5.0E-4                    -0.0155                  4.785520054174455E-6
5.0E-4                    -0.0145                  4.931290206674758E-6
5.0E-4                    -0.0135                  5.213609043390884E-6
5.0E-4                    -0.0125                  5.726495324940984E-6
5.0E-4                    -0.0115                  6.678041083126799E-6
5.0E-4                    -0.0105                  8.773884622510299E-6
5.0E-4                    -0.0095                  1.5225093268327329E-5
5.0E-4                    -0.0085                  3.5122772721386985E-5
5.0E-4                    -0.0075                  9.584955739188349E-5
5.0E-4                    -0.0065                  1.9441093023094238E-4
5.0E-4                    -0.0055                  2.672639274260868E-4
5.0E-4                    -0.0045                  2.815529545303503E-4
5.0E-4                    -0.0035                  3.174986906740338E-4
5.0E-4                    -0.0025                  8.039041645791614E-4
5.0E-4                    -0.0015                  0.0024447461883434374
5.0E-4                    -5.0E-4                  0.0055748408051633485
5.0E-4                    5.0E-4                   0.01241623005872898
5.0E-4                    0.0015                   0.014779806019874726
5.0E-4                    0.0025                   0.009567043272079651
5.0E-4                    0.0035                   0.0049310768149451465
5.0E-4                    0.0045                   0.0017589664629923047
5.0E-4                    0.0055                   4.1011696845880905E-4
5.0E-4                    0.0065                   8.418029255853946E-5
5.0E-4                    0.0075                   3.0240103961635394E-5
5.0E-4                    0.0085                   2.4752154980318332E-5
5.0E-4                    0.0095                   5.7201793919904614E-5
5.0E-4                    0.0105                   2.410099737297497E-4
5.0E-4                    0.0115                   0.0010618466140256582
5.0E-4                    0.0125                   0.0034214657073896137
5.0E-4                    0.0135                   0.007443373384788945
5.0E-4                    0.0145                   0.011584611250127117
5.0E-4                    0.0155                   0.008694113303882632
5.0E-4                    0.0165                   0.0023956388036117035
5.0E-4                    0.0175                   5.863435576765021E-4
5.0E-4                    0.0185                   1.9870988660064255E-4
5.0E-4                    0.0195                   6.270640946795796E-5
5.0E-4                    0.0205                   2.206999479771674E-5
5.0E-4                    0.0215                   9.471687364293806E-6
5.0E-4                    0.0225                   5.780634641702446E-6
5.0E-4                    0.0235                   4.784605560193512E-6
5.0E-4                    0.0245                   4.307514497384375E-6
5.0E-4                    0.0255                   3.968578351700677E-6
5.0E-4                    0.0265                   3.7615533668615834E-6
5.0E-4                    0.0275                   3.5979043877219E-6
5.0E-4                    0.0285                   3.4158658404763658E-6
5.0E-4                    0.0295                   3.079188371817961E-6
5.0E-4                    0.0305                   2.820157479427413E-6
5.0E-4                    0.0315                   1.4303839514893928E-6
0.0015                    -0.0315                  2.836338579780837E-6
0.0015                    -0.0305                  5.4912506314538195E-6
0.0015                    -0.0295                  5.7430937770729E-6
0.0015                    -0.0285                  6.0989460374281635E-6
0.0015                    -0.0275                  6.193522191919021E-6
0.0015                    -0.0265                  6.2697836846377415E-6
0.0015                    -0.0255                  6.338184814331046E-6
0.0015                    -0.0245                  6.397628134292514E-6
0.0015                    -0.0235                  6.454744761613504E-6
0.0015                    -0.0225                  6.5150009574003335E-6
0.0015                    -0.0215                  6.574730439630458E-6
0.0015                    -0.0205                  6.630194794161963E-6
0.0015                    -0.0195                  6.68444150884169E-6
0.0015                    -0.0185                  6.746674831761538E-6
0.0015                    -0.0175                  6.8255315195209115E-6
0.0015                    -0.0165                  6.928366909244518E-6
0.0015                    -0.0155                  7.071414617481671E-6
0.0015                    -0.0145                  7.319820104167764E-6
0.0015                    -0.0135                  7.818401717058204E-6
0.0015                    -0.0125                  8.794340978566546E-6
0.0015                    -0.0115                  1.0793118570941895E-5
0.0015                    -0.0105                  1.5515362297047675E-5
0.0015                    -0.0095                  2.85386303426808E-5
0.0015                    -0.0085                  6.553210382999545E-5
0.0015                    -0.0075                  1.800371834855204E-4
0.0015                    -0.0065                  3.9491032688923985E-4
0.0015                    -0.0055                  6.918466708809683E-4
0.0015                    -0.0045                  0.0012393197514048951
0.0015                    -0.0035                  0.00244507679164774
0.0015                    -0.0025                  0.00475975058127308
0.0015                    -0.0015                  0.00849939513484497
0.0015                    -5.0E-4                  0.013130020159282522
0.0015                    5.0E-4                   0.015501202354415615
0.0015                    0.0015                   0.01205900581308439
0.0015                    0.0025                   0.0061191905993529805
0.0015                    0.0035                   0.002414653058914853
0.0015                    0.0045                   7.780572576773047E-4
0.0015                    0.0055                   2.509730421184655E-4
0.0015                    0.0065                   7.186368236599845E-5
0.0015                    0.0075                   2.7996611637778932E-5
0.0015                    0.0085                   2.3763486868480423E-5
0.0015                    0.0095                   5.2754272511152556E-5
0.0015                    0.0105                   1.8121466640446838E-4
0.0015                    0.0115                   5.77480468838278E-4
0.0015                    0.0125                   0.0018782589260555526
0.0015                    0.0135                   0.0053102395391173484
0.0015                    0.0145                   0.010204172652307903
0.0015                    0.0155                   0.010566272498272895
0.0015                    0.0165                   0.005371567364532725
0.0015                    0.0175                   0.0014707690632593366
0.0015                    0.0185                   4.1469607048228466E-4
0.0015                    0.0195                   1.252704309196499E-4
0.0015                    0.0205                   4.225515736236461E-5
0.0015                    0.0215                   1.7560551290637345E-5
0.0015                    0.0225                   1.0053796086541433E-5
0.0015                    0.0235                   7.766594835303059E-6
0.0015                    0.0245                   6.854999949093586E-6
0.0015                    0.0255                   6.369372229689498E-6
0.0015                    0.0265                   6.129173275948223E-6
0.0015                    0.0275                   5.990828272417512E-6
0.0015                    0.0285                   5.874479511934108E-6
0.0015                    0.0295                   5.549033869176097E-6
0.0015                    0.0305                   5.346123344238012E-6
0.0015                    0.0315                   2.7681005605668774E-6
0.0025                    -0.0315                  2.990333471698056E-6
0.0025                    -0.0305                  5.553133374654786E-6
0.0025                    -0.0295                  5.440692620487414E-6
0.0025                    -0.0285                  5.530762967660987E-6
0.0025                    -0.0275                  5.375980871672657E-6
0.0025                    -0.0265                  5.207982218317846E-6
0.0025                    -0.0255                  5.041739095797016E-6
0.0025                    -0.0245                  4.899442246271006E-6
0.0025                    -0.0235                  4.780028991450317E-6
0.0025                    -0.0225                  4.682204870628619E-6
0.0025                    -0.0215                  4.602507771566432E-6
0.0025                    -0.0205                  4.53788828182426E-6
0.0025                    -0.0195                  4.4874902934205214E-6
0.0025                    -0.0185                  4.453883072075165E-6
0.0025                    -0.0175                  4.444814395897175E-6
0.0025                    -0.0165                  4.47730870377455E-6
0.0025                    -0.0155                  4.588682008131321E-6
0.0025                    -0.0145                  4.857278078566459E-6
0.0025                    -0.0135                  5.4484505611095994E-6
0.0025                    -0.0125                  6.7424582851961275E-6
0.0025                    -0.0115                  9.688099851599993E-6
0.0025                    -0.0105                  1.679362691453098E-5
0.0025                    -0.0095                  3.5377722105279126E-5
0.0025                    -0.0085                  8.67003158968464E-5
0.0025                    -0.0075                  2.5397879309545826E-4
0.0025                    -0.0065                  6.800521156191263E-4
0.0025                    -0.0055                  0.0016502273608703043
0.0025                    -0.0045                  0.003633233658405577
0.0025                    -0.0035                  0.006668745184693392
0.0025                    -0.0025                  0.010131390322408812
0.0025                    -0.0015                  0.01308362804102529
0.0025                    -5.0E-4                  0.014194312578319988
0.0025                    5.0E-4                   0.012213008922838024
0.0025                    0.0015                   0.007435373154675596
0.0025                    0.0025                   0.0031352525754500876
0.0025                    0.0035                   0.001224374634276342
0.0025                    0.0045                   4.586082905030288E-4
0.0025                    0.0055                   1.5171269777649368E-4
0.0025                    0.0065                   4.969666463578269E-5
0.0025                    0.0075                   2.388147611900291E-5
0.0025                    0.0085                   2.1714023000681223E-5
0.0025                    0.0095                   4.373880351298219E-5
0.0025                    0.0105                   1.2393876056516662E-4
0.0025                    0.0115                   4.1969743885315517E-4
0.0025                    0.0125                   0.0013352513561585516
0.0025                    0.0135                   0.003922066394428552
0.0025                    0.0145                   0.008482296784477154
0.0025                    0.0155                   0.010293681147103573
0.0025                    0.0165                   0.006619190466616014
0.0025                    0.0175                   0.002378553447658017
0.0025                    0.0185                   6.212487526398367E-4
0.0025                    0.0195                   1.7513866205987833E-4
0.0025                    0.0205                   5.213554974602301E-5
0.0025                    0.0215                   2.0009075498825763E-5
0.0025                    0.0225                   1.0137123394193788E-5
0.0025                    0.0235                   6.774403847235635E-6
0.0025                    0.0245                   5.6047903478663435E-6
0.0025                    0.0255                   5.219565451492492E-6
0.0025                    0.0265                   5.14082592411821E-6
0.0025                    0.0275                   5.186746247433164E-6
0.0025                    0.0285                   5.289080332327196E-6
0.0025                    0.0295                   5.20176077029282E-6
0.0025                    0.0305                   5.407360609757172E-6
0.0025                    0.0315                   2.948800774613692E-6
0.0035                    -0.0315                  3.2879659669959736E-6
0.0035                    -0.0305                  5.836748998545885E-6
0.0035                    -0.0295                  5.542041056509519E-6
0.0035                    -0.0285                  5.776304136543336E-6
0.0035                    -0.0275                  5.695227024161874E-6
0.0035                    -0.0265                  5.536300934267616E-6
0.0035                    -0.0255                  5.331055794965976E-6
0.0035                    -0.0245                  5.128161939077125E-6
0.0035                    -0.0235                  4.9406842329341236E-6
0.0035                    -0.0225                  4.7737301110833914E-6
0.0035                    -0.0215                  4.627084210998575E-6
0.0035                    -0.0205                  4.499581938356229E-6
0.0035                    -0.0195                  4.391862089188517E-6
0.0035                    -0.0185                  4.309357165931118E-6
0.0035                    -0.0175                  4.266295728316746E-6
0.0035                    -0.0165                  4.293586017756176E-6
0.0035                    -0.0155                  4.455502838472671E-6
0.0035                    -0.0145                  4.8875087115530195E-6
0.0035                    -0.0135                  5.8868196302986125E-6
0.0035                    -0.0125                  8.145756528231483E-6
0.0035                    -0.0115                  1.3377533547111246E-5
0.0035                    -0.0105                  2.6184206498996923E-5
0.0035                    -0.0095                  6.10312487205385E-5
0.0035                    -0.0085                  1.7790978495941387E-4
0.0035                    -0.0075                  5.375723717267082E-4
0.0035                    -0.0065                  0.0015619506160030063
0.0035                    -0.0055                  0.0038223830913706345
0.0035                    -0.0045                  0.00713766791067481
0.0035                    -0.0035                  0.010383920365521136
0.0035                    -0.0025                  0.012431107071521778
0.0035                    -0.0015                  0.012595204111783298
0.0035                    -5.0E-4                  0.010632639086974205
0.0035                    5.0E-4                   0.007059260647931659
0.0035                    0.0015                   0.0034791118020187544
0.0035                    0.0025                   0.0014066439793227593
0.0035                    0.0035                   5.931348223067354E-4
0.0035                    0.0045                   2.2500807694466018E-4
0.0035                    0.0055                   8.402506926320237E-5
0.0035                    0.0065                   3.509251127169229E-5
0.0035                    0.0075                   1.9468256929669652E-5
0.0035                    0.0085                   1.8562622264253437E-5
0.0035                    0.0095                   3.331536780394028E-5
0.0035                    0.0105                   8.565780804621151E-5
0.0035                    0.0115                   2.9065955125513065E-4
0.0035                    0.0125                   9.769688062779638E-4
0.0035                    0.0135                   0.0029946257714669336
0.0035                    0.0145                   0.0071195921888266836
0.0035                    0.0155                   0.009992841699656314
0.0035                    0.0165                   0.007782173378711973
0.0035                    0.0175                   0.0034455734871002295
0.0035                    0.0185                   0.0010033547732339193
0.0035                    0.0195                   2.7745357384340773E-4
0.0035                    0.0205                   7.561597634719966E-5
0.0035                    0.0215                   2.774299880344329E-5
0.0035                    0.0225                   1.2902990705525298E-5
0.0035                    0.0235                   7.903918562791477E-6
0.0035                    0.0245                   6.14300431216812E-6
0.0035                    0.0255                   5.566509515802777E-6
0.0035                    0.0265                   5.433827432599977E-6
0.0035                    0.0275                   5.438633370061354E-6
0.0035                    0.0285                   5.466422838938895E-6
0.0035                    0.0295                   5.257068806920386E-6
0.0035                    0.0305                   5.693599780281381E-6
0.0035                    0.0315                   3.2598260974592933E-6
0.0045                    -0.0315                  3.450914115752136E-6
0.0045                    -0.0305                  5.944042547956944E-6
0.0045                    -0.0295                  5.473813611875211E-6
0.0045                    -0.0285                  5.793616302493654E-6
0.0045                    -0.0275                  5.836659139805945E-6
0.0045                    -0.0265                  5.758213079301714E-6
0.0045                    -0.0255                  5.5738191566684915E-6
0.0045                    -0.0245                  5.350250933388598E-6
0.0045                    -0.0235                  5.118551204781659E-6
0.0045                    -0.0225                  4.895590240054717E-6
0.0045                    -0.0215                  4.68820944903208E-6
0.0045                    -0.0205                  4.500121624047745E-6
0.0045                    -0.0195                  4.3364737729450356E-6
0.0045                    -0.0185                  4.2092100177747324E-6
0.0045                    -0.0175                  4.144824642297067E-6
0.0045                    -0.0165                  4.198646206613445E-6
0.0045                    -0.0155                  4.485125944226576E-6
0.0045                    -0.0145                  5.248564782074995E-6
0.0045                    -0.0135                  7.0392017814304375E-6
0.0045                    -0.0125                  1.1188409079101111E-5
0.0045                    -0.0115                  2.1151102483805016E-5
0.0045                    -0.0105                  4.7443631971116897E-5
0.0045                    -0.0095                  1.2588976769261958E-4
0.0045                    -0.0085                  3.880115939669284E-4
0.0045                    -0.0075                  0.0011704198692928062
0.0045                    -0.0065                  0.0032742036325906832
0.0045                    -0.0055                  0.006820921111949635
0.0045                    -0.0045                  0.010157050028130592
0.0045                    -0.0035                  0.011665859643403657
0.0045                    -0.0025                  0.011030640060616794
0.0045                    -0.0015                  0.008740595487194506
0.0045                    -5.0E-4                  0.005716642716387198
0.0045                    5.0E-4                   0.0030274036803616122
0.0045                    0.0015                   0.001365655446842184
0.0045                    0.0025                   6.053537582076081E-4
0.0045                    0.0035                   2.6557720434583227E-4
0.0045                    0.0045                   1.1148980356998584E-4
0.0045                    0.0055                   5.06465312759753E-5
0.0045                    0.0065                   2.5785874123230963E-5
0.0045                    0.0075                   1.604250588480534E-5
0.0045                    0.0085                   1.5606735721316778E-5
0.0045                    0.0095                   2.5981019859312607E-5
0.0045                    0.0105                   6.307902487777293E-5
0.0045                    0.0115                   2.041713567937408E-4
0.0045                    0.0125                   6.892638024514846E-4
0.0045                    0.0135                   0.0022350543464073743
0.0045                    0.0145                   0.005909207335445633
0.0045                    0.0155                   0.009529467463931109
0.0045                    0.0165                   0.008742109148393223
0.0045                    0.0175                   0.004604629059832142
0.0045                    0.0185                   0.0015236691362141405
0.0045                    0.0195                   4.253341327702212E-4
0.0045                    0.0205                   1.1696536438654529E-4
0.0045                    0.0215                   4.0030185890518833E-5
0.0045                    0.0225                   1.6806291012306824E-5
0.0045                    0.0235                   9.386067749411424E-6
0.0045                    0.0245                   6.783710263573162E-6
0.0045                    0.0255                   5.894274327101644E-6
0.0045                    0.0265                   5.619226112863822E-6
0.0045                    0.0275                   5.508781202267153E-6
0.0045                    0.0285                   5.419166846661977E-6
0.0045                    0.0295                   5.145469909801162E-6
0.0045                    0.0305                   5.815616909610225E-6
0.0045                    0.0315                   3.447581583143872E-6
0.0055                    -0.0315                  3.61036924073539E-6
0.0055                    -0.0305                  6.083786696637005E-6
0.0055                    -0.0295                  5.450861036580812E-6
0.0055                    -0.0285                  5.810845239768923E-6
0.0055                    -0.0275                  5.957531782045436E-6
0.0055                    -0.0265                  5.987035192597328E-6
0.0055                    -0.0255                  5.870955702730712E-6
0.0055                    -0.0245                  5.670663993186659E-6
0.0055                    -0.0235                  5.427954967106765E-6
0.0055                    -0.0225                  5.172111883640187E-6
0.0055                    -0.0215                  4.919717021059558E-6
0.0055                    -0.0205                  4.682453567618194E-6
0.0055                    -0.0195                  4.474009392127616E-6
0.0055                    -0.0185                  4.318972200139621E-6
0.0055                    -0.0175                  4.266702641969524E-6
0.0055                    -0.0165                  4.417518343980322E-6
0.0055                    -0.0155                  4.980274835000807E-6
0.0055                    -0.0145                  6.412729453636448E-6
0.0055                    -0.0135                  9.799380982152316E-6
0.0055                    -0.0125                  1.7917093140327236E-5
0.0055                    -0.0115                  3.896098328973188E-5
0.0055                    -0.0105                  9.888025274351544E-5
0.0055                    -0.0095                  2.8593033494428915E-4
0.0055                    -0.0085                  8.321859933788343E-4
0.0055                    -0.0075                  0.002424544084553921
0.0055                    -0.0065                  0.005809912284240381
0.0055                    -0.0055                  0.009722832634400012
0.0055                    -0.0045                  0.011557888954265459
0.0055                    -0.0035                  0.010488080131528904
0.0055                    -0.0025                  0.007632996217316001
0.0055                    -0.0015                  0.004585050745996173
0.0055                    -5.0E-4                  0.0023639557158141294
0.0055                    5.0E-4                   0.0011260919657402589
0.0055                    0.0015                   5.394684306943814E-4
0.0055                    0.0025                   2.6028709158406433E-4
0.0055                    0.0035                   1.2595791176586168E-4
0.0055                    0.0045                   6.375583533691828E-5
0.0055                    0.0055                   3.389924467893513E-5
0.0055                    0.0065                   1.9435950396123843E-5
0.0055                    0.0075                   1.342555400371498E-5
0.0055                    0.0085                   1.3438387401219544E-5
0.0055                    0.0095                   2.111372625645311E-5
0.0055                    0.0105                   4.806766742191296E-5
0.0055                    0.0115                   1.385356757170076E-4
0.0055                    0.0125                   4.704354102132184E-4
0.0055                    0.0135                   0.001600385052746949
0.0055                    0.0145                   0.004693027190308091
0.0055                    0.0155                   0.008765404467730505
0.0055                    0.0165                   0.009463030638003371
0.0055                    0.0175                   0.005880620170931919
0.0055                    0.0185                   0.002233050518000623
0.0055                    0.0195                   6.565825848382876E-4
0.0055                    0.0205                   1.9024096762702413E-4
0.0055                    0.0215                   5.782422089079993E-5
0.0055                    0.0225                   2.2499709881826725E-5
0.0055                    0.0235                   1.1460682742752813E-5
0.0055                    0.0245                   7.638818488214903E-6
0.0055                    0.0255                   6.279029884854289E-6
0.0055                    0.0265                   5.786419721169746E-6
0.0055                    0.0275                   5.531689095801129E-6
0.0055                    0.0285                   5.3510459220434295E-6
0.0055                    0.0295                   5.063044799026967E-6
0.0055                    0.0305                   5.957736183047872E-6
0.0055                    0.0315                   3.6248937430961476E-6
0.0065                    -0.0315                  3.770083220802497E-6
0.0065                    -0.0305                  6.247786204530252E-6
0.0065                    -0.0295                  5.462683103334401E-6
0.0065                    -0.0285                  5.826039909787369E-6
0.0065                    -0.0275                  6.0330601526588495E-6
0.0065                    -0.0265                  6.149424727573337E-6
0.0065                    -0.0255                  6.108944753743936E-6
0.0065                    -0.0245                  5.952572490851649E-6
0.0065                    -0.0235                  5.7201710405352374E-6
0.0065                    -0.0225                  5.448641910750463E-6
0.0065                    -0.0215                  5.164803408667412E-6
0.0065                    -0.0205                  4.891526369882513E-6
0.0065                    -0.0195                  4.656680903863221E-6
0.0065                    -0.0185                  4.50724121121675E-6
0.0065                    -0.0175                  4.53344503106369E-6
0.0065                    -0.0165                  4.917583019163232E-6
0.0065                    -0.0155                  6.046553353921515E-6
0.0065                    -0.0145                  8.813731118639754E-6
0.0065                    -0.0135                  1.5477737794220416E-5
0.0065                    -0.0125                  3.2628616761716934E-5
0.0065                    -0.0115                  8.05184986747914E-5
0.0065                    -0.0105                  2.2441959674932252E-4
0.0065                    -0.0095                  6.313380394049697E-4
0.0065                    -0.0085                  0.0017594145665413001
0.0065                    -0.0075                  0.00453383803586416
0.0065                    -0.0065                  0.008676392305839309
0.0065                    -0.0055                  0.01154096281524305