% Model:              Benchmark260518.mph
% Version:            COMSOL 6.2.0.339
% Date:               May 19 2026, 23:08
% Dimension:          2
% Nodes:              4096
% Expressions:        1
% Description:        速度大小
% Length unit:        m
% x                       y                        spf.U (m/s)
5.0E-4                    -0.0315                  1.045433427105276E-6
5.0E-4                    -0.0305                  2.0806447912841427E-6
5.0E-4                    -0.0295                  2.247718387748703E-6
5.0E-4                    -0.0285                  2.4876085818108716E-6
5.0E-4                    -0.0275                  2.672907102474883E-6
5.0E-4                    -0.0265                  2.803891223176869E-6
5.0E-4                    -0.0255                  2.9120887512224397E-6
5.0E-4                    -0.0245                  3.0174778805935373E-6
5.0E-4                    -0.0235                  3.1193036748063613E-6
5.0E-4                    -0.0225                  3.2271655228770262E-6
5.0E-4                    -0.0215                  3.3412270330836504E-6
5.0E-4                    -0.0205                  3.4611185480820632E-6
5.0E-4                    -0.0195                  3.5805973624882485E-6
5.0E-4                    -0.0185                  3.6789023655856124E-6
5.0E-4                    -0.0175                  3.740227827287348E-6
5.0E-4                    -0.0165                  3.7648577811079393E-6
5.0E-4                    -0.0155                  3.8097820909750653E-6
5.0E-4                    -0.0145                  3.836894289439853E-6
5.0E-4                    -0.0135                  4.0014866771358645E-6
5.0E-4                    -0.0125                  4.693626712986197E-6
5.0E-4                    -0.0115                  6.063631653500584E-6
5.0E-4                    -0.0105                  8.080613565286075E-6
5.0E-4                    -0.0095                  1.0642170105971764E-5
5.0E-4                    -0.0085                  1.4972115297482753E-5
5.0E-4                    -0.0075                  2.7315177472793956E-5
5.0E-4                    -0.0065                  7.535218292282979E-5
5.0E-4                    -0.0055                  1.8730401888188554E-4
5.0E-4                    -0.0045                  3.6420130869186713E-4
5.0E-4                    -0.0035                  8.986527094247959E-4
5.0E-4                    -0.0025                  0.0015373615119647418
5.0E-4                    -0.0015                  0.033584392357134084
5.0E-4                    -5.0E-4                  0.07266636716498069
5.0E-4                    5.0E-4                   0.07266955600066409
5.0E-4                    0.0015                   0.03358853610491331
5.0E-4                    0.0025                   0.0015380399795229423
5.0E-4                    0.0035                   8.988421278812929E-4
5.0E-4                    0.0045                   3.64208148835148E-4
5.0E-4                    0.0055                   1.8732273934471332E-4
5.0E-4                    0.0065                   7.536127624999018E-5
5.0E-4                    0.0075                   2.731777903853987E-5
5.0E-4                    0.0085                   1.4972794091220643E-5
5.0E-4                    0.0095                   1.0642200149218148E-5
5.0E-4                    0.0105                   8.080464957566478E-6
5.0E-4                    0.0115                   6.063432175521877E-6
5.0E-4                    0.0125                   4.693401481928608E-6
5.0E-4                    0.0135                   4.001211237047869E-6
5.0E-4                    0.0145                   3.836599690982017E-6
5.0E-4                    0.0155                   3.8095402721110978E-6
5.0E-4                    0.0165                   3.764673172217844E-6
5.0E-4                    0.0175                   3.7400617180993686E-6
5.0E-4                    0.0185                   3.6787225760725206E-6
5.0E-4                    0.0195                   3.5804069033357408E-6
5.0E-4                    0.0205                   3.4609362622283607E-6
5.0E-4                    0.0215                   3.3410436091203714E-6
5.0E-4                    0.0225                   3.226969764189241E-6
5.0E-4                    0.0235                   3.1190995148442946E-6
5.0E-4                    0.0245                   3.017266826868129E-6
5.0E-4                    0.0255                   2.9118762083557946E-6
5.0E-4                    0.0265                   2.80369029195992E-6
5.0E-4                    0.0275                   2.6727156719005744E-6
5.0E-4                    0.0285                   2.4874132055637915E-6
5.0E-4                    0.0295                   2.247539640868819E-6
5.0E-4                    0.0305                   2.0804989552616463E-6
5.0E-4                    0.0315                   1.0453646212743958E-6
0.0015                    -0.0315                  2.0475231364062297E-6
0.0015                    -0.0305                  4.07272456504543E-6
0.0015                    -0.0295                  4.343149155662665E-6
0.0015                    -0.0285                  4.6321618502009465E-6
0.0015                    -0.0275                  4.780107042808226E-6
0.0015                    -0.0265                  4.878685035127217E-6
0.0015                    -0.0255                  4.958103117867307E-6
0.0015                    -0.0245                  5.047363207907487E-6
0.0015                    -0.0235                  5.147631311512275E-6
0.0015                    -0.0225                  5.2702878406355205E-6
0.0015                    -0.0215                  5.419269808444728E-6
0.0015                    -0.0205                  5.596952823472366E-6
0.0015                    -0.0195                  5.796884880009536E-6
0.0015                    -0.0185                  5.995256207256491E-6
0.0015                    -0.0175                  6.174059239751654E-6
0.0015                    -0.0165                  6.352990363703035E-6
0.0015                    -0.0155                  6.655138114909675E-6
0.0015                    -0.0145                  7.2577632237875826E-6
0.0015                    -0.0135                  8.778932857567014E-6
0.0015                    -0.0125                  1.2243847886726863E-5
0.0015                    -0.0115                  1.8330429628991938E-5
0.0015                    -0.0105                  2.800149830292191E-5
0.0015                    -0.0095                  4.213308426723454E-5
0.0015                    -0.0085                  6.100748210829868E-5
0.0015                    -0.0075                  9.978884404247441E-5
0.0015                    -0.0065                  2.446478137386856E-4
0.0015                    -0.0055                  5.845019408957794E-4
0.0015                    -0.0045                  0.001141134156305914
0.0015                    -0.0035                  0.002227014352223441
0.0015                    -0.0025                  0.003791621812091246
0.0015                    -0.0015                  0.03617531641610885
0.0015                    -5.0E-4                  0.07134250706133405
0.0015                    5.0E-4                   0.07134658998832874
0.0015                    0.0015                   0.036182115871837006
0.0015                    0.0025                   0.003793631069552911
0.0015                    0.0035                   0.0022274796675922784
0.0015                    0.0045                   0.0011411790513509799
0.0015                    0.0055                   5.845356160771843E-4
0.0015                    0.0065                   2.446686053799634E-4
0.0015                    0.0075                   9.979753438598504E-5
0.0015                    0.0085                   6.1011651008057706E-5
0.0015                    0.0095                   4.213506581762995E-5
0.0015                    0.0105                   2.8002281034095037E-5
0.0015                    0.0115                   1.8330657020161284E-5
0.0015                    0.0125                   1.224378333023978E-5
0.0015                    0.0135                   8.778683473849492E-6
0.0015                    0.0145                   7.2574519063750164E-6
0.0015                    0.0155                   6.654879715757072E-6
0.0015                    0.0165                   6.3528081238350156E-6
0.0015                    0.0175                   6.17391181713219E-6
0.0015                    0.0185                   5.995098528044441E-6
0.0015                    0.0195                   5.796707527256673E-6
0.0015                    0.0205                   5.596766452634595E-6
0.0015                    0.0215                   5.419062711282584E-6
0.0015                    0.0225                   5.270048518525813E-6
0.0015                    0.0235                   5.147364403873456E-6
0.0015                    0.0245                   5.047072602733151E-6
0.0015                    0.0255                   4.957796671277478E-6
0.0015                    0.0265                   4.878377085129354E-6
0.0015                    0.0275                   4.779795651316545E-6
0.0015                    0.0285                   4.6318347662473366E-6
0.0015                    0.0295                   4.342834194191876E-6
0.0015                    0.0305                   4.072447726254699E-6
0.0015                    0.0315                   2.0473885863010266E-6
0.0025                    -0.0315                  2.1025128612349383E-6
0.0025                    -0.0305                  4.17335643800297E-6
0.0025                    -0.0295                  4.482416342594375E-6
0.0025                    -0.0285                  4.715463019731907E-6
0.0025                    -0.0275                  4.6765007433039305E-6
0.0025                    -0.0265                  4.599388457232314E-6
0.0025                    -0.0255                  4.51045700884152E-6
0.0025                    -0.0245                  4.4416208186501925E-6
0.0025                    -0.0235                  4.403153379652247E-6
0.0025                    -0.0225                  4.403597113024249E-6
0.0025                    -0.0215                  4.45321173168778E-6
0.0025                    -0.0205                  4.5622174036340895E-6
0.0025                    -0.0195                  4.737816276768609E-6
0.0025                    -0.0185                  4.984176291052724E-6
0.0025                    -0.0175                  5.312679161747809E-6
0.0025                    -0.0165                  5.781437052123728E-6
0.0025                    -0.0155                  6.589695400082413E-6
0.0025                    -0.0145                  8.36186678877662E-6
0.0025                    -0.0135                  1.2727795503070792E-5
0.0025                    -0.0125                  2.2887853964106927E-5
0.0025                    -0.0115                  4.1168555898306096E-5
0.0025                    -0.0105                  6.744555471911594E-5
0.0025                    -0.0095                  1.1756160279740538E-4
0.0025                    -0.0085                  1.999994424351098E-4
0.0025                    -0.0075                  3.318176912819247E-4
0.0025                    -0.0065                  7.377789026706073E-4
0.0025                    -0.0055                  0.0016591981603765972
0.0025                    -0.0045                  0.0027572554382266244
0.0025                    -0.0035                  0.003488324168689223
0.0025                    -0.0025                  0.005927418017372354
0.0025                    -0.0015                  0.038341972203796704
0.0025                    -5.0E-4                  0.06927626643714355
0.0025                    5.0E-4                   0.06928105010299766
0.0025                    0.0015                   0.03835143274746753
0.0025                    0.0025                   0.005931236862664537
0.0025                    0.0035                   0.0034886613305839973
0.0025                    0.0045                   0.00275734889485393
0.0025                    0.0055                   0.0016592351936075705
0.0025                    0.0065                   7.378224879800005E-4
0.0025                    0.0075                   3.31853970653187E-4
0.0025                    0.0085                   2.0002380818328128E-4
0.0025                    0.0095                   1.175725295647035E-4
0.0025                    0.0105                   6.744934505497371E-5
0.0025                    0.0115                   4.1170092157553846E-5
0.0025                    0.0125                   2.28884008113893E-5
0.0025                    0.0135                   1.2727979920428698E-5
0.0025                    0.0145                   8.36196067991786E-6
0.0025                    0.0155                   6.589795799300723E-6
0.0025                    0.0165                   5.7815717045627015E-6
0.0025                    0.0175                   5.312835932717298E-6
0.0025                    0.0185                   4.9843282448399046E-6
0.0025                    0.0195                   4.737939248105151E-6
0.0025                    0.0205                   4.562295200118773E-6
0.0025                    0.0215                   4.453236948516091E-6
0.0025                    0.0225                   4.403567895941829E-6
0.0025                    0.0235                   4.403071400019606E-6
0.0025                    0.0245                   4.441490430905288E-6
0.0025                    0.0255                   4.51028321922716E-6
0.0025                    0.0265                   4.599174897459103E-6
0.0025                    0.0275                   4.6762497886194725E-6
0.0025                    0.0285                   4.71518085199315E-6
0.0025                    0.0295                   4.482126229254939E-6
0.0025                    0.0305                   4.173079482800514E-6
0.0025                    0.0315                   2.1023725310714332E-6
0.0035                    -0.0315                  2.1778651105745304E-6
0.0035                    -0.0305                  4.259583005643211E-6
0.0035                    -0.0295                  4.633999528732217E-6
0.0035                    -0.0285                  5.050821565319968E-6
0.0035                    -0.0275                  5.100334246575413E-6
0.0035                    -0.0265                  5.034549377452325E-6
0.0035                    -0.0255                  4.913412055997636E-6
0.0035                    -0.0245                  4.791665024141727E-6
0.0035                    -0.0235                  4.692904429067929E-6
0.0035                    -0.0225                  4.636308480660697E-6
0.0035                    -0.0215                  4.641715495302563E-6
0.0035                    -0.0205                  4.734598806493522E-6
0.0035                    -0.0195                  4.9468977717926175E-6
0.0035                    -0.0185                  5.318279774343519E-6
0.0035                    -0.0175                  5.907161115858131E-6
0.0035                    -0.0165                  6.839604455034881E-6
0.0035                    -0.0155                  8.479152919073959E-6
0.0035                    -0.0145                  1.1940797540220564E-5
0.0035                    -0.0135                  2.040209325722144E-5
0.0035                    -0.0125                  4.2816354936252635E-5
0.0035                    -0.0115                  9.467640901918415E-5
0.0035                    -0.0105                  1.5654931542802896E-4
0.0035                    -0.0095                  2.4937590264873975E-4
0.0035                    -0.0085                  5.038449612337675E-4
0.0035                    -0.0075                  0.0011465393723446098
0.0035                    -0.0065                  0.0023390394369313693
0.0035                    -0.0055                  0.0037701892054334196
0.0035                    -0.0045                  0.004547862542274785
0.0035                    -0.0035                  0.00338724956481097
0.0035                    -0.0025                  0.010201061118398412
0.0035                    -0.0015                  0.04088944860147094
0.0035                    -5.0E-4                  0.06542686317433716
0.0035                    5.0E-4                   0.06543171475751793
0.0035                    0.0015                   0.040900985840225
0.0035                    0.0025                   0.010208557278385514
0.0035                    0.0035                   0.0033861724050443316
0.0035                    0.0045                   0.004548028962060893
0.0035                    0.0055                   0.003770413937913292
0.0035                    0.0065                   0.0023393039322062215
0.0035                    0.0075                   0.0011467485293360734
0.0035                    0.0085                   5.039609825269028E-4
0.0035                    0.0095                   2.4941515296352136E-4
0.0035                    0.0105                   1.5655714821181786E-4
0.0035                    0.0115                   9.467843481929089E-5
0.0035                    0.0125                   4.281737928915993E-5
0.0035                    0.0135                   2.0402800056598115E-5
0.0035                    0.0145                   1.1941344973279929E-5
0.0035                    0.0155                   8.479628699437506E-6
0.0035                    0.0165                   6.840034245370417E-6
0.0035                    0.0175                   5.907541265460877E-6
0.0035                    0.0185                   5.318599322272105E-6
0.0035                    0.0195                   4.947147570956533E-6
0.0035                    0.0205                   4.734773533912688E-6
0.0035                    0.0215                   4.641813387735017E-6
0.0035                    0.0225                   4.6363312803592E-6
0.0035                    0.0235                   4.692856383344149E-6
0.0035                    0.0245                   4.791551540481082E-6
0.0035                    0.0255                   4.9132388353123554E-6
0.0035                    0.0265                   5.034322100883026E-6
0.0035                    0.0275                   5.100060086964807E-6
0.0035                    0.0285                   5.050512662814073E-6
0.0035                    0.0295                   4.633683367132049E-6
0.0035                    0.0305                   4.259274624987358E-6
0.0035                    0.0315                   2.1777031325665743E-6
0.0045                    -0.0315                  2.2340328309166027E-6
0.0045                    -0.0305                  4.264201067501439E-6
0.0045                    -0.0295                  4.568084174985755E-6
0.0045                    -0.0285                  5.082754935905364E-6
0.0045                    -0.0275                  5.248734134631633E-6
0.0045                    -0.0265                  5.254928248379235E-6
0.0045                    -0.0255                  5.152769555504328E-6
0.0045                    -0.0245                  5.014051881099937E-6
0.0045                    -0.0235                  4.877800268854896E-6
0.0045                    -0.0225                  4.775534245856973E-6
0.0045                    -0.0215                  4.738920367791829E-6
0.0045                    -0.0205                  4.809956097915527E-6
0.0045                    -0.0195                  5.049439846104706E-6
0.0045                    -0.0185                  5.549238865134783E-6
0.0045                    -0.0175                  6.455664821834461E-6
0.0045                    -0.0165                  8.049621682255306E-6
0.0045                    -0.0155                  1.1026676071041316E-5
0.0045                    -0.0145                  1.7332763192935772E-5
0.0045                    -0.0135                  3.242862285891599E-5
0.0045                    -0.0125                  7.393239202270256E-5
0.0045                    -0.0115                  1.7980528365818738E-4
0.0045                    -0.0105                  3.025894086692834E-4
0.0045                    -0.0095                  4.398754109057975E-4
0.0045                    -0.0085                  0.001011990940396981
0.0045                    -0.0075                  0.002042705622871622
0.0045                    -0.0065                  0.002851882525217369
0.0045                    -0.0055                  0.0027488591381644024
0.0045                    -0.0045                  0.0013520877613003278
0.0045                    -0.0035                  0.005220764449363621
0.0045                    -0.0025                  0.019267251776875015
0.0045                    -0.0015                  0.042196535614977035
0.0045                    -5.0E-4                  0.05800779220261253
0.0045                    5.0E-4                   0.05801227240507967
0.0045                    0.0015                   0.04220813557627042
0.0045                    0.0025                   0.019277696192691554
0.0045                    0.0035                   0.005224754854877263
0.0045                    0.0045                   0.001351231356082848
0.0045                    0.0055                   0.0027491266436052916
0.0045                    0.0065                   0.0028525932671669505
0.0045                    0.0075                   0.0020433539024071437
0.0045                    0.0085                   0.0010123629634733059
0.0045                    0.0095                   4.399364730578078E-4
0.0045                    0.0105                   3.0256517030751606E-4
0.0045                    0.0115                   1.7980039925226342E-4
0.0045                    0.0125                   7.393474565219563E-5
0.0045                    0.0135                   3.243072971320057E-5
0.0045                    0.0145                   1.733425769037323E-5
0.0045                    0.0155                   1.1027751543895995E-5
0.0045                    0.0165                   8.050434224838666E-6
0.0045                    0.0175                   6.456291083921762E-6
0.0045                    0.0185                   5.549720289090615E-6
0.0045                    0.0195                   5.049800163241626E-6
0.0045                    0.0205                   4.8102085985641165E-6
0.0045                    0.0215                   4.739072713807232E-6
0.0045                    0.0225                   4.775592291859463E-6
0.0045                    0.0235                   4.877770030220274E-6
0.0045                    0.0245                   5.013940223162198E-6
0.0045                    0.0255                   5.1525843433744666E-6
0.0045                    0.0265                   5.254679278094948E-6
0.0045                    0.0275                   5.2484346799375136E-6
0.0045                    0.0285                   5.082420674252163E-6
0.0045                    0.0295                   4.56773492085759E-6
0.0045                    0.0305                   4.2638151179890035E-6
0.0045                    0.0315                   2.2338101193010686E-6
0.0055                    -0.0315                  2.314413532655197E-6
0.0055                    -0.0305                  4.314106407744349E-6
0.0055                    -0.0295                  4.504432185332124E-6
0.0055                    -0.0285                  5.045540723171806E-6
0.0055                    -0.0275                  5.291463055696698E-6
0.0055                    -0.0265                  5.3833949735622345E-6
0.0055                    -0.0255                  5.3351242973396936E-6
0.0055                    -0.0245                  5.214837308858945E-6
0.0055                    -0.0235                  5.070677479840231E-6
0.0055                    -0.0225                  4.9454530998170655E-6
0.0055                    -0.0215                  4.882773170422926E-6
0.0055                    -0.0205                  4.942161794522918E-6
0.0055                    -0.0195                  5.2185400501865805E-6
0.0055                    -0.0185                  5.876808354671427E-6
0.0055                    -0.0175                  7.227449159349429E-6
0.0055                    -0.0165                  9.879219691276489E-6
0.0055                    -0.0155                  1.5163113688376654E-5
0.0055                    -0.0145                  2.6502252011173663E-5
0.0055                    -0.0135                  5.3173576601128145E-5
0.0055                    -0.0125                  1.2514259553751068E-4
0.0055                    -0.0115                  3.435505512534125E-4
0.0055                    -0.0105                  6.29563476906046E-4
0.0055                    -0.0095                  9.214434732214067E-4
0.0055                    -0.0085                  0.0017254206331339893
0.0055                    -0.0075                  0.0037806127795657935
0.0055                    -0.0065                  0.007368937883439774
0.0055                    -0.0055                  0.01173612569376756
0.0055                    -0.0045                  0.0167197503345427
0.0055                    -0.0035                  0.02303114245449929
0.0055                    -0.0025                  0.030940793724513346
0.0055                    -0.0015                  0.0399319044963315
0.0055                    -5.0E-4                  0.045896866813937356
0.0055                    5.0E-4                   0.04590065345990742
0.0055                    0.0015                   0.039941075476305626
0.0055                    0.0025                   0.03094973289112907
0.0055                    0.0035                   0.023036572646999185
0.0055                    0.0045                   0.01672159623064464
0.0055                    0.0055                   0.011735697061173509
0.0055                    0.0065                   0.007367515684826123
0.0055                    0.0075                   0.0037791584149652734
0.0055                    0.0085                   0.0017247750339918523
0.0055                    0.0095                   9.21241495104015E-4
0.0055                    0.0105                   6.294433657323314E-4
0.0055                    0.0115                   3.4354254340531566E-4
0.0055                    0.0125                   1.2515024501681614E-4
0.0055                    0.0135                   5.317905757699748E-5
0.0055                    0.0145                   2.650558035842972E-5
0.0055                    0.0155                   1.5165159255814761E-5
0.0055                    0.0165                   9.880541396778086E-6
0.0055                    0.0175                   7.228342103435401E-6
0.0055                    0.0185                   5.877431550075963E-6
0.0055                    0.0195                   5.218977017630661E-6
0.0055                    0.0205                   4.94245411717078E-6
0.0055                    0.0215                   4.882941516359554E-6
0.0055                    0.0225                   4.945509083294199E-6
0.0055                    0.0235                   5.070630063722014E-6
0.0055                    0.0245                   5.214695970816992E-6
0.0055                    0.0255                   5.334900764151031E-6
0.0055                    0.0265                   5.383104434482099E-6
0.0055                    0.0275                   5.291124462842006E-6
0.0055                    0.0285                   5.045169496580148E-6
0.0055                    0.0295                   4.504039248166646E-6
0.0055                    0.0305                   4.313574067665507E-6
0.0055                    0.0315                   2.3140638864733204E-6
0.0065                    -0.0315                  2.4017145190738635E-6
0.0065                    -0.0305                  4.382777443141024E-6
0.0065                    -0.0295                  4.449116269139276E-6
0.0065                    -0.0285                  4.974494164535338E-6
0.0065                    -0.0275                  5.2517804083197375E-6
0.0065                    -0.0265                  5.403487246810112E-6
0.0065                    -0.0255                  5.4114537104625086E-6
0.0065                    -0.0245                  5.327069954716274E-6
0.0065                    -0.0235                  5.197255421643724E-6
0.0065                    -0.0225                  5.072283090687484E-6
0.0065                    -0.0215                  5.007550255549814E-6
0.0065                    -0.0205                  5.083473551886807E-6
0.0065                    -0.0195                  5.442694338863284E-6
0.0065                    -0.0185                  6.368141186573027E-6
0.0065                    -0.0175                  8.46551086298966E-6
0.0065                    -0.0165                  1.3097593512818746E-5
0.0065                    -0.0155                  2.3156784192883755E-5
0.0065                    -0.0145                  4.4610255509393626E-5
0.0065                    -0.0135                  9.601660895305845E-5
0.0065                    -0.0125                  2.2959649067793433E-4
0.0065                    -0.0115                  6.836538253440297E-4
0.0065                    -0.0105                  0.0016521887322717799
0.0065                    -0.0095                  0.004077815479750731
0.0065                    -0.0085                  0.009064826165190637
0.0065                    -0.0075                  0.01580825157213186
0.0065                    -0.0065                  0.022672911791807557
0.0065                    -0.0055                  0.02871650381315715