% Model:              Benchmark260518.mph
% Version:            COMSOL 6.2.0.339
% Date:               May 19 2026, 18:32
% Dimension:          2
% Nodes:              4096
% Expressions:        1
% Description:        速度大小
% Length unit:        m
% x                       y                        spf.U (m/s)
5.0E-4                    -0.0315                  1.9860113433277195E-6
5.0E-4                    -0.0305                  3.988993221340762E-6
5.0E-4                    -0.0295                  4.5381050658156934E-6
5.0E-4                    -0.0285                  5.212048454131818E-6
5.0E-4                    -0.0275                  5.739144446213118E-6
5.0E-4                    -0.0265                  6.341260736398533E-6
5.0E-4                    -0.0255                  6.971872259126963E-6
5.0E-4                    -0.0245                  7.641846768364421E-6
5.0E-4                    -0.0235                  8.308842535835222E-6
5.0E-4                    -0.0225                  8.970128459531106E-6
5.0E-4                    -0.0215                  9.683682903731257E-6
5.0E-4                    -0.0205                  1.0619141584791832E-5
5.0E-4                    -0.0195                  1.2328915083150823E-5
5.0E-4                    -0.0185                  1.554066418473604E-5
5.0E-4                    -0.0175                  2.4301749983717914E-5
5.0E-4                    -0.0165                  5.2961048400822294E-5
5.0E-4                    -0.0155                  1.4309810278181816E-4
5.0E-4                    -0.0145                  2.641795565579726E-4
5.0E-4                    -0.0135                  3.1482780920307396E-4
5.0E-4                    -0.0125                  2.937030383422939E-4
5.0E-4                    -0.0115                  3.146036808456817E-4
5.0E-4                    -0.0105                  5.45116219666623E-4
5.0E-4                    -0.0095                  0.001030052485220295
5.0E-4                    -0.0085                  0.001724236623127997
5.0E-4                    -0.0075                  0.002534817354462304
5.0E-4                    -0.0065                  0.0033466447696388155
5.0E-4                    -0.0055                  0.004063902430142496
5.0E-4                    -0.0045                  0.004621885779380473
5.0E-4                    -0.0035                  0.0049965350826542704
5.0E-4                    -0.0025                  0.00519396277125328
5.0E-4                    -0.0015                  0.005231847187682587
5.0E-4                    -5.0E-4                  0.005126039987225532
5.0E-4                    5.0E-4                   0.004882717925786331
5.0E-4                    0.0015                   0.004498043986844097
5.0E-4                    0.0025                   0.003967248951285782
5.0E-4                    0.0035                   0.0032952157839096843
5.0E-4                    0.0045                   0.002510963933272342
5.0E-4                    0.0055                   0.001666111458218327
5.0E-4                    0.0065                   8.531932901990112E-4
5.0E-4                    0.0075                   5.014332436976882E-4
5.0E-4                    0.0085                   9.68308222977766E-4
5.0E-4                    0.0095                   0.0014168373139385325
5.0E-4                    0.0105                   0.0016672354885043114
5.0E-4                    0.0115                   0.0017269276679994156
5.0E-4                    0.0125                   0.0016232902883682651
5.0E-4                    0.0135                   0.0013318214699673254
5.0E-4                    0.0145                   8.803245417546862E-4
5.0E-4                    0.0155                   0.0058487812773861956
5.0E-4                    0.0165                   0.020755192896395238
5.0E-4                    0.0175                   0.030475017681562813
5.0E-4                    0.0185                   0.027071523045679367
5.0E-4                    0.0195                   0.020837953085013506
5.0E-4                    0.0205                   0.01342255571964893
5.0E-4                    0.0215                   0.007154889081339856
5.0E-4                    0.0225                   0.002594054385519117
5.0E-4                    0.0235                   6.278172073695908E-4
5.0E-4                    0.0245                   2.720158573073569E-4
5.0E-4                    0.0255                   7.01504553299661E-5
5.0E-4                    0.0265                   1.886586241288328E-5
5.0E-4                    0.0275                   1.2320746038095437E-5
5.0E-4                    0.0285                   9.703304583595441E-6
5.0E-4                    0.0295                   9.148481566804126E-6
5.0E-4                    0.0305                   1.852540396738003E-5
5.0E-4                    0.0315                   1.4042426010539745E-5
0.0015                    -0.0315                  3.865060336204155E-6
0.0015                    -0.0305                  7.612854606845384E-6
0.0015                    -0.0295                  8.210889171269053E-6
0.0015                    -0.0285                  9.003606460931345E-6
0.0015                    -0.0275                  9.610067515422412E-6
0.0015                    -0.0265                  1.0408790246132074E-5
0.0015                    -0.0255                  1.1347953522279137E-5
0.0015                    -0.0245                  1.2407993828418075E-5
0.0015                    -0.0235                  1.3495094016051944E-5
0.0015                    -0.0225                  1.4568481970609924E-5
0.0015                    -0.0215                  1.571857364516729E-5
0.0015                    -0.0205                  1.7322831689149747E-5
0.0015                    -0.0195                  2.046094073625158E-5
0.0015                    -0.0185                  2.7306364014798704E-5
0.0015                    -0.0175                  4.496971009608557E-5
0.0015                    -0.0165                  9.529900099107798E-5
0.0015                    -0.0155                  2.3889672493996708E-4
0.0015                    -0.0145                  4.323157624161669E-4
0.0015                    -0.0135                  5.881203071186017E-4
0.0015                    -0.0125                  8.160750544745589E-4
0.0015                    -0.0115                  0.0014433476749040723
0.0015                    -0.0105                  0.0026987953702016683
0.0015                    -0.0095                  0.004454202319849429
0.0015                    -0.0085                  0.00648109167991261
0.0015                    -0.0075                  0.008538064561067364
0.0015                    -0.0065                  0.010399024057867006
0.0015                    -0.0055                  0.011908858674925131
0.0015                    -0.0045                  0.013002982520590565
0.0015                    -0.0035                  0.013693137458999518
0.0015                    -0.0025                  0.014036223705283693
0.0015                    -0.0015                  0.014101654590123493
0.0015                    -5.0E-4                  0.01393907866667965
0.0015                    5.0E-4                   0.013565761129414327
0.0015                    0.0015                   0.012969186520012495
0.0015                    0.0025                   0.012122639625200087
0.0015                    0.0035                   0.011005830624126233
0.0015                    0.0045                   0.009627225027364003
0.0015                    0.0055                   0.008023999162749323
0.0015                    0.0065                   0.006254966452207558
0.0015                    0.0075                   0.004428638107340036
0.0015                    0.0085                   0.002718160938508284
0.0015                    0.0095                   0.001316973513046176
0.0015                    0.0105                   4.592078315129091E-4
0.0015                    0.0115                   3.821013676868693E-4
0.0015                    0.0125                   4.339702159957826E-4
0.0015                    0.0135                   0.002004881935978746
0.0015                    0.0145                   0.006773557367206044
0.0015                    0.0155                   0.016852106229860112
0.0015                    0.0165                   0.027351802231153185
0.0015                    0.0175                   0.029611080442874
0.0015                    0.0185                   0.025003396864581705
0.0015                    0.0195                   0.018181002380113203
0.0015                    0.0205                   0.01114040139510674
0.0015                    0.0215                   0.005543224725379226
0.0015                    0.0225                   0.0019190865826824164
0.0015                    0.0235                   5.098142313100869E-4
0.0015                    0.0245                   1.7230130078589844E-4
0.0015                    0.0255                   7.337582924774325E-5
0.0015                    0.0265                   3.1990689598397046E-5
0.0015                    0.0275                   1.7345738618787397E-5
0.0015                    0.0285                   1.1770607840296169E-5
0.0015                    0.0295                   1.0331273310880733E-5
0.0015                    0.0305                   1.3544290608410506E-5
0.0015                    0.0315                   8.621577661971557E-6
0.0025                    -0.0315                  4.147555712238373E-6
0.0025                    -0.0305                  7.773470276260379E-6
0.0025                    -0.0295                  7.788208486449737E-6
0.0025                    -0.0285                  8.255344784243002E-6
0.0025                    -0.0275                  8.577024528521483E-6
0.0025                    -0.0265                  9.169268430285291E-6
0.0025                    -0.0255                  1.0056568470515442E-5
0.0025                    -0.0245                  1.1198923532043156E-5
0.0025                    -0.0235                  1.2452557795419432E-5
0.0025                    -0.0225                  1.3683400663816673E-5
0.0025                    -0.0215                  1.4948459348054868E-5
0.0025                    -0.0205                  1.6780429955438394E-5
0.0025                    -0.0195                  2.064212697578625E-5
0.0025                    -0.0185                  3.016363392889409E-5
0.0025                    -0.0175                  5.2639912401042274E-5
0.0025                    -0.0165                  1.0151427700039374E-4
0.0025                    -0.0155                  2.156017687012041E-4
0.0025                    -0.0145                  4.091680730104806E-4
0.0025                    -0.0135                  8.215063136879108E-4
0.0025                    -0.0125                  0.0018899258316048611
0.0025                    -0.0115                  0.003947046137649905
0.0025                    -0.0105                  0.0067421078823427655
0.0025                    -0.0095                  0.009750910332050299
0.0025                    -0.0085                  0.012549340975026265
0.0025                    -0.0075                  0.014874731952143538
0.0025                    -0.0065                  0.01663267880099986
0.0025                    -0.0055                  0.01786552072110088
0.0025                    -0.0045                  0.01867951530602397
0.0025                    -0.0035                  0.019179224674824087
0.0025                    -0.0025                  0.019450716286251765
0.0025                    -0.0015                  0.01956572557488342
0.0025                    -5.0E-4                  0.019589764984282616
0.0025                    5.0E-4                   0.019558277402669046
0.0025                    0.0015                   0.01946472891599149
0.0025                    0.0025                   0.01926134170074206
0.0025                    0.0035                   0.018869634499291948
0.0025                    0.0045                   0.01820417514205898
0.0025                    0.0055                   0.017210875355447987
0.0025                    0.0065                   0.015874014426928377
0.0025                    0.0075                   0.014225200360504472
0.0025                    0.0085                   0.012393731032493723
0.0025                    0.0095                   0.010616102368477846
0.0025                    0.0105                   0.00925634204198647
0.0025                    0.0115                   0.008763290928354792
0.0025                    0.0125                   0.009652825368173936
0.0025                    0.0135                   0.012674786225373666
0.0025                    0.0145                   0.01829342262540289
0.0025                    0.0155                   0.024780158878770504
0.0025                    0.0165                   0.028499275487644783
0.0025                    0.0175                   0.026931287661580747
0.0025                    0.0185                   0.021368649419054232
0.0025                    0.0195                   0.0145751118539334
0.0025                    0.0205                   0.008471009010707051
0.0025                    0.0215                   0.004118624190122644
0.0025                    0.0225                   0.0016496082730239423
0.0025                    0.0235                   6.920566733309336E-4
0.0025                    0.0245                   3.187188452429262E-4
0.0025                    0.0255                   1.3434240007944822E-4
0.0025                    0.0265                   5.235032317340057E-5
0.0025                    0.0275                   2.509644777216377E-5
0.0025                    0.0285                   1.4843211324665766E-5
0.0025                    0.0295                   1.081543972405027E-5
0.0025                    0.0305                   1.2519329293037975E-5
0.0025                    0.0315                   7.931906384527018E-6
0.0035                    -0.0315                  4.6340051768316205E-6
0.0035                    -0.0305                  8.288509475171468E-6
0.0035                    -0.0295                  8.059534305052935E-6
0.0035                    -0.0285                  8.889297682777816E-6
0.0035                    -0.0275                  9.67415579247541E-6
0.0035                    -0.0265                  1.0941864799983934E-5
0.0035                    -0.0255                  1.2831296988783844E-5
0.0035                    -0.0245                  1.5368272234214903E-5
0.0035                    -0.0235                  1.8297934501408766E-5
0.0035                    -0.0225                  2.1297479901879828E-5
0.0035                    -0.0215                  2.4282811824553036E-5
0.0035                    -0.0205                  2.792938458814218E-5
0.0035                    -0.0195                  3.458709006151696E-5
0.0035                    -0.0185                  4.95542527300112E-5
0.0035                    -0.0175                  8.608760897404082E-5
0.0035                    -0.0165                  1.7201800274716935E-4
0.0035                    -0.0155                  3.41243631900628E-4
0.0035                    -0.0145                  7.392010214448045E-4
0.0035                    -0.0135                  0.001858781407046684
0.0035                    -0.0125                  0.004281687394244723
0.0035                    -0.0115                  0.007819360166429685
0.0035                    -0.0105                  0.011573531499883886
0.0035                    -0.0095                  0.01477472752056039
0.0035                    -0.0085                  0.017110190836104888
0.0035                    -0.0075                  0.01864325490568779
0.0035                    -0.0065                  0.019565076792444673
0.0035                    -0.0055                  0.02006029446758101
0.0035                    -0.0045                  0.020289650735122625
0.0035                    -0.0035                  0.02039061630958405
0.0035                    -0.0025                  0.02047195290928242
0.0035                    -0.0015                  0.020611693657485476
0.0035                    -5.0E-4                  0.02085561044706737
0.0035                    5.0E-4                   0.02121100756672667
0.0035                    0.0015                   0.021649410446765507
0.0035                    0.0025                   0.022129621523569953
0.0035                    0.0035                   0.022600661684616736
0.0035                    0.0045                   0.022982834939840276
0.0035                    0.0055                   0.023170931732518375
0.0035                    0.0065                   0.023060759291798093
0.0035                    0.0075                   0.022594308809320496
0.0035                    0.0085                   0.02181227481252868
0.0035                    0.0095                   0.020886458849847914
0.0035                    0.0105                   0.02014878861753226
0.0035                    0.0115                   0.02004837392073035
0.0035                    0.0125                   0.02098910904924115
0.0035                    0.0135                   0.023067145671527397
0.0035                    0.0145                   0.025634723536484858
0.0035                    0.0155                   0.027276084575791015
0.0035                    0.0165                   0.026484748895977805
0.0035                    0.0175                   0.02238529367048117
0.0035                    0.0185                   0.016229161503167302
0.0035                    0.0195                   0.010214483754118722
0.0035                    0.0205                   0.005793201212236223
0.0035                    0.0215                   0.0034225410490225892
0.0035                    0.0225                   0.0021381263976108494
0.0035                    0.0235                   0.0011948950472439603
0.0035                    0.0245                   5.515240828290362E-4
0.0035                    0.0255                   2.1378271789657227E-4
0.0035                    0.0265                   7.600671509351155E-5
0.0035                    0.0275                   3.3367251757015253E-5
0.0035                    0.0285                   1.77309914309822E-5
0.0035                    0.0295                   1.1798781187270425E-5
0.0035                    0.0305                   1.2993639942191375E-5
0.0035                    0.0315                   8.159359475215566E-6
0.0045                    -0.0315                  5.086482199761116E-6
0.0045                    -0.0305                  8.841823281427603E-6
0.0045                    -0.0295                  8.500107683530436E-6
0.0045                    -0.0285                  1.0001553069109554E-5
0.0045                    -0.0275                  1.2009387459792845E-5
0.0045                    -0.0265                  1.5255864568019922E-5
0.0045                    -0.0255                  2.0235666871861113E-5
0.0045                    -0.0245                  2.723185603423427E-5
0.0045                    -0.0235                  3.580409912127863E-5
0.0045                    -0.0225                  4.4787587417230055E-5
0.0045                    -0.0215                  5.334658980876489E-5
0.0045                    -0.0205                  6.20948139209936E-5
0.0045                    -0.0195                  7.431339444381067E-5
0.0045                    -0.0185                  9.990140842543862E-5
0.0045                    -0.0175                  1.5959652559494E-4
0.0045                    -0.0165                  3.1701342120458683E-4
0.0045                    -0.0155                  6.394697381702957E-4
0.0045                    -0.0145                  0.0015264113947098747
0.0045                    -0.0135                  0.0038521030085680516
0.0045                    -0.0125                  0.007737677833019181
0.0045                    -0.0115                  0.012030314302064988
0.0045                    -0.0105                  0.015484436573359173
0.0045                    -0.0095                  0.017612293209849098
0.0045                    -0.0085                  0.01858242215819465
0.0045                    -0.0075                  0.01870173193866266
0.0045                    -0.0065                  0.01824910026299679
0.0045                    -0.0055                  0.017555265698896646
0.0045                    -0.0045                  0.016896099104933164
0.0045                    -0.0035                  0.01642532632026344
0.0045                    -0.0025                  0.01621797401998124
0.0045                    -0.0015                  0.01630635470173147
0.0045                    -5.0E-4                  0.016683768837565595
0.0045                    5.0E-4                   0.017310648824312037
0.0045                    0.0015                   0.01812491009097454
0.0045                    0.0025                   0.019084879300996685
0.0045                    0.0035                   0.020188989394938073
0.0045                    0.0045                   0.0214323500245966
0.0045                    0.0055                   0.022741470711085975
0.0045                    0.0065                   0.023957039980345037
0.0045                    0.0075                   0.0249036592692451
0.0045                    0.0085                   0.025490948268731113
0.0045                    0.0095                   0.025764737263241667
0.0045                    0.0105                   0.025898657691705677
0.0045                    0.0115                   0.026108249988007492
0.0045                    0.0125                   0.02647376525065444
0.0045                    0.0135                   0.026779633317287145
0.0045                    0.0145                   0.026497803159522094
0.0045                    0.0155                   0.024937717907091764
0.0045                    0.0165                   0.021404994594746433
0.0045                    0.0175                   0.0159541576876193
0.0045                    0.0185                   0.010132203201864368
0.0045                    0.0195                   0.0057969025952059
0.0045                    0.0205                   0.004193040107181853
0.0045                    0.0215                   0.004099902344904091
0.0045                    0.0225                   0.0034765879692318694
0.0045                    0.0235                   0.0021884728245854367
0.0045                    0.0245                   9.644763177484784E-4
0.0045                    0.0255                   3.299019570746691E-4
0.0045                    0.0265                   1.0467758812652181E-4
0.0045                    0.0275                   4.2171293630180744E-5
0.0045                    0.0285                   2.0876866869466984E-5
0.0045                    0.0295                   1.3222410652385794E-5
0.0045                    0.0305                   1.3942594461811703E-5
0.0045                    0.0315                   8.615862633644478E-6
0.0055                    -0.0315                  5.722777243296841E-6
0.0055                    -0.0305                  9.905175102977532E-6
0.0055                    -0.0295                  9.869580231397014E-6
0.0055                    -0.0285                  1.293655370734708E-5
0.0055                    -0.0275                  1.800049263525322E-5
0.0055                    -0.0265                  2.6334514294263232E-5
0.0055                    -0.0255                  4.053515340713615E-5
0.0055                    -0.0245                  6.361073917774059E-5
0.0055                    -0.0235                  9.241690651242944E-5
0.0055                    -0.0225                  1.2155012375497358E-4
0.0055                    -0.0215                  1.4960030960212522E-4
0.0055                    -0.0205                  1.763076417596937E-4
0.0055                    -0.0195                  2.0329765150930792E-4
0.0055                    -0.0185                  2.486194907920572E-4
0.0055                    -0.0175                  3.8342608913110237E-4
0.0055                    -0.0165                  6.720174935308977E-4
0.0055                    -0.0155                  0.0012520226180351363
0.0055                    -0.0145                  0.0029633683306924375
0.0055                    -0.0135                  0.006658014565087411
0.0055                    -0.0125                  0.011422034148527488
0.0055                    -0.0115                  0.015345112053616595
0.0055                    -0.0105                  0.017457315232029157
0.0055                    -0.0095                  0.017903442662833318
0.0055                    -0.0085                  0.01704968106317701
0.0055                    -0.0075                  0.01526763055307263
0.0055                    -0.0065                  0.013154688673666367
0.0055                    -0.0055                  0.011289930599451024
0.0055                    -0.0045                  0.009956299784547453
0.0055                    -0.0035                  0.009160800731943317
0.0055                    -0.0025                  0.008803795910601528
0.0055                    -0.0015                  0.008813845366509521
0.0055                    -5.0E-4                  0.009184261543544627
0.0055                    5.0E-4                   0.009875453496334733
0.0055                    0.0015                   0.01077191006476845
0.0055                    0.0025                   0.011782150649299297
0.0055                    0.0035                   0.012921107613107346
0.0055                    0.0045                   0.014282003825808428
0.0055                    0.0055                   0.01592933658409006
0.0055                    0.0065                   0.017803825883464484
0.0055                    0.0075                   0.019715298116929358
0.0055                    0.0085                   0.021423184866259288
0.0055                    0.0095                   0.022756873919224308
0.0055                    0.0105                   0.02369183293752636
0.0055                    0.0115                   0.02424229407337373
0.0055                    0.0125                   0.0242801716090439
0.0055                    0.0135                   0.023509772459243843
0.0055                    0.0145                   0.021597901227808917
0.0055                    0.0155                   0.01832199976319083
0.0055                    0.0165                   0.01378465322277685
0.0055                    0.0175                   0.008760757672793823
0.0055                    0.0185                   0.004620438696394806
0.0055                    0.0195                   0.002951400003530353
0.0055                    0.0205                   0.0036526568551191246
0.0055                    0.0215                   0.00457558509072909
0.0055                    0.0225                   0.0047819162838824624
0.0055                    0.0235                   0.0035372638825170283
0.0055                    0.0245                   0.0016028408304631665
0.0055                    0.0255                   4.828318049944076E-4
0.0055                    0.0265                   1.3988077424819065E-4
0.0055                    0.0275                   5.3199162355299435E-5
0.0055                    0.0285                   2.4978219866964127E-5
0.0055                    0.0295                   1.4965612964395328E-5
0.0055                    0.0305                   1.5164454625620298E-5
0.0055                    0.0315                   9.285796950635134E-6
0.0065                    -0.0315                  6.735659721430797E-6
0.0065                    -0.0305                  1.1975295533324373E-5
0.0065                    -0.0295                  1.3122974104272509E-5
0.0065                    -0.0285                  1.9727326832203187E-5
0.0065                    -0.0275                  3.339259554486049E-5
0.0065                    -0.0265                  5.817448272222479E-5
0.0065                    -0.0255                  9.841670031353336E-5
0.0065                    -0.0245                  1.877941821012459E-4
0.0065                    -0.0235                  3.182558263888707E-4
0.0065                    -0.0225                  4.4410502127868463E-4
0.0065                    -0.0215                  5.655240601507045E-4
0.0065                    -0.0205                  6.831426892608242E-4
0.0065                    -0.0195                  7.891527638457534E-4
0.0065                    -0.0185                  9.241683845839272E-4
0.0065                    -0.0175                  0.0012231006592135856
0.0065                    -0.0165                  0.0016580008007684441
0.0065                    -0.0155                  0.0024794541974231124
0.0065                    -0.0145                  0.0050329350558706845
0.0065                    -0.0135                  0.009658651183894808
0.0065                    -0.0125                  0.014366959752983152
0.0065                    -0.0115                  0.01711985024001822
0.0065                    -0.0105                  0.017568639441200806
0.0065                    -0.0095                  0.01611269922553215
0.0065                    -0.0085                  0.01318570364323466
0.0065                    -0.0075                  0.009772493250040133
0.0065                    -0.0065                  0.006916977830161802
0.0065                    -0.0055                  0.0050191550773044605