% Model:              Benchmark260518.mph
% Version:            COMSOL 6.2.0.339
% Date:               May 21 2026, 17:29
% Dimension:          2
% Nodes:              4096
% Expressions:        1
% Description:        速度大小
% Length unit:        m
% x                       y                        spf.U (m/s)
5.0E-4                    -0.0315                  1.8622182823798714E-6
5.0E-4                    -0.0305                  3.699714572634213E-6
5.0E-4                    -0.0295                  4.137559624684246E-6
5.0E-4                    -0.0285                  4.6479333547926395E-6
5.0E-4                    -0.0275                  4.939173278913421E-6
5.0E-4                    -0.0265                  5.219453761721315E-6
5.0E-4                    -0.0255                  5.4485238684565255E-6
5.0E-4                    -0.0245                  5.6511211045216405E-6
5.0E-4                    -0.0235                  5.824633357903319E-6
5.0E-4                    -0.0225                  5.9813657825181264E-6
5.0E-4                    -0.0215                  6.1357076887668735E-6
5.0E-4                    -0.0205                  6.3186343794408385E-6
5.0E-4                    -0.0195                  6.5833224073585116E-6
5.0E-4                    -0.0185                  7.024709033048138E-6
5.0E-4                    -0.0175                  7.988585454489935E-6
5.0E-4                    -0.0165                  9.923822461247782E-6
5.0E-4                    -0.0155                  1.6298424447053346E-5
5.0E-4                    -0.0145                  3.7798681598704316E-5
5.0E-4                    -0.0135                  1.0541112170524847E-4
5.0E-4                    -0.0125                  2.0135929368480526E-4
5.0E-4                    -0.0115                  2.5694925692735837E-4
5.0E-4                    -0.0105                  2.7124642492178087E-4
5.0E-4                    -0.0095                  3.3934006846578094E-4
5.0E-4                    -0.0085                  6.146800842797058E-4
5.0E-4                    -0.0075                  0.001148194466167728
5.0E-4                    -0.0065                  0.0018797422288855906
5.0E-4                    -0.0055                  0.0026706656245988536
5.0E-4                    -0.0045                  0.0033571786379155335
5.0E-4                    -0.0035                  0.0038032679570945997
5.0E-4                    -0.0025                  0.003921488876530905
5.0E-4                    -0.0015                  0.0036956200787200692
5.0E-4                    -5.0E-4                  0.003170619167890602
5.0E-4                    5.0E-4                   0.0024491838641804114
5.0E-4                    0.0015                   0.0016561439910313988
5.0E-4                    0.0025                   9.134258217094507E-4
5.0E-4                    0.0035                   3.634144888344379E-4
5.0E-4                    0.0045                   1.1274944606931167E-4
5.0E-4                    0.0055                   2.6995051631018675E-4
5.0E-4                    0.0065                   0.002002521793016345
5.0E-4                    0.0075                   0.006558318615029497
5.0E-4                    0.0085                   0.017487867059982544
5.0E-4                    0.0095                   0.023756971050685076
5.0E-4                    0.0105                   0.019866438364519606
5.0E-4                    0.0115                   0.014928664190029521
5.0E-4                    0.0125                   0.00956885199709325
5.0E-4                    0.0135                   0.004925658403420864
5.0E-4                    0.0145                   0.0017507883218987339
5.0E-4                    0.0155                   4.7559899377932205E-4
5.0E-4                    0.0165                   1.8954066867126184E-4
5.0E-4                    0.0175                   9.889784424757194E-5
5.0E-4                    0.0185                   1.5195091409917066E-4
5.0E-4                    0.0195                   6.490866178160289E-4
5.0E-4                    0.0205                   0.0024042093988601893
5.0E-4                    0.0215                   0.005147576452506355
5.0E-4                    0.0225                   0.006019107594961025
5.0E-4                    0.0235                   0.003074541994821501
5.0E-4                    0.0245                   4.2659207297124135E-4
5.0E-4                    0.0255                   9.69565849166471E-5
5.0E-4                    0.0265                   3.311744660774464E-5
5.0E-4                    0.0275                   1.4331864841217005E-5
5.0E-4                    0.0285                   8.67871119864634E-6
5.0E-4                    0.0295                   6.582384475505032E-6
5.0E-4                    0.0305                   5.667406294044442E-6
5.0E-4                    0.0315                   2.810663271579579E-6
0.0015                    -0.0315                  3.6019509128473017E-6
0.0015                    -0.0305                  7.0537013095864055E-6
0.0015                    -0.0295                  7.5124451418991395E-6
0.0015                    -0.0285                  8.046572882765732E-6
0.0015                    -0.0275                  8.265988957833323E-6
0.0015                    -0.0265                  8.501180654651166E-6
0.0015                    -0.0255                  8.706681702332007E-6
0.0015                    -0.0245                  8.897706938310552E-6
0.0015                    -0.0235                  9.062723135426516E-6
0.0015                    -0.0225                  9.213173672057848E-6
0.0015                    -0.0215                  9.37602824431377E-6
0.0015                    -0.0205                  9.608131943071347E-6
0.0015                    -0.0195                  1.0011717484418284E-5
0.0015                    -0.0185                  1.0800908206347445E-5
0.0015                    -0.0175                  1.258536638584835E-5
0.0015                    -0.0165                  1.6681667494633227E-5
0.0015                    -0.0155                  2.8696008487432634E-5
0.0015                    -0.0145                  6.52856218300033E-5
0.0015                    -0.0135                  1.7336209093784507E-4
0.0015                    -0.0125                  3.320473721983736E-4
0.0015                    -0.0115                  4.946269657347391E-4
0.0015                    -0.0105                  7.732203805673526E-4
0.0015                    -0.0095                  0.0014690570261799258
0.0015                    -0.0085                  0.0028006881646288955
0.0015                    -0.0075                  0.004636314157600964
0.0015                    -0.0065                  0.006692382572024761
0.0015                    -0.0055                  0.008654667763650621
0.0015                    -0.0045                  0.01023749108927063
0.0015                    -0.0035                  0.011255409686766759
0.0015                    -0.0025                  0.011635073068266288
0.0015                    -0.0015                  0.011389491448647643
0.0015                    -5.0E-4                  0.01058923279067561
0.0015                    5.0E-4                   0.009361609068491513
0.0015                    0.0015                   0.007888484112327943
0.0015                    0.0025                   0.006393395427746221
0.0015                    0.0035                   0.005205589610805165
0.0015                    0.0045                   0.004835638494399223
0.0015                    0.0055                   0.006068407398395219
0.0015                    0.0065                   0.010049142647495714
0.0015                    0.0075                   0.017252607189471296
0.0015                    0.0085                   0.023399198769071164
0.0015                    0.0095                   0.023019143526336446
0.0015                    0.0105                   0.018103316766907372
0.0015                    0.0115                   0.012544017211800516
0.0015                    0.0125                   0.007211745328941064
0.0015                    0.0135                   0.0032040347696353543
0.0015                    0.0145                   0.0010827398950781072
0.0015                    0.0155                   3.8159007668318146E-4
0.0015                    0.0165                   1.855380406347327E-4
0.0015                    0.0175                   1.1152956785202702E-4
0.0015                    0.0185                   1.5498223338623605E-4
0.0015                    0.0195                   5.048172143124954E-4
0.0015                    0.0205                   0.001938588698970032
0.0015                    0.0215                   0.0049007118987226305
0.0015                    0.0225                   0.005899438624490747
0.0015                    0.0235                   0.0033104869524896575
0.0015                    0.0245                   9.513505360412342E-4
0.0015                    0.0255                   2.2915416346686704E-4
0.0015                    0.0265                   7.805090704761525E-5
0.0015                    0.0275                   3.186564835465157E-5
0.0015                    0.0285                   1.7610034785564548E-5
0.0015                    0.0295                   1.2431282495713452E-5
0.0015                    0.0305                   1.0782531280169361E-5
0.0015                    0.0315                   5.471547672755652E-6
0.0025                    -0.0315                  3.8002123261461527E-6
0.0025                    -0.0305                  7.136887493418405E-6
0.0025                    -0.0295                  7.113041244659961E-6
0.0025                    -0.0285                  7.311565888099519E-6
0.0025                    -0.0275                  7.19317732022235E-6
0.0025                    -0.0265                  7.085352605886062E-6
0.0025                    -0.0255                  7.003019459411561E-6
0.0025                    -0.0245                  6.9502235411169995E-6
0.0025                    -0.0235                  6.906282321269149E-6
0.0025                    -0.0225                  6.867865230319619E-6
0.0025                    -0.0215                  6.866130383634572E-6
0.0025                    -0.0205                  6.973967610179571E-6
0.0025                    -0.0195                  7.324135031171247E-6
0.0025                    -0.0185                  8.195274140354535E-6
0.0025                    -0.0175                  1.0247988256490023E-5
0.0025                    -0.0165                  1.5299017816531945E-5
0.0025                    -0.0155                  2.751020289800937E-5
0.0025                    -0.0145                  5.850670213070267E-5
0.0025                    -0.0135                  1.4793836735269654E-4
0.0025                    -0.0125                  3.279248587835472E-4
0.0025                    -0.0115                  7.307076288598851E-4
0.0025                    -0.0105                  0.0017721696364563092
0.0025                    -0.0095                  0.003828286472072497
0.0025                    -0.0085                  0.006673942513519179
0.0025                    -0.0075                  0.009710680593648865
0.0025                    -0.0065                  0.012440906617299716
0.0025                    -0.0055                  0.014593489869888206
0.0025                    -0.0045                  0.016126742009496934
0.0025                    -0.0035                  0.017126985238301903
0.0025                    -0.0025                  0.017695484959101428
0.0025                    -0.0015                  0.017899562530227897
0.0025                    -5.0E-4                  0.017760043705386017
0.0025                    5.0E-4                   0.017264980724601798
0.0025                    0.0015                   0.01643778779282391
0.0025                    0.0025                   0.015451764969212946
0.0025                    0.0035                   0.014690704625578407
0.0025                    0.0045                   0.0147142918063397
0.0025                    0.0055                   0.0161747001509478
0.0025                    0.0065                   0.019252357127398777
0.0025                    0.0075                   0.02245661242575864
0.0025                    0.0085                   0.023291742087092303
0.0025                    0.0095                   0.020227928575070078
0.0025                    0.0105                   0.0147730202630352
0.0025                    0.0115                   0.009264541910014596
0.0025                    0.0125                   0.004673078634260043
0.0025                    0.0135                   0.0018449019535560036
0.0025                    0.0145                   6.522677848712455E-4
0.0025                    0.0155                   3.3426533360187864E-4
0.0025                    0.0165                   2.1785943768722914E-4
0.0025                    0.0175                   1.3013094371446048E-4
0.0025                    0.0185                   1.615533852958531E-4
0.0025                    0.0195                   4.941259067052884E-4
0.0025                    0.0205                   0.0017561441347098466
0.0025                    0.0215                   0.004556498283385173
0.0025                    0.0225                   0.0060472594928915255
0.0025                    0.0235                   0.003974625094912063
0.0025                    0.0245                   0.0014395136018318792
0.0025                    0.0255                   4.2917337122796366E-4
0.0025                    0.0265                   1.3626607021674118E-4
0.0025                    0.0275                   5.009682199731577E-5
0.0025                    0.0285                   2.2874214484735136E-5
0.0025                    0.0295                   1.348480274383186E-5
0.0025                    0.0305                   1.124261563876117E-5
0.0025                    0.0315                   5.924145834178876E-6
0.0035                    -0.0315                  4.142243719507143E-6
0.0035                    -0.0305                  7.451548201565211E-6
0.0035                    -0.0295                  7.2128804534151E-6
0.0035                    -0.0285                  7.5825968893353514E-6
0.0035                    -0.0275                  7.546524191846257E-6
0.0035                    -0.0265                  7.460932886277043E-6
0.0035                    -0.0255                  7.382014296955959E-6
0.0035                    -0.0245                  7.360187384950016E-6
0.0035                    -0.0235                  7.3787479222671205E-6
0.0035                    -0.0225                  7.4259953772982956E-6
0.0035                    -0.0215                  7.536589638533572E-6
0.0035                    -0.0205                  7.826093443191408E-6
0.0035                    -0.0195                  8.513579844628189E-6
0.0035                    -0.0185                  9.992843163799468E-6
0.0035                    -0.0175                  1.311539149301003E-5
0.0035                    -0.0165                  1.998073483934157E-5
0.0035                    -0.0155                  3.562750172516697E-5
0.0035                    -0.0145                  7.287395223219418E-5
0.0035                    -0.0135                  1.9640606746803427E-4
0.0035                    -0.0125                  5.560046105847526E-4
0.0035                    -0.0115                  0.0015684337860201417
0.0035                    -0.0105                  0.003862424012573598
0.0035                    -0.0095                  0.007367332012757467
0.0035                    -0.0085                  0.011127122147225112
0.0035                    -0.0075                  0.014248835124023529
0.0035                    -0.0065                  0.016416715855358657
0.0035                    -0.0055                  0.01777106971060775
0.0035                    -0.0045                  0.018571366542988344
0.0035                    -0.0035                  0.01906273236749189
0.0035                    -0.0025                  0.019451730567179453
0.0035                    -0.0015                  0.01987263196491251
0.0035                    -5.0E-4                  0.02033051362905515
0.0035                    5.0E-4                   0.020723072408135645
0.0035                    0.0015                   0.02090628995436521
0.0035                    0.0025                   0.02082350247860418
0.0035                    0.0035                   0.020648511472889087
0.0035                    0.0045                   0.020724550527902338
0.0035                    0.0055                   0.021303878978542804
0.0035                    0.0065                   0.022085070568258265
0.0035                    0.0075                   0.022052667722732653
0.0035                    0.0085                   0.019995693069149882
0.0035                    0.0095                   0.015603337218655094
0.0035                    0.0105                   0.010346661919234725
0.0035                    0.0115                   0.005771315364158111
0.0035                    0.0125                   0.0025692159197374166
0.0035                    0.0135                   9.751238866859942E-4
0.0035                    0.0145                   4.11928151598901E-4
0.0035                    0.0155                   2.7335766104729357E-4
0.0035                    0.0165                   1.8256764077183998E-4
0.0035                    0.0175                   1.1699903535340607E-4
0.0035                    0.0185                   1.498685680565522E-4
0.0035                    0.0195                   4.273603515352962E-4
0.0035                    0.0205                   0.0014088469367815573
0.0035                    0.0215                   0.0038765009311181077
0.0035                    0.0225                   0.0060367443865411855
0.0035                    0.0235                   0.00495735941114783
0.0035                    0.0245                   0.0023113791311316057
0.0035                    0.0255                   7.914679981154408E-4
0.0035                    0.0265                   2.5329228785569074E-4
0.0035                    0.0275                   7.94180092011151E-5
0.0035                    0.0285                   3.153425348217825E-5
0.0035                    0.0295                   1.599464035188789E-5
0.0035                    0.0305                   1.2438388131650355E-5
0.0035                    0.0315                   6.694037022581582E-6
0.0045                    -0.0315                  4.350370128757216E-6
0.0045                    -0.0305                  7.580676207398129E-6
0.0045                    -0.0295                  7.0958295718057084E-6
0.0045                    -0.0285                  7.5595284691528895E-6
0.0045                    -0.0275                  7.660875125191535E-6
0.0045                    -0.0265                  7.677842779854306E-6
0.0045                    -0.0255                  7.688038487480747E-6
0.0045                    -0.0245                  7.80747082070988E-6
0.0045                    -0.0235                  8.059435913388202E-6
0.0045                    -0.0225                  8.440892236560619E-6
0.0045                    -0.0215                  9.008201145937706E-6
0.0045                    -0.0205                  9.95582082913765E-6
0.0045                    -0.0195                  1.1656801624170487E-5
0.0045                    -0.0185                  1.474096254966551E-5
0.0045                    -0.0175                  2.028202941103303E-5
0.0045                    -0.0165                  3.0769343369974235E-5
0.0045                    -0.0155                  5.539240094054316E-5
0.0045                    -0.0145                  1.276215480204519E-4
0.0045                    -0.0135                  3.5097005881714016E-4
0.0045                    -0.0125                  0.0010651674773155596
0.0045                    -0.0115                  0.0031090545940098222
0.0045                    -0.0105                  0.006854105152646191
0.0045                    -0.0095                  0.01118090035681027
0.0045                    -0.0085                  0.014602674436713795
0.0045                    -0.0075                  0.0165434992772755
0.0045                    -0.0065                  0.01721906182709278
0.0045                    -0.0055                  0.017014537999434805
0.0045                    -0.0045                  0.016320828194954545
0.0045                    -0.0035                  0.015616183342975001
0.0045                    -0.0025                  0.015285418659759185
0.0045                    -0.0015                  0.015508629343575666
0.0045                    -5.0E-4                  0.016263650426522534
0.0045                    5.0E-4                   0.017370733187246173
0.0045                    0.0015                   0.018535185339458634
0.0045                    0.0025                   0.019417997182650998
0.0045                    0.0035                   0.019848492409775577
0.0045                    0.0045                   0.01992056400732439
0.0045                    0.0055                   0.01973253453022188
0.0045                    0.0065                   0.01907179154902054
0.0045                    0.0075                   0.017377567267111364
0.0045                    0.0085                   0.014197033210120552
0.0045                    0.0095                   0.009965894565526911
0.0045                    0.0105                   0.005918473937683976
0.0045                    0.0115                   0.002942705468623158
0.0045                    0.0125                   0.0012404492526876555
0.0045                    0.0135                   5.36528622819612E-4
0.0045                    0.0145                   3.234046000752684E-4
0.0045                    0.0155                   2.3002645422731633E-4
0.0045                    0.0165                   1.3369768047583026E-4
0.0045                    0.0175                   9.269231660595001E-5
0.0045                    0.0185                   1.2282308404408125E-4
0.0045                    0.0195                   3.0451391620820394E-4
0.0045                    0.0205                   9.6056943487047E-4
0.0045                    0.0215                   0.0029282212658405123
0.0045                    0.0225                   0.005566607202952219
0.0045                    0.0235                   0.005785951199006078
0.0045                    0.0245                   0.0033817013816412997
0.0045                    0.0255                   0.0012801383841392288
0.0045                    0.0265                   3.9514209928428063E-4
0.0045                    0.0275                   1.1461702908955979E-4
0.0045                    0.0285                   4.2636565307357E-5
0.0045                    0.0295                   1.88642808167934E-5
0.0045                    0.0305                   1.3730733661970766E-5
0.0045                    0.0315                   7.442225354708512E-6
0.0055                    -0.0315                  4.5437053460576956E-6
0.0055                    -0.0305                  7.745933663050786E-6
0.0055                    -0.0295                  7.051975637256295E-6
0.0055                    -0.0285                  7.567314054003944E-6
0.0055                    -0.0275                  7.788245786532592E-6
0.0055                    -0.0265                  7.943593382935691E-6
0.0055                    -0.0255                  8.118387054624726E-6
0.0055                    -0.0245                  8.527105507317389E-6
0.0055                    -0.0235                  9.309535025341442E-6
0.0055                    -0.0225                  1.05405232152609E-5
0.0055                    -0.0215                  1.2388035126659862E-5
0.0055                    -0.0205                  1.5386618244644696E-5
0.0055                    -0.0195                  2.034592773693855E-5
0.0055                    -0.0185                  2.8309150032429693E-5
0.0055                    -0.0175                  4.157668563857558E-5
0.0055                    -0.0165                  6.323745655065276E-5
0.0055                    -0.0155                  1.0400536436766186E-4
0.0055                    -0.0145                  2.464375793175034E-4
0.0055                    -0.0135                  6.696688193649493E-4
0.0055                    -0.0125                  0.0020054255938317476
0.0055                    -0.0115                  0.005334681577807671
0.0055                    -0.0105                  0.010162402456414171
0.0055                    -0.0095                  0.014282732750874844
0.0055                    -0.0085                  0.01636147668980722
0.0055                    -0.0075                  0.01651516683627711
0.0055                    -0.0065                  0.015215232670066355
0.0055                    -0.0055                  0.012999610754510164
0.0055                    -0.0045                  0.0106764543959885
0.0055                    -0.0035                  0.008940868355208974
0.0055                    -0.0025                  0.00805659358775313
0.0055                    -0.0015                  0.007975203582466702
0.0055                    -5.0E-4                  0.008567497837243952
0.0055                    5.0E-4                   0.009681380509571205
0.0055                    0.0015                   0.0110835464711511
0.0055                    0.0025                   0.012425751143377501
0.0055                    0.0035                   0.013345360811722893
0.0055                    0.0045                   0.013639551115089762
0.0055                    0.0055                   0.013271877053436926
0.0055                    0.0065                   0.012200622189151753
0.0055                    0.0075                   0.010335103384324978
0.0055                    0.0085                   0.007773052752998983
0.0055                    0.0095                   0.0050136861334045876
0.0055                    0.0105                   0.0027531575743876885
0.0055                    0.0115                   0.001345642074174483
0.0055                    0.0125                   6.576826911511596E-4
0.0055                    0.0135                   3.8814735330527033E-4
0.0055                    0.0145                   2.7994307017438177E-4
0.0055                    0.0155                   1.810887566940223E-4
0.0055                    0.0165                   9.93441254429332E-5
0.0055                    0.0175                   7.022058999201767E-5
0.0055                    0.0185                   9.16455154350401E-5
0.0055                    0.0195                   1.9494183113054743E-4
0.0055                    0.0205                   6.21540764414414E-4
0.0055                    0.0215                   0.0020345564365177485
0.0055                    0.0225                   0.004671533718787163
0.0055                    0.0235                   0.006113216283267337
0.0055                    0.0245                   0.004455114348118738
0.0055                    0.0255                   0.0019261296621929768
0.0055                    0.0265                   5.996087919357756E-4
0.0055                    0.0275                   1.7707019805602648E-4
0.0055                    0.0285                   5.624340068934179E-5
0.0055                    0.0295                   2.228522477987009E-5
0.0055                    0.0305                   1.5319398443539664E-5
0.0055                    0.0315                   8.313801408069082E-6
0.0065                    -0.0315                  4.696696071128183E-6
0.0065                    -0.0305                  7.898537965210449E-6
0.0065                    -0.0295                  7.0569608061826405E-6
0.0065                    -0.0285                  7.620297710646339E-6
0.0065                    -0.0275                  7.958731165951705E-6
0.0065                    -0.0265                  8.290217461856353E-6
0.0065                    -0.0255                  8.745752392360924E-6
0.0065                    -0.0245                  9.722340608562313E-6
0.0065                    -0.0235                  1.16474958330974E-5
0.0065                    -0.0225                  1.4881719968266583E-5
0.0065                    -0.0215                  1.9843158489204287E-5
0.0065                    -0.0205                  2.814816755181731E-5
0.0065                    -0.0195                  4.395512961533506E-5
0.0065                    -0.0185                  6.98862083732259E-5
0.0065                    -0.0175                  1.0703597480657572E-4
0.0065                    -0.0165                  1.7912042920150716E-4
0.0065                    -0.0155                  2.9292502979149694E-4
0.0065                    -0.0145                  5.440704050191937E-4
0.0065                    -0.0135                  0.0012587730845088918
0.0065                    -0.0125                  0.0034599684522931763
0.0065                    -0.0115                  0.007946414100700313
0.0065                    -0.0105                  0.013064252191585387
0.0065                    -0.0095                  0.016162034319371712
0.0065                    -0.0085                  0.016548203378194563
0.0065                    -0.0075                  0.014738588732993654
0.0065                    -0.0065                  0.011408037779732195
0.0065                    -0.0055                  0.00779917895213739