% Model:              Benchmark260518.mph
% Version:            COMSOL 6.2.0.339
% Date:               May 20 2026, 19:49
% Dimension:          2
% Nodes:              4096
% Expressions:        1
% Description:        速度大小
% Length unit:        m
% x                       y                        spf.U (m/s)
5.0E-4                    -0.0315                  1.8235343591119022E-6
5.0E-4                    -0.0305                  3.6591473001051853E-6
5.0E-4                    -0.0295                  4.09850603505895E-6
5.0E-4                    -0.0285                  4.570197146288361E-6
5.0E-4                    -0.0275                  4.836212226397862E-6
5.0E-4                    -0.0265                  5.110880815753942E-6
5.0E-4                    -0.0255                  5.3809583273317455E-6
5.0E-4                    -0.0245                  5.667820050480374E-6
5.0E-4                    -0.0235                  5.966334215910212E-6
5.0E-4                    -0.0225                  6.264090285012527E-6
5.0E-4                    -0.0215                  6.535864671840786E-6
5.0E-4                    -0.0205                  6.757671130814539E-6
5.0E-4                    -0.0195                  6.94057135043548E-6
5.0E-4                    -0.0185                  7.113531645283231E-6
5.0E-4                    -0.0175                  7.3165980151934535E-6
5.0E-4                    -0.0165                  7.6052853131076564E-6
5.0E-4                    -0.0155                  8.034151472692157E-6
5.0E-4                    -0.0145                  8.714273730688042E-6
5.0E-4                    -0.0135                  9.828156900510614E-6
5.0E-4                    -0.0125                  1.179683749268927E-5
5.0E-4                    -0.0115                  1.6839739596570374E-5
5.0E-4                    -0.0105                  3.31379477864197E-5
5.0E-4                    -0.0095                  8.148990920840754E-5
5.0E-4                    -0.0085                  2.1447169817989396E-4
5.0E-4                    -0.0075                  4.143221390776713E-4
5.0E-4                    -0.0065                  5.718634800283899E-4
5.0E-4                    -0.0055                  7.548553287277097E-4
5.0E-4                    -0.0045                  0.0013254082864715714
5.0E-4                    -0.0035                  0.0024253017213107225
5.0E-4                    -0.0025                  0.003801220968835137
5.0E-4                    -0.0015                  0.00507469262614455
5.0E-4                    -5.0E-4                  0.0058827631773333815
5.0E-4                    5.0E-4                   0.00599249527058222
5.0E-4                    0.0015                   0.005365968334466628
5.0E-4                    0.0025                   0.004154005567332181
5.0E-4                    0.0035                   0.002606006819611256
5.0E-4                    0.0045                   0.0014589799558217221
5.0E-4                    0.0055                   0.002441690393076894
5.0E-4                    0.0065                   0.0038151619621940706
5.0E-4                    0.0075                   0.004313208061338144
5.0E-4                    0.0085                   0.0038777494562284493
5.0E-4                    0.0095                   0.0029562915630280745
5.0E-4                    0.0105                   0.0022677407913554155
5.0E-4                    0.0115                   0.00462206764593992
5.0E-4                    0.0125                   0.029173571582276625
5.0E-4                    0.0135                   0.04846095419202477
5.0E-4                    0.0145                   0.04657938176238509
5.0E-4                    0.0155                   0.037792508907708536
5.0E-4                    0.0165                   0.025489954260424493
5.0E-4                    0.0175                   0.014750589871960484
5.0E-4                    0.0185                   0.00636371720049537
5.0E-4                    0.0195                   0.0016487852325718867
5.0E-4                    0.0205                   2.9988919618664024E-4
5.0E-4                    0.0215                   1.850881727322497E-4
5.0E-4                    0.0225                   8.609818443614466E-5
5.0E-4                    0.0235                   3.019986754893667E-5
5.0E-4                    0.0245                   1.2707268373631587E-5
5.0E-4                    0.0255                   7.76316633772623E-6
5.0E-4                    0.0265                   6.3996864826403135E-6
5.0E-4                    0.0275                   5.746497451775394E-6
5.0E-4                    0.0285                   5.348953573893073E-6
5.0E-4                    0.0295                   4.784408469797221E-6
5.0E-4                    0.0305                   4.326696345145032E-6
5.0E-4                    0.0315                   2.190471837242584E-6
0.0015                    -0.0315                  3.5683518105937687E-6
0.0015                    -0.0305                  7.042143271217668E-6
0.0015                    -0.0295                  7.52951335607234E-6
0.0015                    -0.0285                  8.038546537993192E-6
0.0015                    -0.0275                  8.238734721481598E-6
0.0015                    -0.0265                  8.486664339361791E-6
0.0015                    -0.0255                  8.775883301621497E-6
0.0015                    -0.0245                  9.13625390393503E-6
0.0015                    -0.0235                  9.560516822710574E-6
0.0015                    -0.0225                  1.0024082656793305E-5
0.0015                    -0.0215                  1.0475943930225115E-5
0.0015                    -0.0205                  1.0859539043783531E-5
0.0015                    -0.0195                  1.1159252562155191E-5
0.0015                    -0.0185                  1.140207327235708E-5
0.0015                    -0.0175                  1.165933647964368E-5
0.0015                    -0.0165                  1.2044477236550859E-5
0.0015                    -0.0155                  1.2693392795156354E-5
0.0015                    -0.0145                  1.3838164360586058E-5
0.0015                    -0.0135                  1.5912174750468883E-5
0.0015                    -0.0125                  2.0023386486706707E-5
0.0015                    -0.0115                  3.0276561429234892E-5
0.0015                    -0.0105                  5.897653779258637E-5
0.0015                    -0.0095                  1.3928831834795338E-4
0.0015                    -0.0085                  3.81474983514633E-4
0.0015                    -0.0075                  8.207290458123437E-4
0.0015                    -0.0065                  0.001529576923859376
0.0015                    -0.0055                  0.0031016032183335484
0.0015                    -0.0045                  0.005952420730754934
0.0015                    -0.0035                  0.009562275032134537
0.0015                    -0.0025                  0.013144472582757997
0.0015                    -0.0015                  0.01603443881685821
0.0015                    -5.0E-4                  0.01782108135910555
0.0015                    5.0E-4                   0.018331003923725817
0.0015                    0.0015                   0.01758605826267843
0.0015                    0.0025                   0.015734909731809153
0.0015                    0.0035                   0.012897174235669356
0.0015                    0.0045                   0.009158707902383878
0.0015                    0.0055                   0.004980912799975322
0.0015                    0.0065                   0.002645427682719795
0.0015                    0.0075                   0.004199507564199202
0.0015                    0.0085                   0.005220139287087879
0.0015                    0.0095                   0.004697946266800396
0.0015                    0.0105                   0.003050506480261779
0.0015                    0.0115                   0.014564785178647198
0.0015                    0.0125                   0.03710148063155213
0.0015                    0.0135                   0.04784624251655218
0.0015                    0.0145                   0.04478299235488222
0.0015                    0.0155                   0.03534694038552765
0.0015                    0.0165                   0.02328039812987152
0.0015                    0.0175                   0.013028989726554517
0.0015                    0.0185                   0.005239833327423344
0.0015                    0.0195                   0.001401460997242263
0.0015                    0.0205                   4.5659394090078565E-4
0.0015                    0.0215                   2.559711234601798E-4
0.0015                    0.0225                   1.2203094781034316E-4
0.0015                    0.0235                   4.862813389133921E-5
0.0015                    0.0245                   2.208382926797493E-5
0.0015                    0.0255                   1.3441760772409027E-5
0.0015                    0.0265                   1.0781475346032132E-5
0.0015                    0.0275                   9.734364154749053E-6
0.0015                    0.0285                   9.254260813501873E-6
0.0015                    0.0295                   8.626083761955107E-6
0.0015                    0.0305                   8.223418580669672E-6
0.0015                    0.0315                   4.248388017778293E-6
0.0025                    -0.0315                  3.8047033274581064E-6
0.0025                    -0.0305                  7.206545373268228E-6
0.0025                    -0.0295                  7.264162881860103E-6
0.0025                    -0.0285                  7.512395124690932E-6
0.0025                    -0.0275                  7.425676899921388E-6
0.0025                    -0.0265                  7.369692871831901E-6
0.0025                    -0.0255                  7.38735808578435E-6
0.0025                    -0.0245                  7.525992270534018E-6
0.0025                    -0.0235                  7.792060013420019E-6
0.0025                    -0.0225                  8.169181725738501E-6
0.0025                    -0.0215                  8.608470037723378E-6
0.0025                    -0.0205                  9.036058513955328E-6
0.0025                    -0.0195                  9.378808290307975E-6
0.0025                    -0.0185                  9.611846453665118E-6
0.0025                    -0.0175                  9.799666912712972E-6
0.0025                    -0.0165                  1.0105793864618E-5
0.0025                    -0.0155                  1.0783543021198973E-5
0.0025                    -0.0145                  1.2208286040705296E-5
0.0025                    -0.0135                  1.5069119744959648E-5
0.0025                    -0.0125                  2.111267015152028E-5
0.0025                    -0.0115                  3.4866003943200585E-5
0.0025                    -0.0105                  6.923924287569584E-5
0.0025                    -0.0095                  1.5935665225668433E-4
0.0025                    -0.0085                  4.924931079503913E-4
0.0025                    -0.0075                  0.0013844487756663648
0.0025                    -0.0065                  0.003651412063602688
0.0025                    -0.0055                  0.008003865280774139
0.0025                    -0.0045                  0.013521461352658514
0.0025                    -0.0035                  0.018602945958816
0.0025                    -0.0025                  0.02246441313972791
0.0025                    -0.0015                  0.025074041766357785
0.0025                    -5.0E-4                  0.026684382666317914
0.0025                    5.0E-4                   0.02756366154935136
0.0025                    0.0015                   0.027868965586149732
0.0025                    0.0025                   0.027554751069842145
0.0025                    0.0035                   0.02634910489771866
0.0025                    0.0045                   0.02381877190533441
0.0025                    0.0055                   0.019643416756023283
0.0025                    0.0065                   0.014101058957355535
0.0025                    0.0075                   0.008370403294576346
0.0025                    0.0085                   0.0044226017468557395
0.0025                    0.0095                   0.004467409658985473
0.0025                    0.0105                   0.010768087548780263
0.0025                    0.0115                   0.025441760593166704
0.0025                    0.0125                   0.040649691347729916
0.0025                    0.0135                   0.04557343814825392
0.0025                    0.0145                   0.04152055653917934
0.0025                    0.0155                   0.031954965780808524
0.0025                    0.0165                   0.02066016115260703
0.0025                    0.0175                   0.011314068687095214
0.0025                    0.0185                   0.004408146768207814
0.0025                    0.0195                   0.0012405812988972355
0.0025                    0.0205                   3.991917818988674E-4
0.0025                    0.0215                   1.7436305345098897E-4
0.0025                    0.0225                   7.722129510222126E-5
0.0025                    0.0235                   3.851348232703818E-5
0.0025                    0.0245                   2.029115856549371E-5
0.0025                    0.0255                   1.2580759920911743E-5
0.0025                    0.0265                   9.702757201956225E-6
0.0025                    0.0275                   8.718541452434927E-6
0.0025                    0.0285                   8.425068597782929E-6
0.0025                    0.0295                   8.087600446261374E-6
0.0025                    0.0305                   8.353320842804259E-6
0.0025                    0.0315                   4.561080212940033E-6
0.0035                    -0.0315                  4.159769875204643E-6
0.0035                    -0.0305                  7.544529570028845E-6
0.0035                    -0.0295                  7.380453495931753E-6
0.0035                    -0.0285                  7.811821033774578E-6
0.0035                    -0.0275                  7.807892831002478E-6
0.0035                    -0.0265                  7.747795117340738E-6
0.0035                    -0.0255                  7.706589601511482E-6
0.0035                    -0.0245                  7.78731906973233E-6
0.0035                    -0.0235                  8.034677130207121E-6
0.0035                    -0.0225                  8.469752240367725E-6
0.0035                    -0.0215                  9.078352132619782E-6
0.0035                    -0.0205                  9.803894531857645E-6
0.0035                    -0.0195                  1.055315611789711E-5
0.0035                    -0.0185                  1.1255178285893467E-5
0.0035                    -0.0175                  1.1970677366501186E-5
0.0035                    -0.0165                  1.296806598898964E-5
0.0035                    -0.0155                  1.4718353069796766E-5
0.0035                    -0.0145                  1.7946388260359746E-5
0.0035                    -0.0135                  2.3867839094009716E-5
0.0035                    -0.0125                  3.511485077173813E-5
0.0035                    -0.0115                  6.011088777022437E-5
0.0035                    -0.0105                  1.2394141949075889E-4
0.0035                    -0.0095                  3.362627477179345E-4
0.0035                    -0.0085                  0.0010326212419101912
0.0035                    -0.0075                  0.003252383813105256
0.0035                    -0.0065                  0.008185850753513815
0.0035                    -0.0055                  0.01488880760227528
0.0035                    -0.0045                  0.020870008858314196
0.0035                    -0.0035                  0.024846094775001406
0.0035                    -0.0025                  0.02707783138793963
0.0035                    -0.0015                  0.02826736934656768
0.0035                    -5.0E-4                  0.02897843235750104
0.0035                    5.0E-4                   0.029653803286475787
0.0035                    0.0015                   0.030602831395017398
0.0035                    0.0025                   0.0318198738384331
0.0035                    0.0035                   0.03287862287174561
0.0035                    0.0045                   0.033069226459207304
0.0035                    0.0055                   0.03166571636872982
0.0035                    0.0065                   0.02832045892907088
0.0035                    0.0075                   0.023660552410457357
0.0035                    0.0085                   0.01951979056536071
0.0035                    0.0095                   0.018685816474796935
0.0035                    0.0105                   0.023699117819040532
0.0035                    0.0115                   0.03304825839881349
0.0035                    0.0125                   0.04048355202101037
0.0035                    0.0135                   0.04133296193863591
0.0035                    0.0145                   0.036598423388970375
0.0035                    0.0155                   0.027699699510687157
0.0035                    0.0165                   0.01795365683432246
0.0035                    0.0175                   0.010045781990098483
0.0035                    0.0185                   0.0041502173025567855
0.0035                    0.0195                   0.0014167683773915621
0.0035                    0.0205                   5.703790436621997E-4
0.0035                    0.0215                   2.3816653980812485E-4
0.0035                    0.0225                   9.195811409455477E-5
0.0035                    0.0235                   4.2755319726921465E-5
0.0035                    0.0245                   2.2648517017118724E-5
0.0035                    0.0255                   1.4184525320053013E-5
0.0035                    0.0265                   1.0747339937028322E-5
0.0035                    0.0275                   9.364823624929037E-6
0.0035                    0.0285                   8.782299288601995E-6
0.0035                    0.0295                   8.16989001479232E-6
0.0035                    0.0305                   8.71201218487855E-6
0.0035                    0.0315                   4.974457735891405E-6
0.0045                    -0.0315                  4.422520654514848E-6
0.0045                    -0.0305                  7.720069893610928E-6
0.0045                    -0.0295                  7.2259574037277255E-6
0.0045                    -0.0285                  7.74101312665058E-6
0.0045                    -0.0275                  7.87051924763436E-6
0.0045                    -0.0265                  7.889798090976341E-6
0.0045                    -0.0255                  7.857236558834832E-6
0.0045                    -0.0245                  7.923066947217967E-6
0.0045                    -0.0235                  8.188687311853333E-6
0.0045                    -0.0225                  8.738858084502475E-6
0.0045                    -0.0215                  9.638323707399674E-6
0.0045                    -0.0205                  1.0919636401618854E-5
0.0045                    -0.0195                  1.2552232290187574E-5
0.0045                    -0.0185                  1.4466028729409998E-5
0.0045                    -0.0175                  1.6785585294257596E-5
0.0045                    -0.0165                  2.0144013141463916E-5
0.0045                    -0.0155                  2.5517837432948612E-5
0.0045                    -0.0145                  3.411272882743759E-5
0.0045                    -0.0135                  4.8808215716128267E-5
0.0045                    -0.0125                  7.461424595822869E-5
0.0045                    -0.0115                  1.2454882081717312E-4
0.0045                    -0.0105                  2.84150452783791E-4
0.0045                    -0.0095                  7.952335688066567E-4
0.0045                    -0.0085                  0.0023807928002345514
0.0045                    -0.0075                  0.006886470998658415
0.0045                    -0.0065                  0.014342230165277168
0.0045                    -0.0055                  0.02132591539912818
0.0045                    -0.0045                  0.025369575146904053
0.0045                    -0.0035                  0.026771534916750904
0.0045                    -0.0025                  0.0265413301075155
0.0045                    -0.0015                  0.025401410423762667
0.0045                    -5.0E-4                  0.024176449423283716
0.0045                    5.0E-4                   0.023732889003256423
0.0045                    0.0015                   0.02460819812908768
0.0045                    0.0025                   0.02686869531851067
0.0045                    0.0035                   0.03007424368214979
0.0045                    0.0045                   0.03328551318552716
0.0045                    0.0055                   0.03538017488197065
0.0045                    0.0065                   0.03549004055534903
0.0045                    0.0075                   0.03363726107200544
0.0045                    0.0085                   0.031087024844831324
0.0045                    0.0095                   0.029877819518175502
0.0045                    0.0105                   0.03140518808343744
0.0045                    0.0115                   0.034599547984497686
0.0045                    0.0125                   0.036419667752022204
0.0045                    0.0135                   0.034696987194103315
0.0045                    0.0145                   0.02997340669752475
0.0045                    0.0155                   0.022976718958889145
0.0045                    0.0165                   0.015920486392852644
0.0045                    0.0175                   0.010109566683318229
0.0045                    0.0185                   0.005150719617033479
0.0045                    0.0195                   0.0021959493520310666
0.0045                    0.0205                   9.38829777589608E-4
0.0045                    0.0215                   3.667318515369411E-4
0.0045                    0.0225                   1.2497340915059864E-4
0.0045                    0.0235                   5.2624683179056725E-5
0.0045                    0.0245                   2.635024322924736E-5
0.0045                    0.0255                   1.595375319748061E-5
0.0045                    0.0265                   1.1608040543108379E-5
0.0045                    0.0275                   9.708838253897687E-6
0.0045                    0.0285                   8.782521944768156E-6
0.0045                    0.0295                   7.98485920179481E-6
0.0045                    0.0305                   8.762174571603247E-6
0.0045                    0.0315                   5.144815953456555E-6
0.0055                    -0.0315                  4.693339768566651E-6
0.0055                    -0.0305                  7.939170749426833E-6
0.0055                    -0.0295                  7.096077126354082E-6
0.0055                    -0.0285                  7.621343951962027E-6
0.0055                    -0.0275                  7.846600075803171E-6
0.0055                    -0.0265                  7.97118874575781E-6
0.0055                    -0.0255                  7.99652786329289E-6
0.0055                    -0.0245                  8.101005534594592E-6
0.0055                    -0.0235                  8.46249501544662E-6
0.0055                    -0.0225                  9.273801125732353E-6
0.0055                    -0.0215                  1.0761770307781502E-5
0.0055                    -0.0205                  1.3206595598360765E-5
0.0055                    -0.0195                  1.686552414217761E-5
0.0055                    -0.0185                  2.185307055114951E-5
0.0055                    -0.0175                  2.8363970046550064E-5
0.0055                    -0.0165                  3.8279978014160296E-5
0.0055                    -0.0155                  5.631434751195323E-5
0.0055                    -0.0145                  8.470873324412639E-5
0.0055                    -0.0135                  1.2395347920910404E-4
0.0055                    -0.0125                  2.038208121095728E-4
0.0055                    -0.0115                  3.487566972185542E-4
0.0055                    -0.0105                  7.11910581425991E-4
0.0055                    -0.0095                  0.001746980861746063
0.0055                    -0.0085                  0.005022904224881507
0.0055                    -0.0075                  0.012072535045135594
0.0055                    -0.0065                  0.020404453837152062
0.0055                    -0.0055                  0.025598955443445173
0.0055                    -0.0045                  0.026759883995853197
0.0055                    -0.0035                  0.025163397858458104
0.0055                    -0.0025                  0.02174923093488082
0.0055                    -0.0015                  0.017734781863458508
0.0055                    -5.0E-4                  0.014512429000641038
0.0055                    5.0E-4                   0.012909470943798428
0.0055                    0.0015                   0.013113702136618308
0.0055                    0.0025                   0.015101345949846431
0.0055                    0.0035                   0.018818601265577824
0.0055                    0.0045                   0.023818880041774407
0.0055                    0.0055                   0.028996052331032036
0.0055                    0.0065                   0.0328178405241608
0.0055                    0.0075                   0.03428409470692946
0.0055                    0.0085                   0.0337693249900809
0.0055                    0.0095                   0.03254438779544502
0.0055                    0.0105                   0.031600607730338966
0.0055                    0.0115                   0.0307787093483451
0.0055                    0.0125                   0.028995685139799787
0.0055                    0.0135                   0.025728893400017668
0.0055                    0.0145                   0.02209818230607973
0.0055                    0.0155                   0.018898608115853924
0.0055                    0.0165                   0.01622296084046871
0.0055                    0.0175                   0.012984656617565937
0.0055                    0.0185                   0.008422473108996202
0.0055                    0.0195                   0.004179512107291273
0.0055                    0.0205                   0.001681490283018352
0.0055                    0.0215                   5.843613884404543E-4
0.0055                    0.0225                   1.7864440694942478E-4
0.0055                    0.0235                   7.193193531767405E-5
0.0055                    0.0245                   3.413757532236909E-5
0.0055                    0.0255                   1.9051325835664217E-5
0.0055                    0.0265                   1.276433536376778E-5
0.0055                    0.0275                   1.0062119398360158E-5
0.0055                    0.0285                   8.774511191241061E-6
0.0055                    0.0295                   7.857268764762073E-6
0.0055                    0.0305                   8.88530193958941E-6
0.0055                    0.0315                   5.33316698337626E-6
0.0065                    -0.0315                  4.916426147344968E-6
0.0065                    -0.0305                  8.123221851889529E-6
0.0065                    -0.0295                  6.97285691962508E-6
0.0065                    -0.0285                  7.474083772288789E-6
0.0065                    -0.0275                  7.755562070696177E-6
0.0065                    -0.0265                  7.981610178583777E-6
0.0065                    -0.0255                  8.107617626563215E-6
0.0065                    -0.0245                  8.337277835723593E-6
0.0065                    -0.0235                  8.969452307719797E-6
0.0065                    -0.0225                  1.0411850628222623E-5
0.0065                    -0.0215                  1.3202534210088997E-5
0.0065                    -0.0205                  1.825044536603195E-5
0.0065                    -0.0195                  2.6884551570993874E-5
0.0065                    -0.0185                  4.020538082730943E-5
0.0065                    -0.0175                  5.887575630504084E-5
0.0065                    -0.0165                  8.558326450858251E-5
0.0065                    -0.0155                  1.4136515963672093E-4
0.0065                    -0.0145                  2.729144876628716E-4
0.0065                    -0.0135                  4.385535885754461E-4
0.0065                    -0.0125                  6.488609065016464E-4
0.0065                    -0.0115                  9.752617724458741E-4
0.0065                    -0.0105                  0.0016323145065372888
0.0065                    -0.0095                  0.003696345470117951
0.0065                    -0.0085                  0.009179733345249736
0.0065                    -0.0075                  0.017666955776640063
0.0065                    -0.0065                  0.0247830718587539
0.0065                    -0.0055                  0.0272721565052018
0.0065                    -0.0045                  0.02548016518055841