% Model:              Benchmark260518.mph
% Version:            COMSOL 6.2.0.339
% Date:               May 19 2026, 15:13
% Dimension:          2
% Nodes:              4096
% Expressions:        1
% Description:        速度大小
% Length unit:        m
% x                       y                        spf.U (m/s)
% mirrored_by_python_y_to_minus_y, coord_match_decimals=12
0.0005 -0.0315 1.72429715095e-06
0.0005 -0.0305 3.40572659715e-06
0.0005 -0.0295 3.72249327348e-06
0.0005 -0.0285 4.0948785045e-06
0.0005 -0.0275 4.26087529832e-06
0.0005 -0.0265 4.44885423371e-06
0.0005 -0.0255 4.76884861352e-06
0.0005 -0.0245 4.29879578607e-06
0.0005 -0.0235 5.73904206764e-06
0.0005 -0.0225 6.20210930287e-06
0.0005 -0.0215 5.2379953e-06
0.0005 -0.0205 5.55028669928e-06
0.0005 -0.0195 6.11974023677e-06
0.0005 -0.0185 7.28107355048e-06
0.0005 -0.0175 1.01475414995e-05
0.0005 -0.0165 1.80664946999e-05
0.0005 -0.0155 4.56817542382e-05
0.0005 -0.0145 0.000150219658551
0.0005 -0.0135 0.000881409868096
0.0005 -0.0125 0.00413912514385
0.0005 -0.0115 0.011514653732
0.0005 -0.0105 0.0205293411651
0.0005 -0.0095 0.0275796837489
0.0005 -0.0085 0.0199305820259
0.0005 -0.0075 0.00518644210785
0.0005 -0.0065 0.000673763995489
0.0005 -0.0055 0.000699936087752
0.0005 -0.0045 0.000464812507209
0.0005 -0.0035 0.000190272582585
0.0005 -0.0025 7.31823618633e-05
0.0005 -0.0015 5.16420674556e-05
0.0005 -0.0005 3.00960453827e-05
0.0005 0.0005 1.73716385584e-05
0.0005 0.0015 1.03838832717e-05
0.0005 0.0025 6.9531227639e-06
0.0005 0.0035 5.8276416931e-06
0.0005 0.0045 5.59551529427e-06
0.0005 0.0055 5.44398258503e-06
0.0005 0.0065 5.40495446322e-06
0.0005 0.0075 5.42041177934e-06
0.0005 0.0085 5.46384885597e-06
0.0005 0.0095 5.51174667399e-06
0.0005 0.0105 5.53446607438e-06
0.0005 0.0115 5.51514181139e-06
0.0005 0.0125 5.44648077336e-06
0.0005 0.0135 5.33420065174e-06
0.0005 0.0145 5.19442876243e-06
0.0005 0.0155 5.0437920969e-06
0.0005 0.0165 4.89391402244e-06
0.0005 0.0175 4.7515778205e-06
0.0005 0.0185 4.62548239866e-06
0.0005 0.0195 4.51343363854e-06
0.0005 0.0205 4.40962850841e-06
0.0005 0.0215 4.31307298294e-06
0.0005 0.0225 4.22206975123e-06
0.0005 0.0235 4.13504879897e-06
0.0005 0.0245 4.04449720978e-06
0.0005 0.0255 3.94553640749e-06
0.0005 0.0265 3.83230224695e-06
0.0005 0.0275 3.67678503277e-06
0.0005 0.0285 3.50338860853e-06
0.0005 0.0295 3.14971208333e-06
0.0005 0.0305 2.83492775426e-06
0.0005 0.0315 1.42861497967e-06
0.0015 -0.0315 3.33896782864e-06
0.0015 -0.0305 6.4768752593e-06
0.0015 -0.0295 6.74924614797e-06
0.0015 -0.0285 7.12543778514e-06
0.0015 -0.0275 7.2288227669e-06
0.0015 -0.0265 7.39016184118e-06
0.0015 -0.0255 7.65656726511e-06
0.0015 -0.0245 7.36671196978e-06
0.0015 -0.0235 6.25177175732e-06
0.0015 -0.0225 5.5920237547e-06
0.0015 -0.0215 5.67094850678e-06
0.0015 -0.0205 5.73499602445e-06
0.0015 -0.0195 6.17901716292e-06
0.0015 -0.0185 7.22505967348e-06
0.0015 -0.0175 9.90032007447e-06
0.0015 -0.0165 1.75456039292e-05
0.0015 -0.0155 4.36204849457e-05
0.0015 -0.0145 0.000150575673361
0.0015 -0.0135 0.000604421879116
0.0015 -0.0125 0.00220942302619
0.0015 -0.0115 0.00744968143923
0.0015 -0.0105 0.0168329715674
0.0015 -0.0095 0.0263328286524
0.0015 -0.0085 0.0263194535476
0.0015 -0.0075 0.0143179004168
0.0015 -0.0065 0.00313869251751
0.0015 -0.0055 0.0011841520669
0.0015 -0.0045 0.00118390517341
0.0015 -0.0035 0.000649961490211
0.0015 -0.0025 0.000246982432565
0.0015 -0.0015 0.000121418137469
0.0015 -0.0005 7.4445040815e-05
0.0015 0.0005 4.28233297923e-05
0.0015 0.0015 2.46554581653e-05
0.0015 0.0025 1.54326521089e-05
0.0015 0.0035 1.15629779955e-05
0.0015 0.0045 9.97891519257e-06
0.0015 0.0055 9.11749942885e-06
0.0015 0.0065 8.70232938898e-06
0.0015 0.0075 8.54386600464e-06
0.0015 0.0085 8.52348969837e-06
0.0015 0.0095 8.557264504e-06
0.0015 0.0105 8.57365963705e-06
0.0015 0.0115 8.52939406303e-06
0.0015 0.0125 8.40760088954e-06
0.0015 0.0135 8.21739515474e-06
0.0015 0.0145 7.98534191141e-06
0.0015 0.0155 7.73996783524e-06
0.0015 0.0165 7.50242156705e-06
0.0015 0.0175 7.28575207262e-06
0.0015 0.0185 7.10099371498e-06
0.0015 0.0195 6.94630538675e-06
0.0015 0.0205 6.81471860558e-06
0.0015 0.0215 6.70347140349e-06
0.0015 0.0225 6.60989142011e-06
0.0015 0.0235 6.53162534058e-06
0.0015 0.0245 6.46162562844e-06
0.0015 0.0255 6.39553587703e-06
0.0015 0.0265 6.32849978514e-06
0.0015 0.0275 6.23195619371e-06
0.0015 0.0285 6.12962089884e-06
0.0015 0.0295 5.76322807929e-06
0.0015 0.0305 5.42942453292e-06
0.0015 0.0315 2.77237829979e-06
0.0025 -0.0315 3.57103015932e-06
0.0025 -0.0305 6.58579168068e-06
0.0025 -0.0295 6.39118474857e-06
0.0025 -0.0285 6.57907563586e-06
0.0025 -0.0275 6.54778193188e-06
0.0025 -0.0265 6.60679380301e-06
0.0025 -0.0255 6.70167242206e-06
0.0025 -0.0245 6.65233479641e-06
0.0025 -0.0235 6.33623716545e-06
0.0025 -0.0225 5.98373583128e-06
0.0025 -0.0215 5.87365541422e-06
0.0025 -0.0205 5.98382600383e-06
0.0025 -0.0195 6.29414192087e-06
0.0025 -0.0185 7.16443329733e-06
0.0025 -0.0175 9.56800895254e-06
0.0025 -0.0165 1.65351182972e-05
0.0025 -0.0155 4.00927204753e-05
0.0025 -0.0145 0.00011509883708
0.0025 -0.0135 0.000442822179752
0.0025 -0.0125 0.00143120250747
0.0025 -0.0115 0.00456938423995
0.0025 -0.0105 0.0120668500518
0.0025 -0.0095 0.0225015336651
0.0025 -0.0085 0.0272017646376
0.0025 -0.0075 0.0209285454163
0.0025 -0.0065 0.00935337111109
0.0025 -0.0055 0.00115970682341
0.0025 -0.0045 0.00141770527724
0.0025 -0.0035 0.00120665864608
0.0025 -0.0025 0.000564573169696
0.0025 -0.0015 0.000221634912618
0.0025 -0.0005 0.000118719368233
0.0025 0.0005 6.95479008408e-05
0.0025 0.0015 3.79386433168e-05
0.0025 0.0025 2.30168557106e-05
0.0025 0.0035 1.54696528401e-05
0.0025 0.0045 1.10365663902e-05
0.0025 0.0055 8.54431440565e-06
0.0025 0.0065 7.27698335097e-06
0.0025 0.0075 6.718163492e-06
0.0025 0.0085 6.52436675548e-06
0.0025 0.0095 6.4802506373e-06
0.0025 0.0105 6.4570792157e-06
0.0025 0.0115 6.38902017863e-06
0.0025 0.0125 6.25803242534e-06
0.0025 0.0135 6.07568688783e-06
0.0025 0.0145 5.86647745652e-06
0.0025 0.0155 5.65598472622e-06
0.0025 0.0165 5.46448435802e-06
0.0025 0.0175 5.30539736862e-06
0.0025 0.0185 5.18492634016e-06
0.0025 0.0195 5.10419079704e-06
0.0025 0.0205 5.06099863166e-06
0.0025 0.0215 5.05191898616e-06
0.0025 0.0225 5.07423653542e-06
0.0025 0.0235 5.1257335776e-06
0.0025 0.0245 5.20550750254e-06
0.0025 0.0255 5.31136814227e-06
0.0025 0.0265 5.44038604972e-06
0.0025 0.0275 5.5706715696e-06
0.0025 0.0285 5.68346655239e-06
0.0025 0.0295 5.52749788075e-06
0.0025 0.0305 5.52607561764e-06
0.0025 0.0315 2.93441953393e-06
0.0035 -0.0315 3.91868127376e-06
0.0035 -0.0305 6.89026877942e-06
0.0035 -0.0295 6.42164701161e-06
0.0035 -0.0285 6.78024072881e-06
0.0035 -0.0275 6.84501020496e-06
0.0035 -0.0265 6.90307082024e-06
0.0035 -0.0255 6.8875897725e-06
0.0035 -0.0245 6.76383942607e-06
0.0035 -0.0235 6.56843883923e-06
0.0035 -0.0225 6.35726643901e-06
0.0035 -0.0215 6.20100579162e-06
0.0035 -0.0205 6.20006158633e-06
0.0035 -0.0195 6.41121420748e-06
0.0035 -0.0185 7.09037574251e-06
0.0035 -0.0175 9.12017352122e-06
0.0035 -0.0165 1.50522331386e-05
0.0035 -0.0155 3.24745116484e-05
0.0035 -0.0145 8.57657668731e-05
0.0035 -0.0135 0.00028972459347
0.0035 -0.0125 0.000924529479039
0.0035 -0.0115 0.002762776465
0.0035 -0.0105 0.00790842008911
0.0035 -0.0095 0.0175659965976
0.0035 -0.0085 0.0253698994538
0.0035 -0.0075 0.0244811758092
0.0035 -0.0065 0.0159846301599
0.0035 -0.0055 0.00576137454471
0.0035 -0.0045 0.000236636752607
0.0035 -0.0035 0.00155866667673
0.0035 -0.0025 0.00103580595121
0.0035 -0.0015 0.000444919400924
0.0035 -0.0005 0.000183701820342
0.0035 0.0005 9.48260741181e-05
0.0035 0.0015 5.69556349765e-05
0.0035 0.0025 3.969763989e-05
0.0035 0.0035 2.62182552253e-05
0.0035 0.0045 1.66865391473e-05
0.0035 0.0055 1.13240941526e-05
0.0035 0.0065 8.76458944148e-06
0.0035 0.0075 7.72273255818e-06
0.0035 0.0085 7.33836106903e-06
0.0035 0.0095 7.15785496495e-06
0.0035 0.0105 6.98415385763e-06
0.0035 0.0115 6.75765511073e-06
0.0035 0.0125 6.48383713584e-06
0.0035 0.0135 6.19054307085e-06
0.0035 0.0145 5.90644965357e-06
0.0035 0.0155 5.65337576799e-06
0.0035 0.0165 5.44536738737e-06
0.0035 0.0175 5.28973850284e-06
0.0035 0.0185 5.18839953744e-06
0.0035 0.0195 5.13907322773e-06
0.0035 0.0205 5.13703335037e-06
0.0035 0.0215 5.17679437075e-06
0.0035 0.0225 5.25315385445e-06
0.0035 0.0235 5.36143054122e-06
0.0035 0.0245 5.49671609084e-06
0.0035 0.0255 5.64992928767e-06
0.0035 0.0265 5.80644515236e-06
0.0035 0.0275 5.91434382138e-06
0.0035 0.0285 5.93966325452e-06
0.0035 0.0295 5.62463586619e-06
0.0035 0.0305 5.7753268009e-06
0.0035 0.0315 3.19956914459e-06
0.0045 -0.0315 4.10335536067e-06
0.0045 -0.0305 6.9708512967e-06
0.0045 -0.0295 6.2101160222e-06
0.0045 -0.0285 6.64657578973e-06
0.0045 -0.0275 6.83376605784e-06
0.0045 -0.0265 6.9624570734e-06
0.0045 -0.0255 6.96706104381e-06
0.0045 -0.0245 6.90335067695e-06
0.0045 -0.0235 6.78667393578e-06
0.0045 -0.0225 6.64190317393e-06
0.0045 -0.0215 6.50346478121e-06
0.0045 -0.0205 6.42092045149e-06
0.0045 -0.0195 6.49550375785e-06
0.0045 -0.0185 6.95289620612e-06
0.0045 -0.0175 8.46704499066e-06
0.0045 -0.0165 1.27661850113e-05
0.0045 -0.0155 2.48205136809e-05
0.0045 -0.0145 5.98615120218e-05
0.0045 -0.0135 0.000190933433006
0.0045 -0.0125 0.000585213455763
0.0045 -0.0115 0.00165544554306
0.0045 -0.0105 0.00481865637604
0.0045 -0.0095 0.012610203957
0.0045 -0.0085 0.0217195610329
0.0045 -0.0075 0.0249752275014
0.0045 -0.0065 0.0206071762459
0.0045 -0.0055 0.0115040507064
0.0045 -0.0045 0.00305107440252
0.0045 -0.0035 0.000985163412044
0.0045 -0.0025 0.00144093419595
0.0045 -0.0015 0.000834948119806
0.0045 -0.0005 0.000332125689054
0.0045 0.0005 0.000135455825811
0.0045 0.0015 9.54347659939e-05
0.0045 0.0025 7.56192760283e-05
0.0045 0.0035 4.72256627154e-05
0.0045 0.0045 2.72426118235e-05
0.0045 0.0055 1.62614396927e-05
0.0045 0.0065 1.13075331754e-05
0.0045 0.0075 9.34851733623e-06
0.0045 0.0085 8.53903228386e-06
0.0045 0.0095 8.05944187873e-06
0.0045 0.0105 7.61804863232e-06
0.0045 0.0115 7.15749272301e-06
0.0045 0.0125 6.70012394634e-06
0.0045 0.0135 6.27910804177e-06
0.0045 0.0145 5.91701537718e-06
0.0045 0.0155 5.62493364275e-06
0.0045 0.0165 5.40658145408e-06
0.0045 0.0175 5.26122406228e-06
0.0045 0.0185 5.18483343481e-06
0.0045 0.0195 5.17081442912e-06
0.0045 0.0205 5.21092304607e-06
0.0045 0.0215 5.29629786933e-06
0.0045 0.0225 5.41810548549e-06
0.0045 0.0235 5.56693645665e-06
0.0045 0.0245 5.73094450235e-06
0.0045 0.0255 5.88977089254e-06
0.0045 0.0265 6.01156411722e-06
0.0045 0.0275 6.02702014392e-06
0.0045 0.0285 5.92160457334e-06
0.0045 0.0295 5.51885883827e-06
0.0045 0.0305 5.87095025092e-06
0.0045 0.0315 3.36385719579e-06
0.0055 -0.0315 4.28337947096e-06
0.0055 -0.0305 7.071363559e-06
0.0055 -0.0295 5.99771887276e-06
0.0055 -0.0285 6.42239432808e-06
0.0055 -0.0275 6.66459395276e-06
0.0055 -0.0265 6.8758454607e-06
0.0055 -0.0255 6.96021089026e-06
0.0055 -0.0245 6.96487768533e-06
0.0055 -0.0235 6.91187543478e-06
0.0055 -0.0225 6.82240894065e-06
0.0055 -0.0215 6.70984255545e-06
0.0055 -0.0205 6.59897720832e-06
0.0055 -0.0195 6.55909772812e-06
0.0055 -0.0185 6.77526055202e-06
0.0055 -0.0175 7.72834544931e-06
0.0055 -0.0165 1.06004265234e-05
0.0055 -0.0155 1.86084474296e-05
0.0055 -0.0145 4.12871464062e-05
0.0055 -0.0135 0.000122641974851
0.0055 -0.0125 0.000357756010688
0.0055 -0.0115 0.00097278631803
0.0055 -0.0105 0.00279538284669
0.0055 -0.0095 0.00840037615693
0.0055 -0.0085 0.0172855187003
0.0055 -0.0075 0.0232669043904
0.0055 -0.0065 0.0226573517787
0.0055 -0.0055 0.0163603242998
0.0055 -0.0045 0.00772609749263
0.0055 -0.0035 0.00135961519514
0.0055 -0.0025 0.00119883424767
0.0055 -0.0015 0.00121984610132
0.0055 -0.0005 0.000623203361856
0.0055 0.0005 0.000237971537063
0.0055 0.0015 0.000162905186683
0.0055 0.0025 0.000142081693699
0.0055 0.0035 9.22473537341e-05
0.0055 0.0045 4.66154926402e-05
0.0055 0.0055 2.46297971209e-05
0.0055 0.0065 1.55923839186e-05
0.0055 0.0075 1.19107099696e-05
0.0055 0.0085 1.02560627701e-05
0.0055 0.0095 9.23488191031e-06
0.0055 0.0105 8.38994132215e-06
0.0055 0.0115 7.63047738958e-06
0.0055 0.0125 6.96722038715e-06
0.0055 0.0135 6.41747892223e-06
0.0055 0.0145 5.98534482259e-06
0.0055 0.0155 5.6654368867e-06
0.0055 0.0165 5.44864056507e-06
0.0055 0.0175 5.32454087864e-06
0.0055 0.0185 5.28174234286e-06
0.0055 0.0195 5.30781924898e-06
0.0055 0.0205 5.3896807186e-06
0.0055 0.0215 5.51407712171e-06
0.0055 0.0225 5.6675199602e-06
0.0055 0.0235 5.83470514161e-06
0.0055 0.0245 5.99556390619e-06
0.0055 0.0255 6.11871053117e-06
0.0055 0.0265 6.16331618693e-06
0.0055 0.0275 6.06692177075e-06
0.0055 0.0285 5.86393364063e-06
0.0055 0.0295 5.43351365843e-06
0.0055 0.0305 5.98673371698e-06
0.0055 0.0315 3.51973252134e-06
0.0065 -0.0315 4.437937788e-06
0.0065 -0.0305 7.15867200654e-06
0.0065 -0.0295 5.78859451844e-06
0.0065 -0.0285 6.14628706379e-06
0.0065 -0.0275 6.3875103439e-06
0.0065 -0.0265 6.65810478779e-06
0.0065 -0.0255 6.8197772012e-06
0.0065 -0.0245 6.90019493514e-06
0.0065 -0.0235 6.91477939182e-06
0.0065 -0.0225 6.88115470525e-06
0.0065 -0.0215 6.80654948301e-06
0.0065 -0.0205 6.70089996233e-06
0.0065 -0.0195 6.60491114591e-06
0.0065 -0.0185 6.65745522223e-06
0.0065 -0.0175 7.24782698488e-06
0.0065 -0.0165 9.27153882567e-06
0.0065 -0.0155 1.48664775866e-05
0.0065 -0.0145 3.02758328746e-05
0.0065 -0.0135 7.98811790082e-05
0.0065 -0.0125 0.000211734414849
0.0065 -0.0115 0.000547485090569
0.0065 -0.0105 0.00157911322649
0.0065 -0.0095 0.00528852237054
0.0065 -0.0085 0.0129224457315
0.0065 -0.0075 0.0202390251968
0.0065 -0.0065 0.0224309416102
0.0065 -0.0055 0.0191617360455
0.0065 -0.0045 0.0123103537006
0.0065 -0.0035 0.00524067873645
0.0065 -0.0025 0.00112820159524
0.0065 -0.0015 0.00109727720089
0.0065 -0.0005 0.000893553521835
0.0065 0.0005 0.000445321708534
0.0065 0.0015 0.000314401221306
0.0065 0.0025 0.000267111082619
0.0065 0.0035 0.00016927845498
0.0065 0.0045 7.73553216585e-05
0.0065 0.0055 3.7622296256e-05
0.0065 0.0065 2.18509552498e-05
0.0065 0.0075 1.52867539739e-05
0.0065 0.0085 1.22257181572e-05
0.0065 0.0095 1.03869576901e-05
0.0065 0.0105 9.02310406253e-06
0.0065 0.0115 7.93786237672e-06
0.0065 0.0125 7.08154194524e-06
0.0065 0.0135 6.42796663108e-06
0.0065 0.0145 5.95123468273e-06
0.0065 0.0155 5.62629326842e-06
0.0065 0.0165 5.43040218893e-06
0.0065 0.0175 5.34290682952e-06
0.0065 0.0185 5.34430028241e-06
0.0065 0.0195 5.41561976535e-06
0.0065 0.0205 5.53847857154e-06
0.0065 0.0215 5.69507244952e-06
0.0065 0.0225 5.86733717233e-06
0.0065 0.0235 6.03454448332e-06
0.0065 0.0245 6.17027856925e-06
0.0065 0.0255 6.23838407288e-06
0.0065 0.0265 6.20273277706e-06
0.0065 0.0275 6.02284836001e-06
0.0065 0.0285 5.7743364214e-06
0.0065 0.0295 5.35994683533e-06
0.0065 0.0305 6.09996812052e-06
0.0065 0.0315 3.65694399781e-06
0.0075 -0.0315 4.55743371418e-06
0.0075 -0.0305 7.22119093781e-06
0.0075 -0.0295 5.60441593817e-06
0.0075 -0.0285 5.88266387317e-06
0.0075 -0.0275 6.09244729358e-06
0.0075 -0.0265 6.38432127777e-06
0.0075 -0.0255 6.59487743582e-06
0.0075 -0.0245 6.7332926524e-06
0.0075 -0.0235 6.80291094376e-06
0.0075 -0.0225 6.81914051085e-06
0.0075 -0.0215 6.78977166243e-06
0.0075 -0.0205 6.7228585672e-06
0.0075 -0.0195 6.65392636763e-06
0.0075 -0.0185 6.71702252885e-06
0.0075 -0.0175 7.28807996328e-06
0.0075 -0.0165 9.21946818724e-06
0.0075 -0.0155 1.43175664514e-05
0.0075 -0.0145 2.69311789582e-05
0.0075 -0.0135 5.80130571834e-05
0.0075 -0.0125 0.00013206860281
0.0075 -0.0115 0.000306687624992
0.0075 -0.0105 0.000880472702935
0.0075 -0.0095 0.00325299350701
0.0075 -0.0085 0.00928247252587
0.0075 -0.0075 0.0166777545653
0.0075 -0.0065 0.0205383803939
0.0075 -0.0055 0.0196150927532
0.0075 -0.0045 0.0152275691654
0.0075 -0.0035 0.00945368489208
0.0075 -0.0025 0.00482006005932
0.0075 -0.0015 0.00251572877895
0.0075 -0.0005 0.00165123973008
0.0075 0.0005 0.00105815629916
0.0075 0.0015 0.000733670211779
0.0075 0.0025 0.000524807204412
0.0075 0.0035 0.000291626553291
0.0075 0.0045 0.000122669239679
0.0075 0.0055 5.65591998201e-05
0.0075 0.0065 3.06309604645e-05
0.0075 0.0075 1.97703631104e-05
0.0075 0.0085 1.45843503684e-05
0.0075 0.0095 1.15684846311e-05
0.0075 0.0105 9.54201640048e-06
0.0075 0.0115 8.09807288476e-06
0.0075 0.0125 7.05881384509e-06
0.0075 0.0135 6.32378945751e-06
0.0075 0.0145 5.82682873291e-06
0.0075 0.0155 5.5194690381e-06
0.0075 0.0165 5.36346998922e-06
0.0075 0.0175 5.32668238153e-06
0.0075 0.0185 5.38053301635e-06
0.0075 0.0195 5.49912794634e-06
0.0075 0.0205 5.65907504114e-06
0.0075 0.0215 5.8389025566e-06
0.0075 0.0225 6.01737512435e-06
0.0075 0.0235 6.17061636373e-06
0.0075 0.0245 6.27023995523e-06
0.0075 0.0255 6.28293436264e-06
0.0075 0.0265 6.18489501087e-06
0.0075 0.0275 5.95574939843e-06
0.0075 0.0285 5.69614252015e-06
0.0075 0.0295 5.31415636499e-06
0.0075 0.0305 6.22142818261e-06
0.0075 0.0315 3.78654863374e-06
0.0085 -0.0315 4.63413945303e-06
0.0085 -0.0305 7.25068914158e-06
0.0085 -0.0295 5.45174596406e-06
0.0085 -0.0285 5.65572842176e-06
0.0085 -0.0275 5.82213237532e-06
0.0085 -0.0265 6.10814418757e-06
0.0085 -0.0255 6.3366275152e-06
0.0085 -0.0245 6.50495370014e-06
0.0085 -0.0235 6.60738199187e-06
0.0085 -0.0225 6.658722645e-06
0.0085 -0.0215 6.67529600005e-06
0.0085 -0.0205 6.68169335626e-06
0.0085 -0.0195 6.7377809082e-06
0.0085 -0.0185 7.01243167982e-06
0.0085 -0.0175 7.93783008102e-06
0.0085 -0.0165 1.05370625281e-05
0.0085 -0.0155 1.70375858224e-05
0.0085 -0.0145 3.21916647905e-05
0.0085 -0.0135 6.45125565747e-05
0.0085 -0.0125 0.000139929701238
0.0085 -0.0115 0.000270256138291
0.0085 -0.0105 0.000593829299417
0.0085 -0.0095 0.00221012088478
0.0085 -0.0085 0.00682124349362
0.0085 -0.0075 0.013283701556
0.0085 -0.0065 0.0175747215548
0.0085 -0.0055 0.0180076721732
0.0085 -0.0045 0.0156739399633
0.0085 -0.0035 0.0121555816277
0.0085 -0.0025 0.0089897282121
0.0085 -0.0015 0.00663910380533
0.0085 -0.0005 0.00470090068612
0.0085 0.0005 0.00301095882079
0.0085 0.0015 0.00182082207007
0.0085 0.0025 0.0010445200112
0.0085 0.0035 0.000493307914135
0.0085 0.0045 0.000188489601909
0.0085 0.0055 8.42954414487e-05
0.0085 0.0065 4.42755011669e-05
0.0085 0.0075 2.69460023351e-05
0.0085 0.0085 1.81999288127e-05
0.0085 0.0095 1.32379763963e-05
0.0085 0.0105 1.02016670851e-05
0.0085 0.0115 8.25470670483e-06
0.0085 0.0125 6.97754399042e-06
0.0085 0.0135 6.14967451602e-06
0.0085 0.0145 5.6407464652e-06
0.0085 0.0155 5.3657803922e-06
0.0085 0.0165 5.26406586334e-06
0.0085 0.0175 5.28787802007e-06
0.0085 0.0185 5.39783007233e-06
0.0085 0.0195 5.56121913129e-06
0.0085 0.0205 5.75106443265e-06
0.0085 0.0215 5.9443883888e-06
0.0085 0.0225 6.1192965399e-06
0.0085 0.0235 6.25185898896e-06
0.0085 0.0245 6.3158136576e-06
0.0085 0.0255 6.28447456227e-06
0.0085 0.0265 6.14578279179e-06
0.0085 0.0275 5.89212280306e-06
0.0085 0.0285 5.63873759487e-06
0.0085 0.0295 5.2930823557e-06
0.0085 0.0305 6.34777491435e-06
0.0085 0.0315 3.90901448416e-06
0.0095 -0.0315 4.68254543826e-06
0.0095 -0.0305 7.262569791e-06
0.0095 -0.0295 5.33361707088e-06
0.0095 -0.0285 5.4741106703e-06
0.0095 -0.0275 5.5959906426e-06
0.0095 -0.0265 5.86224743829e-06
0.0095 -0.0255 6.08715514174e-06
0.0095 -0.0245 6.26090845646e-06
0.0095 -0.0235 6.3730434312e-06
0.0095 -0.0225 6.44310002217e-06
0.0095 -0.0215 6.50632398454e-06
0.0095 -0.0205 6.62411122223e-06
0.0095 -0.0195 6.91148210626e-06
0.0095 -0.0185 7.61147233057e-06
0.0095 -0.0175 9.30005961837e-06
0.0095 -0.0165 1.33783174281e-05
0.0095 -0.0155 2.34071900219e-05
0.0095 -0.0145 4.97478506465e-05
0.0095 -0.0135 0.000121635669096
0.0095 -0.0125 0.000279442713874
0.0095 -0.0115 0.000540206101274
0.0095 -0.0105 0.00105669785968
0.0095 -0.0095 0.00260268166269
0.0095 -0.0085 0.00611970932883
0.0095 -0.0075 0.0107953854442
0.0095 -0.0065 0.0140929369521
0.0095 -0.0055 0.0147674140829
0.0095 -0.0045 0.0136982913711
0.0095 -0.0035 0.0123330467347
0.0095 -0.0025 0.0114351928728
0.0095 -0.0015 0.0104915707266
0.0095 -0.0005 0.00885377978235
0.0095 0.0005 0.00656791213007
0.0095 0.0015 0.00414200617541
0.0095 0.0025 0.00208096571048
0.0095 0.0035 0.000823915163858
0.0095 0.0045 0.000298265093956
0.0095 0.0055 0.000135624603743
0.0095 0.0065 7.25208057714e-05
0.0095 0.0075 4.19051091545e-05
0.0095 0.0085 2.55392409518e-05
0.0095 0.0095 1.66660780436e-05
0.0095 0.0105 1.16849560902e-05
0.0095 0.0115 8.76110393099e-06
0.0095 0.0125 7.0246698433e-06
0.0095 0.0135 6.01151118688e-06
0.0095 0.0145 5.45923258569e-06
0.0095 0.0155 5.21254668436e-06
0.0095 0.0165 5.16860267056e-06
0.0095 0.0175 5.25449293022e-06
0.0095 0.0185 5.4169607212e-06
0.0095 0.0195 5.6171892942e-06
0.0095 0.0205 5.82728218355e-06
0.0095 0.0215 6.02567699082e-06
0.0095 0.0225 6.19214049734e-06
0.0095 0.0235 6.30454567988e-06
0.0095 0.0245 6.34001197352e-06
0.0095 0.0255 6.27782937587e-06
0.0095 0.0265 6.1140021241e-06
0.0095 0.0275 5.84828938138e-06
0.0095 0.0285 5.60627440679e-06
0.0095 0.0295 5.29346824332e-06
0.0095 0.0305 6.48030215292e-06
0.0095 0.0315 4.02853226753e-06
0.0105 -0.0315 4.71928796766e-06
0.0105 -0.0305 7.27265385764e-06
0.0105 -0.0295 5.24681213547e-06
0.0105 -0.0285 5.33524860446e-06
0.0105 -0.0275 5.41680756327e-06
0.0105 -0.0265 5.65934355793e-06
0.0105 -0.0255 5.87178439812e-06
0.0105 -0.0245 6.0393501407e-06
0.0105 -0.0235 6.14972242324e-06
0.0105 -0.0225 6.2331034971e-06
0.0105 -0.0215 6.35710190171e-06
0.0105 -0.0205 6.64549017843e-06
0.0105 -0.0195 7.31988832298e-06
0.0105 -0.0185 8.78750617857e-06
0.0105 -0.0175 1.19044161322e-05
0.0105 -0.0165 1.87827297352e-05
0.0105 -0.0155 3.53099985136e-05
0.0105 -0.0145 8.1314653026e-05
0.0105 -0.0135 0.000237932567144
0.0105 -0.0125 0.000606038685599
0.0105 -0.0115 0.00131952492108
0.0105 -0.0105 0.00270512132399
0.0105 -0.0095 0.00502773919907
0.0105 -0.0085 0.00784435749435
0.0105 -0.0075 0.0101193417303
0.0105 -0.0065 0.0110465623646
0.0105 -0.0055 0.0105949629666
0.0105 -0.0045 0.00977593303556
0.0105 -0.0035 0.00994212684591
0.0105 -0.0025 0.010907875232
0.0105 -0.0015 0.0115542182154
0.0105 -0.0005 0.0113559546111
0.0105 0.0005 0.0102026702527
0.0105 0.0015 0.00770863967246
0.0105 0.0025 0.00412988045062
0.0105 0.0035 0.00148693307029
0.0105 0.0045 0.000544228532449
0.0105 0.0055 0.000277010456393
0.0105 0.0065 0.000148060926058
0.0105 0.0075 7.71581160206e-05
0.0105 0.0085 4.19334695645e-05
0.0105 0.0095 2.46892410307e-05
0.0105 0.0105 1.53609573667e-05
0.0105 0.0115 1.02911517354e-05
0.0105 0.0125 7.54638588605e-06
0.0105 0.0135 6.08793668438e-06
0.0105 0.0145 5.38516206261e-06
0.0105 0.0155 5.12621659292e-06
0.0105 0.0165 5.12197316528e-06
0.0105 0.0175 5.25656100194e-06
0.0105 0.0185 5.45745532815e-06
0.0105 0.0195 5.68102889522e-06
0.0105 0.0205 5.90152114931e-06
0.0105 0.0215 6.1005167795e-06
0.0105 0.0225 6.25944063377e-06
0.0105 0.0235 6.35699014194e-06
0.0105 0.0245 6.37208597327e-06
0.0105 0.0255 6.28769389484e-06
0.0105 0.0265 6.10522605291e-06
0.0105 0.0275 5.82974417953e-06
0.0105 0.0285 5.59648127586e-06
0.0105 0.0295 5.30919929072e-06
0.0105 0.0305 6.61669070192e-06
0.0105 0.0315 4.14618473853e-06
0.0115 -0.0315 4.75131528422e-06
0.0115 -0.0305 7.28533615053e-06
0.0115 -0.0295 5.18424933088e-06
0.0115 -0.0285 5.23110308252e-06
0.0115 -0.0275 5.27834815834e-06
0.0115 -0.0265 5.49898520498e-06
0.0115 -0.0255 5.70056390166e-06
0.0115 -0.0245 5.86635220226e-06
0.0115 -0.0235 5.98474663979e-06
0.0115 -0.0225 6.1021881167e-06
0.0115 -0.0215 6.33645100912e-06
0.0115 -0.0205 6.91885551107e-06
0.0115 -0.0195 8.27873532321e-06
0.0115 -0.0185 1.12466735079e-05
0.0115 -0.0175 1.74353324682e-05
0.0115 -0.0165 3.0100331353e-05
0.0115 -0.0155 6.01118744216e-05
0.0115 -0.0145 0.000139571818913
0.0115 -0.0135 0.000433881987026
0.0115 -0.0125 0.00127229859728
0.0115 -0.0115 0.00305859668361
0.0115 -0.0105 0.00579055398965
0.0115 -0.0095 0.00870548652628
0.0115 -0.0085 0.0106183462894
0.0115 -0.0075 0.0107416803473
0.0115 -0.0065 0.00917428129624
0.0115 -0.0055 0.00675352679525
0.0115 -0.0045 0.00513319339744
0.0115 -0.0035 0.00568410351917
0.0115 -0.0025 0.00714598713319
0.0115 -0.0015 0.00859142095931
0.0115 -0.0005 0.0101639742525
0.0115 0.0005 0.0116222181853
0.0115 0.0015 0.0112616956096
0.0115 0.0025 0.00771840213579
0.0115 0.0035 0.00350461905255
0.0115 0.0045 0.00144116326576
0.0115 0.0055 0.000768739958071
0.0115 0.0065 0.000368181226304
0.0115 0.0075 0.000161639581486
0.0115 0.0085 8.32106349515e-05
0.0115 0.0095 4.34495423806e-05
0.0115 0.0105 2.38698459073e-05
0.0115 0.0115 1.42000008017e-05
0.0115 0.0125 9.15159653785e-06
0.0115 0.0135 6.67388640364e-06
0.0115 0.0145 5.5827641419e-06
0.0115 0.0155 5.20156526788e-06
0.0115 0.0165 5.17861401684e-06
0.0115 0.0175 5.32332220411e-06
0.0115 0.0185 5.53506003044e-06
0.0115 0.0195 5.76517313522e-06
0.0115 0.0205 5.98984225482e-06
0.0115 0.0215 6.19112567427e-06
0.0115 0.0225 6.34812676058e-06
0.0115 0.0235 6.43682466347e-06
0.0115 0.0245 6.43559944113e-06
0.0115 0.0255 6.32989868553e-06
0.0115 0.0265 6.12630605485e-06
0.0115 0.0275 5.83565887121e-06
0.0115 0.0285 5.6037258234e-06
0.0115 0.0295 5.33328178955e-06
0.0115 0.0305 6.74727527772e-06
0.0115 0.0315 4.25532356551e-06
0.0125 -0.0315 4.77396573312e-06
0.0125 -0.0305 7.2940602906e-06
0.0125 -0.0295 5.13897634151e-06
0.0125 -0.0285 5.15200578996e-06
0.0125 -0.0275 5.17088387925e-06
0.0125 -0.0265 5.37357168375e-06
0.0125 -0.0255 5.57213529457e-06
0.0125 -0.0245 5.75462851563e-06
0.0125 -0.0235 5.91706169095e-06
0.0125 -0.0225 6.13243771816e-06
0.0125 -0.0215 6.59869001299e-06
0.0125 -0.0205 7.73512407141e-06
0.0125 -0.0195 1.03802969864e-05
0.0125 -0.0185 1.62951354822e-05
0.0125 -0.0175 2.9694987085e-05
0.0125 -0.0165 5.89943303735e-05
0.0125 -0.0155 0.000121339918146
0.0125 -0.0145 0.000310643318594
0.0125 -0.0135 0.000929559949361
0.0125 -0.0125 0.00274015387231
0.0125 -0.0115 0.00601636955489
0.0125 -0.0105 0.00941868441832
0.0125 -0.0095 0.0113927353385
0.0125 -0.0085 0.0113774089135
0.0125 -0.0075 0.00958529047655
0.0125 -0.0065 0.00673650114374
0.0125 -0.0055 0.00382982959401
0.0125 -0.0045 0.00202289886767
0.0125 -0.0035 0.00208408342951
0.0125 -0.0025 0.00284099331364
0.0125 -0.0015 0.00404119981781
0.0125 -0.0005 0.00628007433949
0.0125 0.0005 0.00973076249633
0.0125 0.0015 0.0125553050158
0.0125 0.0025 0.0117013051008
0.0125 0.0035 0.00761588474702
0.0125 0.0045 0.00389978479466
0.0125 0.0055 0.00193543849713
0.0125 0.0065 0.000930642779392
0.0125 0.0075 0.000427953541249
0.0125 0.0085 0.000199643997752
0.0125 0.0095 8.8018820013e-05
0.0125 0.0105 4.51907308535e-05
0.0125 0.0115 2.32508074041e-05
0.0125 0.0125 1.2870913976e-05
0.0125 0.0135 8.29554316118e-06
0.0125 0.0145 6.32378934266e-06
0.0125 0.0155 5.57615871802e-06
0.0125 0.0165 5.40064651286e-06
0.0125 0.0175 5.47906220941e-06
0.0125 0.0185 5.66119272564e-06
0.0125 0.0195 5.88303149571e-06
0.0125 0.0205 6.11324707515e-06
0.0125 0.0215 6.32461219574e-06
0.0125 0.0225 6.48633099068e-06
0.0125 0.0235 6.56782147574e-06
0.0125 0.0245 6.54636127774e-06
0.0125 0.0255 6.41123419295e-06
0.0125 0.0265 6.17625583222e-06
0.0125 0.0275 5.85990718231e-06
0.0125 0.0285 5.61980821807e-06
0.0125 0.0295 5.35774869753e-06
0.0125 0.0305 6.86708165191e-06
0.0125 0.0315 4.35441845659e-06
0.0135 -0.0315 4.79621300943e-06
0.0135 -0.0305 7.30479778982e-06
0.0135 -0.0295 5.10407130926e-06
0.0135 -0.0285 5.08987371449e-06
0.0135 -0.0275 5.08552076786e-06
0.0135 -0.0265 5.27485913543e-06
0.0135 -0.0255 5.48103582686e-06
0.0135 -0.0245 5.70872650538e-06
0.0135 -0.0235 5.97811735125e-06
0.0135 -0.0225 6.41397765989e-06
0.0135 -0.0215 7.35755774534e-06
0.0135 -0.0205 9.59571676852e-06
0.0135 -0.0195 1.47241130168e-05
0.0135 -0.0185 2.67118033068e-05
0.0135 -0.0175 5.62626623262e-05
0.0135 -0.0165 0.000140354765718
0.0135 -0.0155 0.000324271374581
0.0135 -0.0145 0.000788428358138
0.0135 -0.0135 0.00218032417358
0.0135 -0.0125 0.00541198300777
0.0135 -0.0115 0.00948085126457
0.0135 -0.0105 0.0117180500251
0.0135 -0.0095 0.011142241723
0.0135 -0.0085 0.0087370076453
0.0135 -0.0075 0.0057960090848
0.0135 -0.0065 0.00323932053756
0.0135 -0.0055 0.00155005652216
0.0135 -0.0045 0.000779895370945
0.0135 -0.0035 0.000676632150381
0.0135 -0.0025 0.000825004350155
0.0135 -0.0015 0.00138906745317
0.0135 -0.0005 0.00278017508744
0.0135 0.0005 0.00577200557113
0.0135 0.0015 0.0101760008017
0.0135 0.0025 0.0129826442217
0.0135 0.0035 0.0118197539653
0.0135 0.0045 0.00815093400108
0.0135 0.0055 0.00460475543423
0.0135 0.0065 0.00230357283142
0.0135 0.0075 0.00109770251525
0.0135 0.0085 0.000510409205039
0.0135 0.0095 0.000230276428143
0.0135 0.0105 0.000105402586857
0.0135 0.0115 4.36387648347e-05
0.0135 0.0125 2.1192587463e-05
0.0135 0.0135 1.19996170176e-05
0.0135 0.0145 8.09010991693e-06
0.0135 0.0155 6.44058717593e-06
0.0135 0.0165 5.85640017361e-06
0.0135 0.0175 5.74805076268e-06
0.0135 0.0185 5.85266546715e-06
0.0135 0.0195 6.0585980219e-06
0.0135 0.0205 6.30337990241e-06
0.0135 0.0215 6.53382005095e-06
0.0135 0.0225 6.70111218008e-06
0.0135 0.0235 6.76709672921e-06
0.0135 0.0245 6.71080876595e-06
0.0135 0.0255 6.52932071644e-06
0.0135 0.0265 6.24707962729e-06
0.0135 0.0275 5.89224142262e-06
0.0135 0.0285 5.63507795249e-06
0.0135 0.0295 5.37525213758e-06
0.0135 0.0305 6.97285055291e-06
0.0135 0.0315 4.44307900172e-06
0.0145 -0.0315 4.81513218071e-06
0.0145 -0.0305 7.31285580579e-06
0.0145 -0.0295 5.07474976751e-06
0.0145 -0.0285 5.03903086955e-06
0.0145 -0.0275 5.01710985958e-06
0.0145 -0.0265 5.20009623603e-06
0.0145 -0.0255 5.42919851576e-06
0.0145 -0.0245 5.74205689848e-06
0.0145 -0.0235 6.21440590384e-06
0.0145 -0.0225 7.07139788135e-06
0.0145 -0.0215 8.91141600415e-06
0.0145 -0.0205 1.32930900942e-05
0.0145 -0.0195 2.39574868778e-05
0.0145 -0.0185 4.99050094891e-05
0.0145 -0.0175 0.000124441458743
0.0145 -0.0165 0.000332643531896
0.0145 -0.0155 0.00078881587049
0.0145 -0.0145 0.00188521458016
0.0145 -0.0135 0.00458281903354
0.0145 -0.0125 0.00880421368036
0.0145 -0.0115 0.0118956830655
0.0145 -0.0105 0.0114698214996
0.0145 -0.0095 0.00831479665081
0.0145 -0.0085 0.00483973440982
0.0145 -0.0075 0.00240949463299