% Model:              Benchmark260518.mph
% Version:            COMSOL 6.2.0.339
% Date:               May 19 2026, 00:09
% Dimension:          2
% Nodes:              4096
% Expressions:        1
% Description:        速度大小
% Length unit:        m
% x                       y                        spf.U (m/s)
5.0E-4                    -0.0315                  1.0075418518470338E-6
5.0E-4                    -0.0305                  1.9869066687415926E-6
5.0E-4                    -0.0295                  2.1881793147854297E-6
5.0E-4                    -0.0285                  2.423580828876369E-6
5.0E-4                    -0.0275                  2.5325548492650295E-6
5.0E-4                    -0.0265                  2.630417011507864E-6
5.0E-4                    -0.0255                  2.6995224707650344E-6
5.0E-4                    -0.0245                  2.7554009139080377E-6
5.0E-4                    -0.0235                  2.802142057242617E-6
5.0E-4                    -0.0225                  2.842371731404215E-6
5.0E-4                    -0.0215                  2.8801565070613763E-6
5.0E-4                    -0.0205                  2.9152828687132983E-6
5.0E-4                    -0.0195                  2.9485181668013777E-6
5.0E-4                    -0.0185                  2.982849984232213E-6
5.0E-4                    -0.0175                  3.0183694853144177E-6
5.0E-4                    -0.0165                  3.056553770040968E-6
5.0E-4                    -0.0155                  3.10057428587401E-6
5.0E-4                    -0.0145                  3.1495495581257006E-6
5.0E-4                    -0.0135                  3.2004401213101145E-6
5.0E-4                    -0.0125                  3.250931728471657E-6
5.0E-4                    -0.0115                  3.3028279015258942E-6
5.0E-4                    -0.0105                  3.3533563334652547E-6
5.0E-4                    -0.0095                  3.3959113870327093E-6
5.0E-4                    -0.0085                  3.4310750362922286E-6
5.0E-4                    -0.0075                  3.4562079758769585E-6
5.0E-4                    -0.0065                  3.4762062172935167E-6
5.0E-4                    -0.0055                  3.5004333623023303E-6
5.0E-4                    -0.0045                  3.5336638725366034E-6
5.0E-4                    -0.0035                  3.5863998284444525E-6
5.0E-4                    -0.0025                  3.6640306326663893E-6
5.0E-4                    -0.0015                  3.792928138991575E-6
5.0E-4                    -5.0E-4                  3.992276182583105E-6
5.0E-4                    5.0E-4                   4.300760957176414E-6
5.0E-4                    0.0015                   4.778004805311917E-6
5.0E-4                    0.0025                   5.57005539534558E-6
5.0E-4                    0.0035                   6.906340196576703E-6
5.0E-4                    0.0045                   1.045403421680585E-5
5.0E-4                    0.0055                   2.190479925664998E-5
5.0E-4                    0.0065                   5.504922743721644E-5
5.0E-4                    0.0075                   1.458513319984516E-4
5.0E-4                    0.0085                   2.9097283260486447E-4
5.0E-4                    0.0095                   4.2360629346548345E-4
5.0E-4                    0.0105                   5.098674098081057E-4
5.0E-4                    0.0115                   5.790507050548068E-4
5.0E-4                    0.0125                   6.729644496919399E-4
5.0E-4                    0.0135                   7.715711348452443E-4
5.0E-4                    0.0145                   8.273101223810538E-4
5.0E-4                    0.0155                   8.368292822781917E-4
5.0E-4                    0.0165                   8.727244624285348E-4
5.0E-4                    0.0175                   0.0011923906918732993
5.0E-4                    0.0185                   0.0024517781725598023
5.0E-4                    0.0195                   0.005556199725008797
5.0E-4                    0.0205                   0.013291013786762848
5.0E-4                    0.0215                   0.01785982615971187
5.0E-4                    0.0225                   0.01496623053834617
5.0E-4                    0.0235                   0.011369695151630761
5.0E-4                    0.0245                   0.00745559762389539
5.0E-4                    0.0255                   0.004005411358817498
5.0E-4                    0.0265                   0.0015860165653624496
5.0E-4                    0.0275                   4.320814560908268E-4
5.0E-4                    0.0285                   1.2157188884863585E-4
5.0E-4                    0.0295                   5.9754110974592814E-5
5.0E-4                    0.0305                   2.014431791916904E-5
5.0E-4                    0.0315                   6.025626327363332E-6
0.0015                    -0.0315                  1.949911449774403E-6
0.0015                    -0.0305                  3.7895226641270265E-6
0.0015                    -0.0295                  3.980021068159602E-6
0.0015                    -0.0285                  4.219094334907877E-6
0.0015                    -0.0275                  4.281289434004059E-6
0.0015                    -0.0265                  4.343207046720427E-6
0.0015                    -0.0255                  4.384750120112463E-6
0.0015                    -0.0245                  4.4208178942913226E-6
0.0015                    -0.0235                  4.453800475793169E-6
0.0015                    -0.0225                  4.48542850306669E-6
0.0015                    -0.0215                  4.518744965557601E-6
0.0015                    -0.0205                  4.553321022846646E-6
0.0015                    -0.0195                  4.5899285864123145E-6
0.0015                    -0.0185                  4.63168514094188E-6
0.0015                    -0.0175                  4.679291992974438E-6
0.0015                    -0.0165                  4.73487713833155E-6
0.0015                    -0.0155                  4.802057564861403E-6
0.0015                    -0.0145                  4.880191512210763E-6
0.0015                    -0.0135                  4.965803317053744E-6
0.0015                    -0.0125                  5.0555233220730894E-6
0.0015                    -0.0115                  5.1486919439900126E-6
0.0015                    -0.0105                  5.239077612823857E-6
0.0015                    -0.0095                  5.316392906933881E-6
0.0015                    -0.0085                  5.377365529166783E-6
0.0015                    -0.0075                  5.4180084027044E-6
0.0015                    -0.0065                  5.444072414485393E-6
0.0015                    -0.0055                  5.468732598601048E-6
0.0015                    -0.0045                  5.504599440752987E-6
0.0015                    -0.0035                  5.572600759292538E-6
0.0015                    -0.0025                  5.693619720605372E-6
0.0015                    -0.0015                  5.911409270265316E-6
0.0015                    -5.0E-4                  6.271165978793772E-6
0.0015                    5.0E-4                   6.8530561660510025E-6
0.0015                    0.0015                   7.795388598659625E-6
0.0015                    0.0025                   9.39995858576013E-6
0.0015                    0.0035                   1.2393416093597264E-5
0.0015                    0.0045                   1.9856495055469032E-5
0.0015                    0.0055                   4.101994022206835E-5
0.0015                    0.0065                   9.967031059711926E-5
0.0015                    0.0075                   2.7145267350704196E-4
0.0015                    0.0085                   5.883640995959478E-4
0.0015                    0.0095                   0.001028357715542266
0.0015                    0.0105                   0.001650892316303223
0.0015                    0.0115                   0.002487730205167778
0.0015                    0.0125                   0.00340380214130924
0.0015                    0.0135                   0.004218807372711431
0.0015                    0.0145                   0.004854218297378337
0.0015                    0.0155                   0.0053655738099158195
0.0015                    0.0165                   0.005979193482378863
0.0015                    0.0175                   0.007180689129251934
0.0015                    0.0185                   0.009773819162468469
0.0015                    0.0195                   0.014171602015931659
0.0015                    0.0205                   0.01779898301868759
0.0015                    0.0215                   0.017118190746145442
0.0015                    0.0225                   0.013467068100493966
0.0015                    0.0235                   0.009524400783732007
0.0015                    0.0245                   0.005733367344943869
0.0015                    0.0255                   0.002725084632832565
0.0015                    0.0265                   9.603461680807007E-4
0.0015                    0.0275                   3.349885410155968E-4
0.0015                    0.0285                   2.1565483771897784E-4
0.0015                    0.0295                   1.1688662539787039E-4
0.0015                    0.0305                   4.3230590554780965E-5
0.0015                    0.0315                   1.3065342107085605E-5
0.0025                    -0.0315                  2.075619639704219E-6
0.0025                    -0.0305                  3.855287233395596E-6
0.0025                    -0.0295                  3.7834508602429993E-6
0.0025                    -0.0285                  3.881811213824192E-6
0.0025                    -0.0275                  3.814449928937018E-6
0.0025                    -0.0265                  3.7436289688987334E-6
0.0025                    -0.0255                  3.673447782971029E-6
0.0025                    -0.0245                  3.61548579496294E-6
0.0025                    -0.0235                  3.569101420580346E-6
0.0025                    -0.0225                  3.534184108131969E-6
0.0025                    -0.0215                  3.5097155162111954E-6
0.0025                    -0.0205                  3.4955198889516487E-6
0.0025                    -0.0195                  3.4918586116761918E-6
0.0025                    -0.0185                  3.499430135239812E-6
0.0025                    -0.0175                  3.5194901449113115E-6
0.0025                    -0.0165                  3.553401548267322E-6
0.0025                    -0.0155                  3.602323833334864E-6
0.0025                    -0.0145                  3.6668232358278014E-6
0.0025                    -0.0135                  3.7460829613183107E-6
0.0025                    -0.0125                  3.837531110114603E-6
0.0025                    -0.0115                  3.935769603100805E-6
0.0025                    -0.0105                  4.03261151293773E-6
0.0025                    -0.0095                  4.118235164660108E-6
0.0025                    -0.0085                  4.182992775262811E-6
0.0025                    -0.0075                  4.221345783279881E-6
0.0025                    -0.0065                  4.233497773469534E-6
0.0025                    -0.0055                  4.227661473850687E-6
0.0025                    -0.0045                  4.222164000807679E-6
0.0025                    -0.0035                  4.2456724282428335E-6
0.0025                    -0.0025                  4.339199829299436E-6
0.0025                    -0.0015                  4.553475501312958E-6
0.0025                    -5.0E-4                  4.9581875944906836E-6
0.0025                    5.0E-4                   5.666702445405602E-6
0.0025                    0.0015                   6.909964965428285E-6
0.0025                    0.0025                   9.182707570076415E-6
0.0025                    0.0035                   1.3759758246052897E-5
0.0025                    0.0045                   2.407717289032252E-5
0.0025                    0.0055                   4.9338436719742944E-5
0.0025                    0.0065                   1.1832884912843992E-4
0.0025                    0.0075                   3.6048916328397014E-4
0.0025                    0.0085                   9.405293927365917E-4
0.0025                    0.0095                   0.0020830174853645514
0.0025                    0.0105                   0.003981446161729551
0.0025                    0.0115                   0.006359778714497101
0.0025                    0.0125                   0.00862281334097039
0.0025                    0.0135                   0.010427934686472786
0.0025                    0.0145                   0.011762293745826513
0.0025                    0.0155                   0.012799727051190608
0.0025                    0.0165                   0.013792854013930602
0.0025                    0.0175                   0.014994350149857455
0.0025                    0.0185                   0.0164842733878348
0.0025                    0.0195                   0.017633608323967584
0.0025                    0.0205                   0.017288954911276095
0.0025                    0.0215                   0.01468672835393343
0.0025                    0.0225                   0.010818034604518878
0.0025                    0.0235                   0.007069243367611698
0.0025                    0.0245                   0.003840393923665839
0.0025                    0.0255                   0.0016346659906254796
0.0025                    0.0265                   5.711517767191163E-4
0.0025                    0.0275                   2.637191823547115E-4
0.0025                    0.0285                   1.9626837040455754E-4
0.0025                    0.0295                   1.1939342415547966E-4
0.0025                    0.0305                   4.952888838499218E-5
0.0025                    0.0315                   1.5593117094303856E-5
0.0035                    -0.0315                  2.2736375370597957E-6
0.0035                    -0.0305                  4.034949640753296E-6
0.0035                    -0.0295                  3.82998160429591E-6
0.0035                    -0.0285                  4.0358471944843125E-6
0.0035                    -0.0275                  4.036234858814091E-6
0.0035                    -0.0265                  3.99594475345745E-6
0.0035                    -0.0255                  3.925270703425407E-6
0.0035                    -0.0245                  3.8541628480220646E-6
0.0035                    -0.0235                  3.7885783798272256E-6
0.0035                    -0.0225                  3.7319628378061E-6
0.0035                    -0.0215                  3.6852618446973256E-6
0.0035                    -0.0205                  3.6493106205788504E-6
0.0035                    -0.0195                  3.6252274596412952E-6
0.0035                    -0.0185                  3.6145607734603086E-6
0.0035                    -0.0175                  3.6191071659651943E-6
0.0035                    -0.0165                  3.6407942373293862E-6
0.0035                    -0.0155                  3.681531827865236E-6
0.0035                    -0.0145                  3.7428890255915548E-6
0.0035                    -0.0135                  3.825531396992069E-6
0.0035                    -0.0125                  3.928198831777713E-6
0.0035                    -0.0115                  4.046442264894174E-6
0.0035                    -0.0105                  4.171525742812937E-6
0.0035                    -0.0095                  4.2906142268408655E-6
0.0035                    -0.0085                  4.388963862826706E-6
0.0035                    -0.0075                  4.45336716069509E-6
0.0035                    -0.0065                  4.476548734818506E-6
0.0035                    -0.0055                  4.461599479603662E-6
0.0035                    -0.0045                  4.426606103109455E-6
0.0035                    -0.0035                  4.40976060835863E-6
0.0035                    -0.0025                  4.473304207833968E-6
0.0035                    -0.0015                  4.706506672012642E-6
0.0035                    -5.0E-4                  5.234869012007082E-6
0.0035                    5.0E-4                   6.269392724094712E-6
0.0035                    0.0015                   8.257506927169843E-6
0.0035                    0.0025                   1.2248202543474934E-5
0.0035                    0.0035                   2.0541490833761234E-5
0.0035                    0.0045                   3.8040434793783586E-5
0.0035                    0.0055                   8.03302827749748E-5
0.0035                    0.0065                   1.9413998964793589E-4
0.0035                    0.0075                   6.179113565750775E-4
0.0035                    0.0085                   0.0019246080957047902
0.0035                    0.0095                   0.004616251743050407
0.0035                    0.0105                   0.00815971824556999
0.0035                    0.0115                   0.011472490165181278
0.0035                    0.0125                   0.01396883713734976
0.0035                    0.0135                   0.01566767555524627
0.0035                    0.0145                   0.016795038970815936
0.0035                    0.0155                   0.01750212764085154
0.0035                    0.0165                   0.017881541875695472
0.0035                    0.0175                   0.0179503238027746
0.0035                    0.0185                   0.01755766719034515
0.0035                    0.0195                   0.016403836786576285
0.0035                    0.0205                   0.014156799018319486
0.0035                    0.0215                   0.010884730613161796
0.0035                    0.0225                   0.007423841838873788
0.0035                    0.0235                   0.004439380144778517
0.0035                    0.0245                   0.002181382097145268
0.0035                    0.0255                   8.928067636390535E-4
0.0035                    0.0265                   3.8668748447915827E-4
0.0035                    0.0275                   2.587116994684147E-4
0.0035                    0.0285                   1.9513611247199032E-4
0.0035                    0.0295                   1.0943804140936853E-4
0.0035                    0.0305                   5.10446422598481E-5
0.0035                    0.0315                   1.8103934243775368E-5
0.0045                    -0.0315                  2.3887798874518043E-6
0.0045                    -0.0305                  4.095346165166539E-6
0.0045                    -0.0295                  3.736562000846156E-6
0.0045                    -0.0285                  4.003032724804343E-6
0.0045                    -0.0275                  4.100866714623327E-6
0.0045                    -0.0265                  4.139549679502594E-6
0.0045                    -0.0255                  4.113005824817504E-6
0.0045                    -0.0245                  4.0606644215538566E-6
0.0045                    -0.0235                  3.9981310720781565E-6
0.0045                    -0.0225                  3.934955079867384E-6
0.0045                    -0.0215                  3.875604474077849E-6
0.0045                    -0.0205                  3.8232620999776295E-6
0.0045                    -0.0195                  3.780834703566765E-6
0.0045                    -0.0185                  3.7514003407978506E-6
0.0045                    -0.0175                  3.738129442838332E-6
0.0045                    -0.0165                  3.744095927880455E-6
0.0045                    -0.0155                  3.7721705303440086E-6
0.0045                    -0.0145                  3.825012263214127E-6
0.0045                    -0.0135                  3.9048482814743634E-6
0.0045                    -0.0125                  4.0126612899564215E-6
0.0045                    -0.0115                  4.146541973817405E-6
0.0045                    -0.0105                  4.2995788816845935E-6
0.0045                    -0.0095                  4.4583685746099206E-6
0.0045                    -0.0085                  4.603605912852755E-6
0.0045                    -0.0075                  4.713728151686715E-6
0.0045                    -0.0065                  4.771152119282042E-6
0.0045                    -0.0055                  4.770190113021367E-6
0.0045                    -0.0045                  4.726413165350295E-6
0.0045                    -0.0035                  4.68819329994407E-6
0.0045                    -0.0025                  4.75095951939161E-6
0.0045                    -0.0015                  5.074858829787101E-6
0.0045                    -5.0E-4                  5.906995229147945E-6
0.0045                    5.0E-4                   7.649589127796222E-6
0.0045                    0.0015                   1.1159176194659624E-5
0.0045                    0.0025                   1.8562853711589478E-5
0.0045                    0.0035                   3.554313879406692E-5
0.0045                    0.0045                   7.412188174488161E-5
0.0045                    0.0055                   1.5847486131995834E-4
0.0045                    0.0065                   4.191352463679986E-4
0.0045                    0.0075                   0.0012976960575195986
0.0045                    0.0085                   0.004025397650142056
0.0045                    0.0095                   0.00866359619224501
0.0045                    0.0105                   0.012893609189624346
0.0045                    0.0115                   0.01529917151503239
0.0045                    0.0125                   0.01627000026672339
0.0045                    0.0135                   0.01648421182276819
0.0045                    0.0145                   0.016368083123336246
0.0045                    0.0155                   0.016120524926878436
0.0045                    0.0165                   0.015708716236972144
0.0045                    0.0175                   0.014979001845100192
0.0045                    0.0185                   0.013728654664403999
0.0045                    0.0195                   0.011795764632250683
0.0045                    0.0205                   0.009257726791825271
0.0045                    0.0215                   0.006525380306102715
0.0045                    0.0225                   0.004103167015405461
0.0045                    0.0235                   0.0022557882208382417
0.0045                    0.0245                   0.0010827259313779792
0.0045                    0.0255                   5.391129900654719E-4
0.0045                    0.0265                   3.498432301944983E-4
0.0045                    0.0275                   2.818105138870763E-4
0.0045                    0.0285                   1.9116823874922007E-4
0.0045                    0.0295                   9.231553808604203E-5
0.0045                    0.0305                   4.8256654206260514E-5
0.0045                    0.0315                   2.0067393678498437E-5
0.0055                    -0.0315                  2.498829464963779E-6
0.0055                    -0.0305                  4.166579691942049E-6
0.0055                    -0.0295                  3.649011282189831E-6
0.0055                    -0.0285                  3.9351254926183615E-6
0.0055                    -0.0275                  4.106290720292238E-6
0.0055                    -0.0265                  4.236500384176935E-6
0.0055                    -0.0255                  4.284004156488792E-6
0.0055                    -0.0245                  4.2813476488833715E-6
0.0055                    -0.0235                  4.247717369477218E-6
0.0055                    -0.0225                  4.19805947720232E-6
0.0055                    -0.0215                  4.140762295762651E-6
0.0055                    -0.0205                  4.081804119329633E-6
0.0055                    -0.0195                  4.026387287655138E-6
0.0055                    -0.0185                  3.979793599689301E-6
0.0055                    -0.0175                  3.947336494963636E-6
0.0055                    -0.0165                  3.934014147058131E-6
0.0055                    -0.0155                  3.944250084620801E-6
0.0055                    -0.0145                  3.981964175440306E-6
0.0055                    -0.0135                  4.050861893649271E-6
0.0055                    -0.0125                  4.15439492799793E-6
0.0055                    -0.0115                  4.294627691031083E-6
0.0055                    -0.0105                  4.469532075474272E-6
0.0055                    -0.0095                  4.669365167463485E-6
0.0055                    -0.0085                  4.874285975535276E-6
0.0055                    -0.0075                  5.056013948872803E-6
0.0055                    -0.0065                  5.1853013646418125E-6
0.0055                    -0.0055                  5.2449442399564955E-6
0.0055                    -0.0045                  5.247316428282187E-6
0.0055                    -0.0035                  5.258037453446809E-6
0.0055                    -0.0025                  5.428350253583009E-6
0.0055                    -0.0015                  6.039598318768441E-6
0.0055                    -5.0E-4                  7.5876311782175064E-6
0.0055                    5.0E-4                   1.0897552238557413E-5
0.0055                    0.0015                   1.7445000133802024E-5
0.0055                    0.0025                   3.172990175881005E-5
0.0055                    0.0035                   6.732924628623853E-5
0.0055                    0.0045                   1.7217329837484644E-4
0.0055                    0.0055                   4.1061235509951656E-4
0.0055                    0.0065                   0.0010190473120133055
0.0055                    0.0075                   0.002975430144395629
0.0055                    0.0085                   0.00764813693230787
0.0055                    0.0095                   0.013309248197386872
0.0055                    0.0105                   0.016317995354387427
0.0055                    0.0115                   0.01617736426016747
0.0055                    0.0125                   0.014469224427112484
0.0055                    0.0135                   0.01251697446164204
0.0055                    0.0145                   0.010992555791486903
0.0055                    0.0155                   0.009996977099824843
0.0055                    0.0165                   0.009276895211914417
0.0055                    0.0175                   0.008499543859722344
0.0055                    0.0185                   0.007440147417298813
0.0055                    0.0195                   0.006051503835244825
0.0055                    0.0205                   0.004474978286390862
0.0055                    0.0215                   0.002965025800980748
0.0055                    0.0225                   0.0017558177048424674
0.0055                    0.0235                   9.736204531799918E-4
0.0055                    0.0245                   6.00783417879479E-4
0.0055                    0.0255                   4.5306384981564745E-4
0.0055                    0.0265                   3.7089536754967423E-4
0.0055                    0.0275                   2.8776488159002324E-4
0.0055                    0.0285                   1.7394943910710667E-4
0.0055                    0.0295                   8.103492901658554E-5
0.0055                    0.0305                   4.645625583858009E-5
0.0055                    0.0315                   2.185876525095352E-5
0.0065                    -0.0315                  2.583248762406446E-6
0.0065                    -0.0305                  4.2208654120333485E-6
0.0065                    -0.0295                  3.5621441585110654E-6
0.0065                    -0.0285                  3.835864984218145E-6
0.0065                    -0.0275                  4.042957933525762E-6
0.0065                    -0.0265                  4.244101940651029E-6
0.0065                    -0.0255                  4.368099193929835E-6
0.0065                    -0.0245                  4.430685196957851E-6
0.0065                    -0.0235                  4.445087309298792E-6
0.0065                    -0.0225                  4.426818449416324E-6
0.0065                    -0.0215                  4.386308650831492E-6
0.0065                    -0.0205                  4.3315230636820465E-6
0.0065                    -0.0195                  4.269625759088767E-6
0.0065                    -0.0185                  4.20819208649861E-6
0.0065                    -0.0175                  4.1552516313394834E-6
0.0065                    -0.0165                  4.118636504054076E-6
0.0065                    -0.0155                  4.105217588989436E-6
0.0065                    -0.0145                  4.120653942698258E-6
0.0065                    -0.0135                  4.169928561885793E-6
0.0065                    -0.0125                  4.258328793587094E-6
0.0065                    -0.0115                  4.391842699353098E-6
0.0065                    -0.0105                  4.575552000313177E-6
0.0065                    -0.0095                  4.809084732191416E-6
0.0065                    -0.0085                  5.0803749916163724E-6
0.0065                    -0.0075                  5.362094508605619E-6
0.0065                    -0.0065                  5.616907464550286E-6
0.0065                    -0.0055                  5.81621922072362E-6