% Model:              Benchmark260518.mph
% Version:            COMSOL 6.2.0.339
% Date:               May 19 2026, 06:35
% Dimension:          2
% Nodes:              4096
% Expressions:        1
% Description:        速度大小
% Length unit:        m
% x                       y                        spf.U (m/s)
5.0E-4                    -0.0315                  2.4326175555675744E-6
5.0E-4                    -0.0305                  4.833496324010453E-6
5.0E-4                    -0.0295                  5.3965840950109874E-6
5.0E-4                    -0.0285                  6.054687087123625E-6
5.0E-4                    -0.0275                  6.4414487855877935E-6
5.0E-4                    -0.0265                  6.82935779598159E-6
5.0E-4                    -0.0255                  7.163061739601361E-6
5.0E-4                    -0.0245                  7.485634225083057E-6
5.0E-4                    -0.0235                  7.778153624260071E-6
5.0E-4                    -0.0225                  8.022487527304589E-6
5.0E-4                    -0.0215                  8.212400670685236E-6
5.0E-4                    -0.0205                  8.354283286257221E-6
5.0E-4                    -0.0195                  8.461322003345687E-6
5.0E-4                    -0.0185                  8.572503940999934E-6
5.0E-4                    -0.0175                  8.714967790041069E-6
5.0E-4                    -0.0165                  8.89853865960631E-6
5.0E-4                    -0.0155                  9.210184015644502E-6
5.0E-4                    -0.0145                  9.741157887590975E-6
5.0E-4                    -0.0135                  1.0666485546884441E-5
5.0E-4                    -0.0125                  1.2470009097331789E-5
5.0E-4                    -0.0115                  1.5894297657282015E-5
5.0E-4                    -0.0105                  2.5062604699792604E-5
5.0E-4                    -0.0095                  5.180217504123087E-5
5.0E-4                    -0.0085                  1.2832737721200154E-4
5.0E-4                    -0.0075                  2.136582473558624E-4
5.0E-4                    -0.0065                  2.0885950286622567E-4
5.0E-4                    -0.0055                  2.4347032256422156E-4
5.0E-4                    -0.0045                  4.6429766720138276E-4
5.0E-4                    -0.0035                  6.725420472966396E-4
5.0E-4                    -0.0025                  7.959007246505092E-4
5.0E-4                    -0.0015                  8.592165895705871E-4
5.0E-4                    -5.0E-4                  8.963429448694793E-4
5.0E-4                    5.0E-4                   8.976849025384374E-4
5.0E-4                    0.0015                   7.700046472972125E-4
5.0E-4                    0.0025                   4.920193660102067E-4
5.0E-4                    0.0035                   0.004309966946833255
5.0E-4                    0.0045                   0.01670571374450969
5.0E-4                    0.0055                   0.027134900253783727
5.0E-4                    0.0065                   0.027877259550034783
5.0E-4                    0.0075                   0.02634723107397913
5.0E-4                    0.0085                   0.022897042494376817
5.0E-4                    0.0095                   0.01821153745948303
5.0E-4                    0.0105                   0.013112756147478557
5.0E-4                    0.0115                   0.006481213029291947
5.0E-4                    0.0125                   0.0015533781601168209
5.0E-4                    0.0135                   4.41258312180128E-4
5.0E-4                    0.0145                   3.7131699766156546E-4
5.0E-4                    0.0155                   3.6355842786184376E-4
5.0E-4                    0.0165                   2.665540476468679E-4
5.0E-4                    0.0175                   1.292005180144745E-4
5.0E-4                    0.0185                   4.436935893242439E-5
5.0E-4                    0.0195                   1.8424623985456135E-5
5.0E-4                    0.0205                   1.0429755531055006E-5
5.0E-4                    0.0215                   7.927948621963243E-6
5.0E-4                    0.0225                   6.752898393947228E-6
5.0E-4                    0.0235                   6.041006750323611E-6
5.0E-4                    0.0245                   5.5409718224431325E-6
5.0E-4                    0.0255                   5.1517111465971825E-6
5.0E-4                    0.0265                   4.822987830640502E-6
5.0E-4                    0.0275                   4.513756233445372E-6
5.0E-4                    0.0285                   4.224052884415028E-6
5.0E-4                    0.0295                   3.7603920745971712E-6
5.0E-4                    0.0305                   3.3419108303870566E-6
5.0E-4                    0.0315                   1.6626132683702686E-6
0.0015                    -0.0315                  4.695138639848634E-6
0.0015                    -0.0305                  9.171724448109455E-6
0.0015                    -0.0295                  9.735485490697866E-6
0.0015                    -0.0285                  1.0444381954094696E-5
0.0015                    -0.0275                  1.0772038727447255E-5
0.0015                    -0.0265                  1.1145863387858274E-5
0.0015                    -0.0255                  1.1502720549587804E-5
0.0015                    -0.0245                  1.1874608346459987E-5
0.0015                    -0.0235                  1.2224037866997395E-5
0.0015                    -0.0225                  1.2512172449724542E-5
0.0015                    -0.0215                  1.2718181615143354E-5
0.0015                    -0.0205                  1.284621112119432E-5
0.0015                    -0.0195                  1.2921182777649668E-5
0.0015                    -0.0185                  1.3000496069874932E-5
0.0015                    -0.0175                  1.313538005481436E-5
0.0015                    -0.0165                  1.3372957762574075E-5
0.0015                    -0.0155                  1.3854859669575216E-5
0.0015                    -0.0145                  1.478713861207825E-5
0.0015                    -0.0135                  1.6604407895152285E-5
0.0015                    -0.0125                  2.0367368687470212E-5
0.0015                    -0.0115                  2.8520310420532413E-5
0.0015                    -0.0105                  4.889917380956582E-5
0.0015                    -0.0095                  9.91661944174942E-5
0.0015                    -0.0085                  2.224298123977352E-4
0.0015                    -0.0075                  3.6524930875109023E-4
0.0015                    -0.0065                  4.6579496833166085E-4
0.0015                    -0.0055                  6.073601999829735E-4
0.0015                    -0.0045                  5.325471134232048E-4
0.0015                    -0.0035                  2.0127504688148288E-4
0.0015                    -0.0025                  2.397731011161822E-4
0.0015                    -0.0015                  6.648298412417277E-4
0.0015                    -5.0E-4                  0.0011160046090731106
0.0015                    5.0E-4                   0.001735901818684545
0.0015                    0.0015                   0.0029868909002616416
0.0015                    0.0025                   0.006046099526895516
0.0015                    0.0035                   0.013118198647567296
0.0015                    0.0045                   0.021854961877911357
0.0015                    0.0055                   0.025915273329246216
0.0015                    0.0065                   0.025334264230308743
0.0015                    0.0075                   0.023261527515768987
0.0015                    0.0085                   0.020111908684395833
0.0015                    0.0095                   0.016543795006369127
0.0015                    0.0105                   0.013142829275467217
0.0015                    0.0115                   0.00933364470454207
0.0015                    0.0125                   0.005340264159164201
0.0015                    0.0135                   0.0025953846521039833
0.0015                    0.0145                   0.0013933749025640278
0.0015                    0.0155                   8.670233861562996E-4
0.0015                    0.0165                   5.296907689245475E-4
0.0015                    0.0175                   2.4525055088436045E-4
0.0015                    0.0185                   8.548120346089753E-5
0.0015                    0.0195                   3.5326827012114376E-5
0.0015                    0.0205                   1.894568692680369E-5
0.0015                    0.0215                   1.339010964716147E-5
0.0015                    0.0225                   1.102201818706908E-5
0.0015                    0.0235                   9.748489875846057E-6
0.0015                    0.0245                   8.95025352215876E-6
0.0015                    0.0255                   8.402212791527802E-6
0.0015                    0.0265                   8.004701406636473E-6
0.0015                    0.0275                   7.68637291381146E-6
0.0015                    0.0285                   7.431767986626328E-6
0.0015                    0.0295                   6.911233722925536E-6
0.0015                    0.0305                   6.426353944688511E-6
0.0015                    0.0315                   3.2469214142625397E-6
0.0025                    -0.0315                  4.958215703877186E-6
0.0025                    -0.0305                  9.233760742293446E-6
0.0025                    -0.0295                  9.111069617981843E-6
0.0025                    -0.0285                  9.416531799832394E-6
0.0025                    -0.0275                  9.352325199288611E-6
0.0025                    -0.0265                  9.327153393518442E-6
0.0025                    -0.0255                  9.349522971528589E-6
0.0025                    -0.0245                  9.430151669465823E-6
0.0025                    -0.0235                  9.53312821118917E-6
0.0025                    -0.0225                  9.612047113010405E-6
0.0025                    -0.0215                  9.62602380147815E-6
0.0025                    -0.0205                  9.561025274065003E-6
0.0025                    -0.0195                  9.439689635873333E-6
0.0025                    -0.0185                  9.31353004191321E-6
0.0025                    -0.0175                  9.25523486816219E-6
0.0025                    -0.0165                  9.3696552028424E-6
0.0025                    -0.0155                  9.822355092498015E-6
0.0025                    -0.0145                  1.0934636871187224E-5
0.0025                    -0.0135                  1.3387116849893506E-5
0.0025                    -0.0125                  1.8690052929846316E-5
0.0025                    -0.0115                  3.0449748046957496E-5
0.0025                    -0.0105                  5.8499163110794304E-5
0.0025                    -0.0095                  1.2699608185431298E-4
0.0025                    -0.0085                  2.4977736464658063E-4
0.0025                    -0.0075                  4.0756832939056807E-4
0.0025                    -0.0065                  7.152071920556423E-4
0.0025                    -0.0055                  0.0013631594652745863
0.0025                    -0.0045                  0.002674636361615976
0.0025                    -0.0035                  0.004513227168075274
0.0025                    -0.0025                  0.006410438761404573
0.0025                    -0.0015                  0.00817051463787243
0.0025                    -5.0E-4                  0.009785623863790931
0.0025                    5.0E-4                   0.011437222295547868
0.0025                    0.0015                   0.013567002985546384
0.0025                    0.0025                   0.016675926325291378
0.0025                    0.0035                   0.020422510230387526
0.0025                    0.0045                   0.0232083919296356
0.0025                    0.0055                   0.023415806116957028
0.0025                    0.0065                   0.021541131758951983
0.0025                    0.0075                   0.01897385080412738
0.0025                    0.0085                   0.0163589104772565
0.0025                    0.0095                   0.014480408639887045
0.0025                    0.0105                   0.013534537189300503
0.0025                    0.0115                   0.012450810009887141
0.0025                    0.0125                   0.010183462592363801
0.0025                    0.0135                   0.006906936146912967
0.0025                    0.0145                   0.003777119510012312
0.0025                    0.0155                   0.0017782339464376556
0.0025                    0.0165                   8.175215449142228E-4
0.0025                    0.0175                   3.241666472239656E-4
0.0025                    0.0185                   1.0565196902064619E-4
0.0025                    0.0195                   4.212632626372102E-5
0.0025                    0.0205                   2.058617962705093E-5
0.0025                    0.0215                   1.2705867777390928E-5
0.0025                    0.0225                   9.558393164709233E-6
0.0025                    0.0235                   8.138761746761005E-6
0.0025                    0.0245                   7.429535689410757E-6
0.0025                    0.0255                   7.079070911843907E-6
0.0025                    0.0265                   6.941603735664518E-6
0.0025                    0.0275                   6.915668924196552E-6
0.0025                    0.0285                   6.937712603584704E-6
0.0025                    0.0295                   6.66104006981001E-6
0.0025                    0.0305                   6.551747274635032E-6
0.0025                    0.0315                   3.4409929822393215E-6
0.0035                    -0.0315                  5.388049978836857E-6
0.0035                    -0.0305                  9.582163760157914E-6
0.0035                    -0.0295                  9.11679607529139E-6
0.0035                    -0.0285                  9.618755741349011E-6
0.0035                    -0.0275                  9.659148386901972E-6
0.0035                    -0.0265                  9.66453946912206E-6
0.0035                    -0.0255                  9.675430316056207E-6
0.0035                    -0.0245                  9.761654728679882E-6
0.0035                    -0.0235                  9.909681435837865E-6
0.0035                    -0.0225                  1.0075051756403199E-5
0.0035                    -0.0215                  1.0195654115741366E-5
0.0035                    -0.0205                  1.0225803831981746E-5
0.0035                    -0.0195                  1.0166650954771505E-5
0.0035                    -0.0185                  1.00820096667929E-5
0.0035                    -0.0175                  1.0092283604876907E-5
0.0035                    -0.0165                  1.0377848862532341E-5
0.0035                    -0.0155                  1.1241830002027343E-5
0.0035                    -0.0145                  1.3252447169207114E-5
0.0035                    -0.0135                  1.7524569025796592E-5
0.0035                    -0.0125                  2.6230333145540324E-5
0.0035                    -0.0115                  4.412861557038734E-5
0.0035                    -0.0105                  8.528498571030867E-5
0.0035                    -0.0095                  2.1034901053106487E-4
0.0035                    -0.0085                  4.907754463503532E-4
0.0035                    -0.0075                  0.0010504812317625976
0.0035                    -0.0065                  0.0024868022149897384
0.0035                    -0.0055                  0.005342399655581695
0.0035                    -0.0045                  0.009103157770207804
0.0035                    -0.0035                  0.012777724328329585
0.0035                    -0.0025                  0.0158572441385882
0.0035                    -0.0015                  0.0182830101491696
0.0035                    -5.0E-4                  0.02014630407615718
0.0035                    5.0E-4                   0.02156898204341839
0.0035                    0.0015                   0.022651568464568266
0.0035                    0.0025                   0.023316901921674807
0.0035                    0.0035                   0.02328542391709715
0.0035                    0.0045                   0.022216213474393176
0.0035                    0.0055                   0.019859690434253854
0.0035                    0.0065                   0.01666521364756937
0.0035                    0.0075                   0.013652380214304828
0.0035                    0.0085                   0.011983891404389475
0.0035                    0.0095                   0.012493439992911672
0.0035                    0.0105                   0.014208717632410842
0.0035                    0.0115                   0.015353267742566467
0.0035                    0.0125                   0.014752036713695836
0.0035                    0.0135                   0.012081227095116838
0.0035                    0.0145                   0.007988110655825283
0.0035                    0.0155                   0.004035370611964209
0.0035                    0.0165                   0.0015765074595214656
0.0035                    0.0175                   5.232557291475884E-4
0.0035                    0.0185                   1.5470040000187713E-4
0.0035                    0.0195                   5.956425119801804E-5
0.0035                    0.0205                   2.7577176833806292E-5
0.0035                    0.0215                   1.5647936371743257E-5
0.0035                    0.0225                   1.0810303695484952E-5
0.0035                    0.0235                   8.720673243449589E-6
0.0035                    0.0245                   7.782256143362467E-6
0.0035                    0.0255                   7.388812291059136E-6
0.0035                    0.0265                   7.268564766846458E-6
0.0035                    0.0275                   7.233463985776601E-6
0.0035                    0.0285                   7.176357350616471E-6
0.0035                    0.0295                   6.732293619173025E-6
0.0035                    0.0305                   6.82562549157054E-6
0.0035                    0.0315                   3.7467512840026908E-6
0.0045                    -0.0315                  5.669804469249793E-6
0.0045                    -0.0305                  9.710115957327279E-6
0.0045                    -0.0295                  8.81911633379001E-6
0.0045                    -0.0285                  9.391576122758136E-6
0.0045                    -0.0275                  9.58338210612205E-6
0.0045                    -0.0265                  9.705912837199158E-6
0.0045                    -0.0255                  9.784723711560835E-6
0.0045                    -0.0245                  9.937590481284775E-6
0.0045                    -0.0235                  1.0198096757211772E-5
0.0045                    -0.0225                  1.054872680940802E-5
0.0045                    -0.0215                  1.092255245907621E-5
0.0045                    -0.0205                  1.1239330764875034E-5
0.0045                    -0.0195                  1.1463929468388345E-5
0.0045                    -0.0185                  1.1665065123912227E-5
0.0045                    -0.0175                  1.204449552291222E-5
0.0045                    -0.0165                  1.2946500675077274E-5
0.0045                    -0.0155                  1.493625555403534E-5
0.0045                    -0.0145                  1.9025258746578117E-5
0.0045                    -0.0135                  2.697895208406617E-5
0.0045                    -0.0125                  4.235173733683258E-5
0.0045                    -0.0115                  7.413562762421994E-5
0.0045                    -0.0105                  1.6264609619299008E-4
0.0045                    -0.0095                  4.439223236010894E-4
0.0045                    -0.0085                  0.0011960431950263544
0.0045                    -0.0075                  0.0031450175324486793
0.0045                    -0.0065                  0.006986972636642187
0.0045                    -0.0055                  0.01205814990270658
0.0045                    -0.0045                  0.01682262825772064
0.0045                    -0.0035                  0.020435858502620762
0.0045                    -0.0025                  0.022922344387989405
0.0045                    -0.0015                  0.02453033583048594
0.0045                    -5.0E-4                  0.025422527143339108
0.0045                    5.0E-4                   0.025661116613570283
0.0045                    0.0015                   0.02520265748544832
0.0045                    0.0025                   0.023945064335446176
0.0045                    0.0035                   0.021830885613789992
0.0045                    0.0045                   0.018822909506019652
0.0045                    0.0055                   0.015050032596255461
0.0045                    0.0065                   0.011041701136362478
0.0045                    0.0075                   0.007987309114210816
0.0045                    0.0085                   0.007723352528516834
0.0045                    0.0095                   0.010121530133544651
0.0045                    0.0105                   0.013150426196007958
0.0045                    0.0115                   0.015589159920699529
0.0045                    0.0125                   0.0167225627366712
0.0045                    0.0135                   0.015965541969435375
0.0045                    0.0145                   0.012814280517390234
0.0045                    0.0155                   0.007656007338237114
0.0045                    0.0165                   0.0030127519060311045
0.0045                    0.0175                   8.372433449796912E-4
0.0045                    0.0185                   2.4190443625326933E-4
0.0045                    0.0195                   9.11103347359264E-5
0.0045                    0.0205                   3.9658457901333914E-5
0.0045                    0.0215                   2.0614537067896218E-5
0.0045                    0.0225                   1.2836672071005466E-5
0.0045                    0.0235                   9.553915998012107E-6
0.0045                    0.0245                   8.149482313706128E-6
0.0045                    0.0255                   7.5848827818362054E-6
0.0045                    0.0265                   7.38076297038227E-6
0.0045                    0.0275                   7.2454251602334574E-6
0.0045                    0.0285                   7.061749625416539E-6
0.0045                    0.0295                   6.545069992472874E-6
0.0045                    0.0305                   6.930481451920978E-6
0.0045                    0.0315                   3.952341914775552E-6
0.0055                    -0.0315                  5.957796041381645E-6
0.0055                    -0.0305                  9.903255000844879E-6
0.0055                    -0.0295                  8.585927142960306E-6
0.0055                    -0.0285                  9.125436427598221E-6
0.0055                    -0.0275                  9.39152294518749E-6
0.0055                    -0.0265                  9.628124470825763E-6
0.0055                    -0.0255                  9.806891401032033E-6
0.0055                    -0.0245                  1.0067134987225333E-5
0.0055                    -0.0235                  1.0496746871772125E-5
0.0055                    -0.0225                  1.1139846842964442E-5
0.0055                    -0.0215                  1.1972173425089453E-5
0.0055                    -0.0205                  1.291052293304398E-5
0.0055                    -0.0195                  1.3887914042954699E-5
0.0055                    -0.0185                  1.4997560480971885E-5
0.0055                    -0.0175                  1.660213568925419E-5
0.0055                    -0.0165                  1.9355181933124833E-5
0.0055                    -0.0155                  2.4311395738501293E-5
0.0055                    -0.0145                  3.3299850478991974E-5
0.0055                    -0.0135                  4.9926331097772506E-5
0.0055                    -0.0125                  8.14212556744994E-5
0.0055                    -0.0115                  1.588070508232867E-4
0.0055                    -0.0105                  3.9091703253227593E-4
0.0055                    -0.0095                  0.0010461245150244628
0.0055                    -0.0085                  0.0029816681343807134
0.0055                    -0.0075                  0.007241738625957686
0.0055                    -0.0065                  0.013065793601974714
0.0055                    -0.0055                  0.018241508780116267
0.0055                    -0.0045                  0.02153943260354007
0.0055                    -0.0035                  0.0231179585503965
0.0055                    -0.0025                  0.02346623811503615
0.0055                    -0.0015                  0.023003346345636534
0.0055                    -5.0E-4                  0.02215763838339011
0.0055                    5.0E-4                   0.021128725591045176
0.0055                    0.0015                   0.019828004066477344
0.0055                    0.0025                   0.01802410956561887
0.0055                    0.0035                   0.015538286473704851
0.0055                    0.0045                   0.012412590968173091
0.0055                    0.0055                   0.008923173818293061
0.0055                    0.0065                   0.005575019126899911
0.0055                    0.0075                   0.0035359428606683676
0.0055                    0.0085                   0.004150790838890718
0.0055                    0.0095                   0.005894920685756696
0.0055                    0.0105                   0.008127329873539226
0.0055                    0.0115                   0.011047197743484838
0.0055                    0.0125                   0.014278713502059342
0.0055                    0.0135                   0.016728226794552905
0.0055                    0.0145                   0.016503536433204097
0.0055                    0.0155                   0.011999802453963268
0.0055                    0.0165                   0.00551273775678411
0.0055                    0.0175                   0.0016145191273740885
0.0055                    0.0185                   4.8310748377890537E-4
0.0055                    0.0195                   1.598170007749791E-4
0.0055                    0.0205                   6.465641673535277E-5
0.0055                    0.0215                   3.008364583458065E-5
0.0055                    0.0225                   1.663823816242073E-5
0.0055                    0.0235                   1.1071370083924822E-5
0.0055                    0.0245                   8.765569945580353E-6
0.0055                    0.0255                   7.829593808242982E-6
0.0055                    0.0265                   7.438086955204596E-6
0.0055                    0.0275                   7.164014843551462E-6
0.0055                    0.0285                   6.892059354540105E-6
0.0055                    0.0295                   6.378572506032895E-6
0.0055                    0.0305                   7.042716326016971E-6
0.0055                    0.0315                   4.132262136789914E-6
0.0065                    -0.0315                  6.180343920675627E-6
0.0065                    -0.0305                  1.0079014551515032E-5
0.0065                    -0.0295                  8.42177064792166E-6
0.0065                    -0.0285                  8.860583116326489E-6
0.0065                    -0.0275                  9.107091399418473E-6
0.0065                    -0.0265                  9.384869984044398E-6
0.0065                    -0.0255                  9.63513784248786E-6
0.0065                    -0.0245                  1.0010112647662747E-5
0.0065                    -0.0235                  1.0657767770554962E-5
0.0065                    -0.0225                  1.1726436021024706E-5
0.0065                    -0.0215                  1.3324009192937442E-5
0.0065                    -0.0205                  1.5480010427383706E-5
0.0065                    -0.0195                  1.8174716990074848E-5
0.0065                    -0.0185                  2.1655095309350695E-5
0.0065                    -0.0175                  2.6883305534433738E-5
0.0065                    -0.0165                  3.5361464422923745E-5
0.0065                    -0.0155                  4.884884550474853E-5
0.0065                    -0.0145                  7.113994370476278E-5
0.0065                    -0.0135                  1.1019263034550857E-4
0.0065                    -0.0125                  1.9360462616998877E-4
0.0065                    -0.0115                  3.8975462047870316E-4
0.0065                    -0.0105                  8.830542808235366E-4
0.0065                    -0.0095                  0.002359698808343717
0.0065                    -0.0085                  0.006246405472163751
0.0065                    -0.0075                  0.012464706661498556
0.0065                    -0.0065                  0.01825201569671533
0.0065                    -0.0055                  0.021393102231325845