% Model:              Benchmark260518.mph
% Version:            COMSOL 6.2.0.339
% Date:               May 20 2026, 08:01
% Dimension:          2
% Nodes:              4096
% Expressions:        1
% Description:        速度大小
% Length unit:        m
% x                       y                        spf.U (m/s)
5.0E-4                    -0.0315                  3.369857555831727E-6
5.0E-4                    -0.0305                  6.742099711686899E-6
5.0E-4                    -0.0295                  7.589403236253892E-6
5.0E-4                    -0.0285                  8.562648002336843E-6
5.0E-4                    -0.0275                  9.12762146628679E-6
5.0E-4                    -0.0265                  9.666983363071572E-6
5.0E-4                    -0.0255                  1.0139177478670231E-5
5.0E-4                    -0.0245                  1.0583774806857313E-5
5.0E-4                    -0.0235                  1.1059624558905475E-5
5.0E-4                    -0.0225                  1.1615703964922886E-5
5.0E-4                    -0.0215                  1.2291833560087316E-5
5.0E-4                    -0.0205                  1.3125340892120603E-5
5.0E-4                    -0.0195                  1.4095704346032114E-5
5.0E-4                    -0.0185                  1.515384292898134E-5
5.0E-4                    -0.0175                  1.6240787973274904E-5
5.0E-4                    -0.0165                  1.746368141835813E-5
5.0E-4                    -0.0155                  1.8889159563907777E-5
5.0E-4                    -0.0145                  2.0711011400043705E-5
5.0E-4                    -0.0135                  2.3560965826521432E-5
5.0E-4                    -0.0125                  2.8211709404472382E-5
5.0E-4                    -0.0115                  4.214823842885071E-5
5.0E-4                    -0.0105                  8.934161175814343E-5
5.0E-4                    -0.0095                  2.3846548377698049E-4
5.0E-4                    -0.0085                  4.3601025461522845E-4
5.0E-4                    -0.0075                  4.976712025186597E-4
5.0E-4                    -0.0065                  4.097825444953065E-4
5.0E-4                    -0.0055                  3.6904529693647695E-4
5.0E-4                    -0.0045                  6.973790211484703E-4
5.0E-4                    -0.0035                  0.0014155725257880493
5.0E-4                    -0.0025                  0.002429845146754787
5.0E-4                    -0.0015                  0.003620908464888604
5.0E-4                    -5.0E-4                  0.004851592670638048
5.0E-4                    5.0E-4                   0.006007827203129755
5.0E-4                    0.0015                   0.007012569407588396
5.0E-4                    0.0025                   0.007814662902167476
5.0E-4                    0.0035                   0.00839349288045546
5.0E-4                    0.0045                   0.008736735692198697
5.0E-4                    0.0055                   0.008822019448704718
5.0E-4                    0.0065                   0.008612420057689732
5.0E-4                    0.0075                   0.008067424308850796
5.0E-4                    0.0085                   0.007168656607450949
5.0E-4                    0.0095                   0.005943083913803641
5.0E-4                    0.0105                   0.004477689987098089
5.0E-4                    0.0115                   0.002895175648348326
5.0E-4                    0.0125                   0.001418606263211456
5.0E-4                    0.0135                   9.601703648673051E-4
5.0E-4                    0.0145                   0.001849961102083952
5.0E-4                    0.0155                   0.002539560492618991
5.0E-4                    0.0165                   0.0027444487836944657
5.0E-4                    0.0175                   0.002479970037711799
5.0E-4                    0.0185                   0.0016551108416558973
5.0E-4                    0.0195                   0.005584298878971234
5.0E-4                    0.0205                   0.026829475409409016
5.0E-4                    0.0215                   0.04303711976780941
5.0E-4                    0.0225                   0.04190989149751283
5.0E-4                    0.0235                   0.035531831639690786
5.0E-4                    0.0245                   0.025795363221232256
5.0E-4                    0.0255                   0.016771032592911173
5.0E-4                    0.0265                   0.00893133754469046
5.0E-4                    0.0275                   0.0029735977947217157
5.0E-4                    0.0285                   3.420032346982262E-4
5.0E-4                    0.0295                   7.866834773103158E-5
5.0E-4                    0.0305                   3.267432118537796E-5
5.0E-4                    0.0315                   8.032234383130446E-6
0.0015                    -0.0315                  6.513503648223865E-6
0.0015                    -0.0305                  1.2831797926760354E-5
0.0015                    -0.0295                  1.3780478821803433E-5
0.0015                    -0.0285                  1.4871804015879514E-5
0.0015                    -0.0275                  1.5360878386007656E-5
0.0015                    -0.0265                  1.5844886517054488E-5
0.0015                    -0.0255                  1.6271871268349097E-5
0.0015                    -0.0245                  1.6692570280965753E-5
0.0015                    -0.0235                  1.718721261531955E-5
0.0015                    -0.0225                  1.7855755167294577E-5
0.0015                    -0.0215                  1.881445050843862E-5
0.0015                    -0.0205                  2.018269292261036E-5
0.0015                    -0.0195                  2.1981384554343574E-5
0.0015                    -0.0185                  2.4117693314102072E-5
0.0015                    -0.0175                  2.6454445842649533E-5
0.0015                    -0.0165                  2.907922624494934E-5
0.0015                    -0.0155                  3.2224788302540644E-5
0.0015                    -0.0145                  3.6278803771367356E-5
0.0015                    -0.0135                  4.232036184558319E-5
0.0015                    -0.0125                  5.313783558212695E-5
0.0015                    -0.0115                  8.096875552035314E-5
0.0015                    -0.0105                  1.637676783355196E-4
0.0015                    -0.0095                  4.065565406665798E-4
0.0015                    -0.0085                  7.339661063540837E-4
0.0015                    -0.0075                  9.686808597545242E-4
0.0015                    -0.0065                  0.0012692282406305108
0.0015                    -0.0055                  0.00227929611550561
0.0015                    -0.0045                  0.004280330906743501
0.0015                    -0.0035                  0.0069532611396803
0.0015                    -0.0025                  0.009966144119355879
0.0015                    -0.0015                  0.012969169376209075
0.0015                    -5.0E-4                  0.015683718960762726
0.0015                    5.0E-4                   0.01796722294179119
0.0015                    0.0015                   0.019783439795526457
0.0015                    0.0025                   0.021145984053678662
0.0015                    0.0035                   0.022091260774502346
0.0015                    0.0045                   0.022642917568257537
0.0015                    0.0055                   0.022796535362119823
0.0015                    0.0065                   0.022517134604833643
0.0015                    0.0075                   0.021751720515546063
0.0015                    0.0085                   0.020452625011986168
0.0015                    0.0095                   0.018595247113796034
0.0015                    0.0105                   0.016194105451627427
0.0015                    0.0115                   0.013298843416337133
0.0015                    0.0125                   0.010055837554133919
0.0015                    0.0135                   0.006731125331664864
0.0015                    0.0145                   0.003717129231637722
0.0015                    0.0155                   0.0014285135838963832
0.0015                    0.0165                   1.6681287927674027E-4
0.0015                    0.0175                   0.0011920409181785533
0.0015                    0.0185                   0.005175135805929091
0.0015                    0.0195                   0.017566326074922752
0.0015                    0.0205                   0.03423613094505607
0.0015                    0.0215                   0.04124263769567971
0.0015                    0.0225                   0.038783150512321576
0.0015                    0.0235                   0.03208551503581083
0.0015                    0.0245                   0.023250020227522077
0.0015                    0.0255                   0.01558048680365298
0.0015                    0.0265                   0.00896214995728649
0.0015                    0.0275                   0.0038414375198040297
0.0015                    0.0285                   0.0011269450761696909
0.0015                    0.0295                   3.1246516986386543E-4
0.0015                    0.0305                   1.2117748495230669E-4
0.0015                    0.0315                   3.3994079528100265E-5
0.0025                    -0.0315                  6.843667538265729E-6
0.0025                    -0.0305                  1.292168561986125E-5
0.0025                    -0.0295                  1.3030691845976085E-5
0.0025                    -0.0285                  1.3596881166970848E-5
0.0025                    -0.0275                  1.3557740761581133E-5
0.0025                    -0.0265                  1.3470757302977748E-5
0.0025                    -0.0255                  1.3349761852744177E-5
0.0025                    -0.0245                  1.3262195226378582E-5
0.0025                    -0.0235                  1.328968822443009E-5
0.0025                    -0.0225                  1.3600368084992298E-5
0.0025                    -0.0215                  1.4463198288220182E-5
0.0025                    -0.0205                  1.62186914043852E-5
0.0025                    -0.0195                  1.913344571399698E-5
0.0025                    -0.0185                  2.3148395245715333E-5
0.0025                    -0.0175                  2.7893000394600573E-5
0.0025                    -0.0165                  3.3390097094376854E-5
0.0025                    -0.0155                  4.032066338541237E-5
0.0025                    -0.0145                  4.9497489693089515E-5
0.0025                    -0.0135                  6.111214074348992E-5
0.0025                    -0.0125                  7.744910770489236E-5
0.0025                    -0.0115                  1.1034924170701925E-4
0.0025                    -0.0105                  1.88798777221118E-4
0.0025                    -0.0095                  4.021871088437103E-4
0.0025                    -0.0085                  7.725906191095341E-4
0.0025                    -0.0075                  0.0015504071185583634
0.0025                    -0.0065                  0.003542985364029794
0.0025                    -0.0055                  0.007048101628192421
0.0025                    -0.0045                  0.011312334524060665
0.0025                    -0.0035                  0.015536313251485545
0.0025                    -0.0025                  0.019219111342664724
0.0025                    -0.0015                  0.02213963428771483
0.0025                    -5.0E-4                  0.024326342107875907
0.0025                    5.0E-4                   0.025918855779353295
0.0025                    0.0015                   0.027054473839336773
0.0025                    0.0025                   0.027843686184444435
0.0025                    0.0035                   0.02838966441112385
0.0025                    0.0045                   0.028779019276321927
0.0025                    0.0055                   0.02905781019666876
0.0025                    0.0065                   0.029234353102166544
0.0025                    0.0075                   0.029283612814262092
0.0025                    0.0085                   0.029147922427998248
0.0025                    0.0095                   0.02873483651404016
0.0025                    0.0105                   0.02789988519450408
0.0025                    0.0115                   0.026451777438594788
0.0025                    0.0125                   0.02423935010161356
0.0025                    0.0135                   0.021333013938559024
0.0025                    0.0145                   0.018143788495358415
0.0025                    0.0155                   0.015323328076738413
0.0025                    0.0165                   0.013770347389301728
0.0025                    0.0175                   0.014709009050158414
0.0025                    0.0185                   0.019779863794950628
0.0025                    0.0195                   0.02849901973659866
0.0025                    0.0205                   0.035988184280359284
0.0025                    0.0215                   0.03726495658687239
0.0025                    0.0225                   0.03354103642585628
0.0025                    0.0235                   0.02710115859036194
0.0025                    0.0245                   0.02005039413248345
0.0025                    0.0255                   0.014746306396444645
0.0025                    0.0265                   0.010224940993588554
0.0025                    0.0275                   0.006027024228991291
0.0025                    0.0285                   0.002802809063610141
0.0025                    0.0295                   0.0010537731433776162
0.0025                    0.0305                   3.801129808623571E-4
0.0025                    0.0315                   1.0901894737100587E-4
0.0035                    -0.0315                  7.409584051626188E-6
0.0035                    -0.0305                  1.3370748629810628E-5
0.0035                    -0.0295                  1.3079432468671519E-5
0.0035                    -0.0285                  1.4032957611655044E-5
0.0035                    -0.0275                  1.4270195641089518E-5
0.0035                    -0.0265                  1.4362880340312916E-5
0.0035                    -0.0255                  1.4356586058638557E-5
0.0035                    -0.0245                  1.4395343725619787E-5
0.0035                    -0.0235                  1.46520056653189E-5
0.0035                    -0.0225                  1.5483736969578246E-5
0.0035                    -0.0215                  1.7516088624527415E-5
0.0035                    -0.0205                  2.1798146825343533E-5
0.0035                    -0.0195                  2.9573459014148413E-5
0.0035                    -0.0185                  4.143396007043202E-5
0.0035                    -0.0175                  5.66172613608035E-5
0.0035                    -0.0165                  7.407969324495827E-5
0.0035                    -0.0155                  9.831537994898065E-5
0.0035                    -0.0145                  1.326997133703814E-4
0.0035                    -0.0135                  1.6578606852490866E-4
0.0035                    -0.0125                  1.911120423587863E-4
0.0035                    -0.0115                  2.332577641905697E-4
0.0035                    -0.0105                  3.7291819056820545E-4
0.0035                    -0.0095                  7.339419208785041E-4
0.0035                    -0.0085                  0.001630432236773079
0.0035                    -0.0075                  0.0039849555792296504
0.0035                    -0.0065                  0.008360673426211575
0.0035                    -0.0055                  0.013741478600390553
0.0035                    -0.0045                  0.018609575653502755
0.0035                    -0.0035                  0.022226819358387634
0.0035                    -0.0025                  0.024577682395507967
0.0035                    -0.0015                  0.025932218737959353
0.0035                    -5.0E-4                  0.026572271450827377
0.0035                    5.0E-4                   0.02674213033352929
0.0035                    0.0015                   0.0266845636106051
0.0035                    0.0025                   0.026601536797941926
0.0035                    0.0035                   0.02662624669197679
0.0035                    0.0045                   0.02683177362200298
0.0035                    0.0055                   0.027253533609656808
0.0035                    0.0065                   0.027901760136558106
0.0035                    0.0075                   0.028764431040166037
0.0035                    0.0085                   0.02980200670007489
0.0035                    0.0095                   0.030926275411804285
0.0035                    0.0105                   0.03197545805313437
0.0035                    0.0115                   0.03270403924441736
0.0035                    0.0125                   0.032817717969293975
0.0035                    0.0135                   0.0321245275835489
0.0035                    0.0145                   0.0307544999297203
0.0035                    0.0155                   0.029223834877200643
0.0035                    0.0165                   0.02832668312537303
0.0035                    0.0175                   0.028858035554835022
0.0035                    0.0185                   0.03091632215799767
0.0035                    0.0195                   0.03326506588564526
0.0035                    0.0205                   0.03382314892677947
0.0035                    0.0215                   0.031067602911827603
0.0035                    0.0225                   0.026099067935992596
0.0035                    0.0235                   0.0206600775702793
0.0035                    0.0245                   0.01686218868322261
0.0035                    0.0255                   0.015328258524829939
0.0035                    0.0265                   0.013566859057424491
0.0035                    0.0275                   0.010400522645019216
0.0035                    0.0285                   0.006461849173811934
0.0035                    0.0295                   0.003132789435384399
0.0035                    0.0305                   0.0012015516872396165
0.0035                    0.0315                   3.1575050807233995E-4
0.0045                    -0.0315                  7.714112751660577E-6
0.0045                    -0.0305                  1.3434713058572704E-5
0.0045                    -0.0295                  1.2645347284037497E-5
0.0045                    -0.0285                  1.381293298341327E-5
0.0045                    -0.0275                  1.4454031758369464E-5
0.0045                    -0.0265                  1.4985251104698576E-5
0.0045                    -0.0255                  1.5438228142543597E-5
0.0045                    -0.0245                  1.6062877275185628E-5
0.0045                    -0.0235                  1.7244136849610064E-5
0.0045                    -0.0225                  1.9772579634165867E-5
0.0045                    -0.0215                  2.5186019857319706E-5
0.0045                    -0.0205                  3.631281891898735E-5
0.0045                    -0.0195                  5.9363368028195695E-5
0.0045                    -0.0185                  1.012086813204557E-4
0.0045                    -0.0175                  1.5663636338738608E-4
0.0045                    -0.0165                  2.1587365116667367E-4
0.0045                    -0.0155                  2.939216434034957E-4
0.0045                    -0.0145                  4.620302886454024E-4
0.0045                    -0.0135                  6.408284891621828E-4
0.0045                    -0.0125                  7.140745954860845E-4
0.0045                    -0.0115                  7.727290828425361E-4
0.0045                    -0.0105                  0.0010040896314107717
0.0045                    -0.0095                  0.0016918830205304859
0.0045                    -0.0085                  0.003849016409141793
0.0045                    -0.0075                  0.008422608392524518
0.0045                    -0.0065                  0.014367403556027943
0.0045                    -0.0055                  0.019575555355669842
0.0045                    -0.0045                  0.02291193585042097
0.0045                    -0.0035                  0.024466202686857154
0.0045                    -0.0025                  0.02465553588170209
0.0045                    -0.0015                  0.023823966905040236
0.0045                    -5.0E-4                  0.022406569226289325
0.0045                    5.0E-4                   0.020847043196061947
0.0045                    0.0015                   0.01947372617919961
0.0045                    0.0025                   0.018470904015520498
0.0045                    0.0035                   0.017898581429933298
0.0045                    0.0045                   0.01776033713323222
0.0045                    0.0055                   0.018058998691438705
0.0045                    0.0065                   0.01879792256088375
0.0045                    0.0075                   0.019981834006711326
0.0045                    0.0085                   0.02162974042739698
0.0045                    0.0095                   0.023748000672253567
0.0045                    0.0105                   0.026267876892126042
0.0045                    0.0115                   0.028980396886836977
0.0045                    0.0125                   0.03150979107031574
0.0045                    0.0135                   0.03343174834534772
0.0045                    0.0145                   0.034500398433407894
0.0045                    0.0155                   0.03480566466355482
0.0045                    0.0165                   0.034645933091589094
0.0045                    0.0175                   0.03422820875721628
0.0045                    0.0185                   0.033416205551768496
0.0045                    0.0195                   0.03162668912446434
0.0045                    0.0205                   0.028094080933140902
0.0045                    0.0215                   0.022627619400864264
0.0045                    0.0225                   0.016964067552857284
0.0045                    0.0235                   0.013908791896011814
0.0045                    0.0245                   0.015007586281640749
0.0045                    0.0255                   0.017304401735483064
0.0045                    0.0265                   0.017827285764514065
0.0045                    0.0275                   0.015919850244230656
0.0045                    0.0285                   0.01197005668327075
0.0045                    0.0295                   0.007205815910134797
0.0045                    0.0305                   0.00328837693034248
0.0045                    0.0315                   8.885451049178452E-4
0.0055                    -0.0315                  8.008361967761744E-6
0.0055                    -0.0305                  1.355561348595676E-5
0.0055                    -0.0295                  1.2259438340991201E-5
0.0055                    -0.0285                  1.349579331719669E-5
0.0055                    -0.0275                  1.4497967338066203E-5
0.0055                    -0.0265                  1.5651592012769627E-5
0.0055                    -0.0255                  1.6993849736122603E-5
0.0055                    -0.0245                  1.894777652086754E-5
0.0055                    -0.0235                  2.2379955370344725E-5
0.0055                    -0.0225                  2.9253262150411702E-5
0.0055                    -0.0215                  4.343944575044857E-5
0.0055                    -0.0205                  7.382445998983668E-5
0.0055                    -0.0195                  1.414668541218951E-4
0.0055                    -0.0185                  3.1104543234628304E-4
0.0055                    -0.0175                  5.74651589673911E-4
0.0055                    -0.0165                  8.551011917648016E-4
0.0055                    -0.0155                  0.0012099638884866093
0.0055                    -0.0145                  0.001840304874850682
0.0055                    -0.0135                  0.0025176569253158587
0.0055                    -0.0125                  0.002813560176062795
0.0055                    -0.0115                  0.0027694613838722174
0.0055                    -0.0105                  0.002774969067353001
0.0055                    -0.0095                  0.0038434104849267513
0.0055                    -0.0085                  0.007640550253309073
0.0055                    -0.0075                  0.013700334242419237
0.0055                    -0.0065                  0.01935504939192959
0.0055                    -0.0055                  0.022687766298059756
0.0055                    -0.0045                  0.02362411656949748
0.0055                    -0.0035                  0.022641136990522722
0.0055                    -0.0025                  0.020143193416191595
0.0055                    -0.0015                  0.016871661592781105
0.0055                    -5.0E-4                  0.01369837644066226
0.0055                    5.0E-4                   0.011149350312664978
0.0055                    0.0015                   0.009320424917463805
0.0055                    0.0025                   0.008092157489279614
0.0055                    0.0035                   0.007325759035825132
0.0055                    0.0045                   0.00695593444608137
0.0055                    0.0055                   0.0070030383695099604
0.0055                    0.0065                   0.0075117153271521174
0.0055                    0.0075                   0.008474538568626786
0.0055                    0.0085                   0.0098610721222024
0.0055                    0.0095                   0.011714361297179657
0.0055                    0.0105                   0.014140081206714603
0.0055                    0.0115                   0.017162571963630236
0.0055                    0.0125                   0.020576171576971978
0.0055                    0.0135                   0.02394556405879365
0.0055                    0.0145                   0.02676765841656546
0.0055                    0.0155                   0.02868259993082381
0.0055                    0.0165                   0.02951511025824102
0.0055                    0.0175                   0.029128768547323512
0.0055                    0.0185                   0.027309474443679264
0.0055                    0.0195                   0.02382881966339399
0.0055                    0.0205                   0.018730983436659684
0.0055                    0.0215                   0.012725923075965238
0.0055                    0.0225                   0.008166228004580226
0.0055                    0.0235                   0.008385250946988424
0.0055                    0.0245                   0.012135429118650672
0.0055                    0.0255                   0.016249496823710834
0.0055                    0.0265                   0.018882225662467306
0.0055                    0.0275                   0.019216049447311336
0.0055                    0.0285                   0.016919994270985395
0.0055                    0.0295                   0.01230658318217601
0.0055                    0.0305                   0.006864186130091539
0.0055                    0.0315                   0.0021320311008350213
0.0065                    -0.0315                  8.277350215251712E-6
0.0065                    -0.0305                  1.3714509572854584E-5
0.0065                    -0.0295                  1.1969867569249712E-5
0.0065                    -0.0285                  1.3201693387840835E-5
0.0065                    -0.0275                  1.4546123202959115E-5
0.0065                    -0.0265                  1.6533847992477916E-5
0.0065                    -0.0255                  1.9405220430417315E-5
0.0065                    -0.0245                  2.4009804167877305E-5
0.0065                    -0.0235                  3.2124394991618765E-5
0.0065                    -0.0225                  4.854114460841587E-5
0.0065                    -0.0215                  8.54110380028922E-5
0.0065                    -0.0205                  1.7062616718419742E-4
0.0065                    -0.0195                  4.0147134279512316E-4
0.0065                    -0.0185                  9.45117243569298E-4
0.0065                    -0.0175                  0.0018403408381149101
0.0065                    -0.0165                  0.003019579632482644
0.0065                    -0.0155                  0.0044310246037481925
0.0065                    -0.0145                  0.0058670637384720115
0.0065                    -0.0135                  0.006852598106325649
0.0065                    -0.0125                  0.007052395876482801
0.0065                    -0.0115                  0.006544280693739934
0.0065                    -0.0105                  0.005868641979283764
0.0065                    -0.0095                  0.006969241700951222
0.0065                    -0.0085                  0.011753741639720884
0.0065                    -0.0075                  0.017838941946185797
0.0065                    -0.0065                  0.021934627110920035
0.0065                    -0.0055                  0.0230067019066605