% Model:              Benchmark260518.mph
% Version:            COMSOL 6.2.0.339
% Date:               May 19 2026, 19:31
% Dimension:          2
% Nodes:              4096
% Expressions:        1
% Description:        速度大小
% Length unit:        m
% x                       y                        spf.U (m/s)
% mirrored_by_python_y_to_minus_y, coord_match_decimals=12
0.0005 -0.0315 1.58545052738e-06
0.0005 -0.0305 3.19964143712e-06
0.0005 -0.0295 3.64351171429e-06
0.0005 -0.0285 4.21292158197e-06
0.0005 -0.0275 4.8211414786e-06
0.0005 -0.0265 5.80447622643e-06
0.0005 -0.0255 8.20191749181e-06
0.0005 -0.0245 1.56119489153e-05
0.0005 -0.0235 3.92309525443e-05
0.0005 -0.0225 0.000123747623574
0.0005 -0.0215 0.000292400950426
0.0005 -0.0205 0.000507024647581
0.0005 -0.0195 0.000883225796533
0.0005 -0.0185 0.00187173922625
0.0005 -0.0175 0.00376313078493
0.0005 -0.0165 0.00593849047786
0.0005 -0.0155 0.00918696233574
0.0005 -0.0145 0.0108688471051
0.0005 -0.0135 0.0102801866473
0.0005 -0.0125 0.00992853495019
0.0005 -0.0115 0.00942195260928
0.0005 -0.0105 0.00865906671916
0.0005 -0.0095 0.00769565806893
0.0005 -0.0085 0.00685043234236
0.0005 -0.0075 0.00695961460155
0.0005 -0.0065 0.00902515166672
0.0005 -0.0055 0.0131671730345
0.0005 -0.0045 0.0187980365396
0.0005 -0.0035 0.0257925644821
0.0005 -0.0025 0.0316454386655
0.0005 -0.0015 0.0349321464367
0.0005 -0.0005 0.0241546862139
0.0005 0.0005 0.00796102550546
0.0005 0.0015 0.00194484072927
0.0005 0.0025 0.000217735252072
0.0005 0.0035 0.000389197699328
0.0005 0.0045 0.00101366698733
0.0005 0.0055 0.00186942813945
0.0005 0.0065 0.00273911249734
0.0005 0.0075 0.00339302083306
0.0005 0.0085 0.00364979817458
0.0005 0.0095 0.00344645068936
0.0005 0.0105 0.00284109960364
0.0005 0.0115 0.00200436700272
0.0005 0.0125 0.00115774732893
0.0005 0.0135 0.000518300308349
0.0005 0.0145 0.000220539429012
0.0005 0.0155 0.000223410008464
0.0005 0.0165 0.000251210994824
0.0005 0.0175 0.000201655455178
0.0005 0.0185 0.000106784800306
0.0005 0.0195 4.20155933444e-05
0.0005 0.0205 1.89134268975e-05
0.0005 0.0215 1.1362170497e-05
0.0005 0.0225 9.15356567504e-06
0.0005 0.0235 8.1132850524e-06
0.0005 0.0245 7.36310524807e-06
0.0005 0.0255 7.05718736221e-06
0.0005 0.0265 6.84921383629e-06
0.0005 0.0275 6.51956561797e-06
0.0005 0.0285 6.14818928647e-06
0.0005 0.0295 5.46041060762e-06
0.0005 0.0305 4.81811929005e-06
0.0005 0.0315 2.40168005532e-06
0.0015 -0.0315 3.09782710129e-06
0.0015 -0.0305 6.13951571506e-06
0.0015 -0.0295 6.67914125957e-06
0.0015 -0.0285 7.42517276216e-06
0.0015 -0.0275 8.36399023661e-06
0.0015 -0.0265 1.03693018175e-05
0.0015 -0.0255 1.56127433194e-05
0.0015 -0.0245 3.07322722116e-05
0.0015 -0.0235 7.76598219098e-05
0.0015 -0.0225 0.000254744674196
0.0015 -0.0215 0.000672733609882
0.0015 -0.0205 0.00156021143292
0.0015 -0.0195 0.003511644393
0.0015 -0.0185 0.00679734691718
0.0015 -0.0175 0.01079411641
0.0015 -0.0165 0.0140421828247
0.0015 -0.0155 0.0148687553734
0.0015 -0.0145 0.0137799200347
0.0015 -0.0135 0.0128079027776
0.0015 -0.0125 0.0122597575652
0.0015 -0.0115 0.0117188800403
0.0015 -0.0105 0.0109877355343
0.0015 -0.0095 0.00992516344864
0.0015 -0.0085 0.00854664672306
0.0015 -0.0075 0.00730521816965
0.0015 -0.0065 0.00754370015002
0.0015 -0.0055 0.0104525700613
0.0015 -0.0045 0.0154032293132
0.0015 -0.0035 0.0221531993333
0.0015 -0.0025 0.0287543298136
0.0015 -0.0015 0.0333007269595
0.0015 -0.0005 0.0314960200253
0.0015 0.0005 0.0217018958437
0.0015 0.0015 0.0122856368192
0.0015 0.0025 0.00838506091133
0.0015 0.0035 0.00808275968107
0.0015 0.0045 0.00944350666443
0.0015 0.0055 0.0112802987979
0.0015 0.0065 0.0128967186559
0.0015 0.0075 0.0138597208409
0.0015 0.0085 0.0139169468918
0.0015 0.0095 0.0129809250599
0.0015 0.0105 0.0111078287025
0.0015 0.0115 0.00853957370972
0.0015 0.0125 0.00572970388621
0.0015 0.0135 0.00321328926423
0.0015 0.0145 0.00144275666993
0.0015 0.0155 0.000684521357261
0.0015 0.0165 0.000490697243507
0.0015 0.0175 0.000350687750983
0.0015 0.0185 0.000188335366085
0.0015 0.0195 7.65241305557e-05
0.0015 0.0205 3.53768244556e-05
0.0015 0.0215 2.04605696025e-05
0.0015 0.0225 1.51764616072e-05
0.0015 0.0235 1.29815769563e-05
0.0015 0.0245 1.18288365166e-05
0.0015 0.0255 1.14136259338e-05
0.0015 0.0265 1.12434374652e-05
0.0015 0.0275 1.10051784886e-05
0.0015 0.0285 1.07246658675e-05
0.0015 0.0295 9.95308473099e-06
0.0015 0.0305 9.16748631504e-06
0.0015 0.0315 4.62149428797e-06
0.0025 -0.0315 3.32781509785e-06
0.0025 -0.0305 6.31310101877e-06
0.0025 -0.0295 6.50159596288e-06
0.0025 -0.0285 7.14499444118e-06
0.0025 -0.0275 8.25693036309e-06
0.0025 -0.0265 1.13422166309e-05
0.0025 -0.0255 1.94594773292e-05
0.0025 -0.0245 4.21378553019e-05
0.0025 -0.0235 0.000108895562555
0.0025 -0.0225 0.000385370714843
0.0025 -0.0215 0.00126762083374
0.0025 -0.0205 0.0035645701604
0.0025 -0.0195 0.00758393190676
0.0025 -0.0185 0.0120045698793
0.0025 -0.0175 0.015116864717
0.0025 -0.0165 0.0160928434681
0.0025 -0.0155 0.01517649195
0.0025 -0.0145 0.0135366839108
0.0025 -0.0135 0.0122210206848
0.0025 -0.0125 0.0114585531937
0.0025 -0.0115 0.0110873334115
0.0025 -0.0105 0.0108569860588
0.0025 -0.0095 0.0104517004471
0.0025 -0.0085 0.00957965406771
0.0025 -0.0075 0.00814149208889
0.0025 -0.0065 0.00677318524312
0.0025 -0.0055 0.00754774950034
0.0025 -0.0045 0.0113160840883
0.0025 -0.0035 0.0174419922598
0.0025 -0.0025 0.0242487962872
0.0025 -0.0015 0.0297235041446
0.0025 -0.0005 0.0317444454607
0.0025 0.0005 0.029515378881
0.0025 0.0015 0.0256251830967
0.0025 0.0025 0.0230966660092
0.0025 0.0035 0.0228795262171
0.0025 0.0045 0.0239770106093
0.0025 0.0055 0.0252758171199
0.0025 0.0065 0.0260931043056
0.0025 0.0075 0.0261776542733
0.0025 0.0085 0.0255083619605
0.0025 0.0095 0.0240733606959
0.0025 0.0105 0.0217854129992
0.0025 0.0115 0.0185290446751
0.0025 0.0125 0.0143506382448
0.0025 0.0135 0.00965629689218
0.0025 0.0145 0.00525208414252
0.0025 0.0155 0.0021693018262
0.0025 0.0165 0.00080863396768
0.0025 0.0175 0.000386341932496
0.0025 0.0185 0.000185403381545
0.0025 0.0195 8.02620874621e-05
0.0025 0.0205 3.97026210443e-05
0.0025 0.0215 2.16459234579e-05
0.0025 0.0225 1.39439570579e-05
0.0025 0.0235 1.09215764752e-05
0.0025 0.0245 9.84849571548e-06
0.0025 0.0255 9.59084493595e-06
0.0025 0.0265 9.67832534586e-06
0.0025 0.0275 9.84111844305e-06
0.0025 0.0285 9.92621001281e-06
0.0025 0.0295 9.4819150311e-06
0.0025 0.0305 9.12983487228e-06
0.0025 0.0315 4.7389072113e-06
0.0035 -0.0315 3.71763040998e-06
0.0035 -0.0305 6.75840817183e-06
0.0035 -0.0295 6.85488057024e-06
0.0035 -0.0285 8.01208149792e-06
0.0035 -0.0275 1.01769447262e-05
0.0035 -0.0265 1.58656926284e-05
0.0035 -0.0255 3.13931963868e-05
0.0035 -0.0245 7.58002605951e-05
0.0035 -0.0235 0.000230953342603
0.0035 -0.0225 0.000780332626293
0.0035 -0.0215 0.00266674765316
0.0035 -0.0205 0.00683857613088
0.0035 -0.0195 0.011791305189
0.0035 -0.0185 0.0149207221378
0.0035 -0.0175 0.0154523131095
0.0035 -0.0165 0.0140142484105
0.0035 -0.0155 0.0116997911244
0.0035 -0.0145 0.00952472276657
0.0035 -0.0135 0.00799473101758
0.0035 -0.0125 0.00718050733329
0.0035 -0.0115 0.00696146929337
0.0035 -0.0105 0.00714592888413
0.0035 -0.0095 0.00749141855919
0.0035 -0.0085 0.00767916642811
0.0035 -0.0075 0.00732536745559
0.0035 -0.0065 0.00623173322821
0.0035 -0.0055 0.00531901733618
0.0035 -0.0045 0.00711277415707
0.0035 -0.0035 0.0120577277212
0.0035 -0.0025 0.0183454152963
0.0035 -0.0015 0.0242789624994
0.0035 -0.0005 0.0284097315723
0.0035 0.0005 0.0300831169664
0.0035 0.0015 0.03039191947
0.0035 0.0025 0.0306241344418
0.0035 0.0035 0.0312414821675
0.0035 0.0045 0.0319049703392
0.0035 0.0055 0.0321243603884
0.0035 0.0065 0.031767817782
0.0035 0.0075 0.0310474130279
0.0035 0.0085 0.030209064734
0.0035 0.0095 0.0292532793671
0.0035 0.0105 0.027934459715
0.0035 0.0115 0.0258763044739
0.0035 0.0125 0.0225890251473
0.0035 0.0135 0.0177475147085
0.0035 0.0145 0.0117209536044
0.0035 0.0155 0.00593925379171
0.0035 0.0165 0.00223441509085
0.0035 0.0175 0.000776822592896
0.0035 0.0185 0.000310176342659
0.0035 0.0195 0.000127185893454
0.0035 0.0205 5.72122293884e-05
0.0035 0.0215 3.00815155383e-05
0.0035 0.0225 1.86331366413e-05
0.0035 0.0235 1.36981488025e-05
0.0035 0.0245 1.17723858719e-05
0.0035 0.0255 1.11269353878e-05
0.0035 0.0265 1.09482462395e-05
0.0035 0.0275 1.08195846727e-05
0.0035 0.0285 1.05378057558e-05
0.0035 0.0295 9.64245125331e-06
0.0035 0.0305 9.29304244943e-06
0.0035 0.0315 4.96998191943e-06
0.0045 -0.0315 3.99960840136e-06
0.0045 -0.0305 7.06438651995e-06
0.0045 -0.0295 7.0703266093e-06
0.0045 -0.0285 8.78553261102e-06
0.0045 -0.0275 1.24054106815e-05
0.0045 -0.0265 2.19996798935e-05
0.0045 -0.0255 5.13519723151e-05
0.0045 -0.0245 0.000155938063922
0.0045 -0.0235 0.000508347439186
0.0045 -0.0225 0.00160034888872
0.0045 -0.0215 0.00493897411292
0.0045 -0.0205 0.010549288457
0.0045 -0.0195 0.0148041544562
0.0045 -0.0185 0.0152489720302
0.0045 -0.0175 0.0127947083905
0.0045 -0.0165 0.00933692909355
0.0045 -0.0155 0.00639442608489
0.0045 -0.0145 0.00447312773606
0.0045 -0.0135 0.00339563134054
0.0045 -0.0125 0.0028846718956
0.0045 -0.0115 0.00274926517494
0.0045 -0.0105 0.00289042531612
0.0045 -0.0095 0.00325080593005
0.0045 -0.0085 0.00374254689997
0.0045 -0.0075 0.00416622958494
0.0045 -0.0065 0.0042078894238
0.0045 -0.0055 0.00376340526626
0.0045 -0.0045 0.00400101007045
0.0045 -0.0035 0.00694083676314
0.0045 -0.0025 0.0117381424214
0.0045 -0.0015 0.0170410178256
0.0045 -0.0005 0.0218109223792
0.0045 0.0005 0.0252405612414
0.0045 0.0015 0.0274125119589
0.0045 0.0025 0.0287402875806
0.0045 0.0035 0.0293281755289
0.0045 0.0045 0.028994178682
0.0045 0.0055 0.0277453791253
0.0045 0.0065 0.0261538011903
0.0045 0.0075 0.0250007611355
0.0045 0.0085 0.0247657678182
0.0045 0.0095 0.0254334549933
0.0045 0.0105 0.0264240991422
0.0045 0.0115 0.0268818773939
0.0045 0.0125 0.0260781535586
0.0045 0.0135 0.0233866429285
0.0045 0.0145 0.0183027848429
0.0045 0.0155 0.0114244008901
0.0045 0.0165 0.00518400292752
0.0045 0.0175 0.00176040617462
0.0045 0.0185 0.000604581217623
0.0045 0.0195 0.000223926741704
0.0045 0.0205 9.01541455462e-05
0.0045 0.0215 4.66856210633e-05
0.0045 0.0225 2.73954093753e-05
0.0045 0.0235 1.87739353509e-05
0.0045 0.0245 1.50581068565e-05
0.0045 0.0255 1.3379015312e-05
0.0045 0.0265 1.24437398969e-05
0.0045 0.0275 1.16444864183e-05
0.0045 0.0285 1.07673276505e-05
0.0045 0.0295 9.46971663672e-06
0.0045 0.0305 9.15457024873e-06
0.0045 0.0315 4.9945133446e-06
0.0055 -0.0315 4.29105416373e-06
0.0055 -0.0305 7.44605134014e-06
0.0055 -0.0295 7.41842588533e-06
0.0055 -0.0285 9.77807993581e-06
0.0055 -0.0275 1.52388110824e-05
0.0055 -0.0265 2.99888512138e-05
0.0055 -0.0255 7.60025129732e-05
0.0055 -0.0245 0.00027127072034
0.0055 -0.0235 0.000909506222812
0.0055 -0.0225 0.00289616813339
0.0055 -0.0215 0.00777486004622
0.0055 -0.0205 0.0137518559826
0.0055 -0.0195 0.0160379655473
0.0055 -0.0185 0.0134449382765
0.0055 -0.0175 0.0087235984889
0.0055 -0.0165 0.00477746254275
0.0055 -0.0155 0.00255837922085
0.0055 -0.0145 0.00153758662384
0.0055 -0.0135 0.00110495815631
0.0055 -0.0125 0.000917362750415
0.0055 -0.0115 0.000852489529843
0.0055 -0.0105 0.000872734888757
0.0055 -0.0095 0.000970169965568
0.0055 -0.0085 0.00115307425339
0.0055 -0.0075 0.00141640387045
0.0055 -0.0065 0.00176300881341
0.0055 -0.0055 0.00214468978413
0.0055 -0.0045 0.0025955783065
0.0055 -0.0035 0.00371387858868
0.0055 -0.0025 0.00601346043541
0.0055 -0.0015 0.00927758368449
0.0055 -0.0005 0.0129118219956
0.0055 0.0005 0.0160975619706
0.0055 0.0015 0.018307067363
0.0055 0.0025 0.0193146669306
0.0055 0.0035 0.0190178712128
0.0055 0.0045 0.0175918545285
0.0055 0.0055 0.0156315235338
0.0055 0.0065 0.0139814743669
0.0055 0.0075 0.0132660495348
0.0055 0.0085 0.0138398136095
0.0055 0.0095 0.0159384893776
0.0055 0.0105 0.01930795595
0.0055 0.0115 0.0228807873384
0.0055 0.0125 0.0252209445808
0.0055 0.0135 0.0253683915388
0.0055 0.0145 0.0227308652781
0.0055 0.0155 0.0168670786099
0.0055 0.0165 0.00931045825917
0.0055 0.0175 0.00360966852134
0.0055 0.0185 0.00116120315125
0.0055 0.0195 0.00043429634361
0.0055 0.0205 0.000179858534519
0.0055 0.0215 8.29648784786e-05
0.0055 0.0225 4.54445048124e-05
0.0055 0.0235 2.94110837456e-05
0.0055 0.0245 2.16207488959e-05
0.0055 0.0255 1.74712047764e-05
0.0055 0.0265 1.48194844398e-05
0.0055 0.0275 1.27852423837e-05
0.0055 0.0285 1.11084623736e-05
0.0055 0.0295 9.41259281189e-06
0.0055 0.0305 8.99078046618e-06
0.0055 0.0315 4.91676232479e-06
0.0065 -0.0315 4.61005989433e-06
0.0065 -0.0305 7.90864121381e-06
0.0065 -0.0295 7.9089331356e-06
0.0065 -0.0285 1.1050245705e-05
0.0065 -0.0275 1.89026659718e-05
0.0065 -0.0265 4.12845194888e-05
0.0065 -0.0255 0.000108033167453
0.0065 -0.0245 0.000400926447507
0.0065 -0.0235 0.00142962642849
0.0065 -0.0225 0.00462345114651
0.0065 -0.0215 0.0106980194462
0.0065 -0.0205 0.0158507173192
0.0065 -0.0195 0.0154603030322
0.0065 -0.0185 0.0104075478098
0.0065 -0.0175 0.00511830182859
0.0065 -0.0165 0.00214145027045
0.0065 -0.0155 0.000950115590142
0.0065 -0.0145 0.000528869620394
0.0065 -0.0135 0.000400448778051
0.0065 -0.0125 0.000353050872835
0.0065 -0.0115 0.000343629082788
0.0065 -0.0105 0.00036232211697
0.0065 -0.0095 0.000414573612497
0.0065 -0.0085 0.000523405802146
0.0065 -0.0075 0.000674296893244
0.0065 -0.0065 0.000987946249971
0.0065 -0.0055 0.00152164170714
0.0065 -0.0045 0.00221347676862
0.0065 -0.0035 0.00290302332299
0.0065 -0.0025 0.00330527262627
0.0065 -0.0015 0.00391617869252
0.0065 -0.0005 0.00526479742832
0.0065 0.0005 0.00675557068398
0.0065 0.0015 0.00779259277399
0.0065 0.0025 0.00808926343148
0.0065 0.0035 0.00750466344263
0.0065 0.0045 0.00632527425749
0.0065 0.0055 0.00524693910126
0.0065 0.0065 0.00475369801077
0.0065 0.0075 0.00478423192788
0.0065 0.0085 0.00537574644708
0.0065 0.0095 0.00709366465572
0.0065 0.0105 0.0106985247503
0.0065 0.0115 0.0160874283845
0.0065 0.0125 0.0214847755142
0.0065 0.0135 0.024672707418
0.0065 0.0145 0.0246609234477
0.0065 0.0155 0.020871895949
0.0065 0.0165 0.0136165628937
0.0065 0.0175 0.00625521730765
0.0065 0.0185 0.00216872790276
0.0065 0.0195 0.000837405052445
0.0065 0.0205 0.000366686304379
0.0065 0.0215 0.000161364271489
0.0065 0.0225 8.73874754205e-05
0.0065 0.0235 5.31301395042e-05
0.0065 0.0245 3.58166382203e-05
0.0065 0.0255 2.57859747318e-05
0.0065 0.0265 1.92757364919e-05
0.0065 0.0275 1.48232311003e-05
0.0065 0.0285 1.18645759894e-05
0.0065 0.0295 9.62976554654e-06
0.0065 0.0305 8.9497383093e-06
0.0065 0.0315 4.84015281884e-06
0.0075 -0.0315 4.9320443173e-06
0.0075 -0.0305 8.45177688478e-06
0.0075 -0.0295 8.62634006961e-06
0.0075 -0.0285 1.27431879554e-05
0.0075 -0.0275 2.36783674375e-05
0.0075 -0.0265 5.76385720811e-05
0.0075 -0.0255 0.000180275082792
0.0075 -0.0245 0.000633861374174
0.0075 -0.0235 0.00221632837661
0.0075 -0.0225 0.00668811718622
0.0075 -0.0215 0.0132924803137
0.0075 -0.0205 0.0166738654958
0.0075 -0.0195 0.0135497761299
0.0075 -0.0185 0.00730658159696
0.0075 -0.0175 0.00284791884444
0.0075 -0.0165 0.00101790025881
0.0075 -0.0155 0.00039822846618
0.0075 -0.0145 0.000212563738035
0.0075 -0.0135 0.000169894973304
0.0075 -0.0125 0.000164399800955
0.0075 -0.0115 0.000172591987459
0.0075 -0.0105 0.000191412692057
0.0075 -0.0095 0.000230194529176
0.0075 -0.0085 0.000313910473469
0.0075 -0.0075 0.000441551389457
0.0075 -0.0065 0.00073125041904
0.0075 -0.0055 0.0012529780816
0.0075 -0.0045 0.00213594848773
0.0075 -0.0035 0.00287604272858
0.0075 -0.0025 0.00275433315233
0.0075 -0.0015 0.00226879714312
0.0075 -0.0005 0.00208513269131
0.0075 0.0005 0.0021476416507
0.0075 0.0015 0.00225342300767
0.0075 0.0025 0.00230396368061
0.0075 0.0035 0.00210941968957
0.0075 0.0045 0.00167436296788
0.0075 0.0055 0.00136922414578
0.0075 0.0065 0.00144108154112
0.0075 0.0075 0.00165056712403
0.0075 0.0085 0.00188952592751
0.0075 0.0095 0.00258517155485
0.0075 0.0105 0.00478752698656
0.0075 0.0115 0.00969673014667
0.0075 0.0125 0.0165639884348
0.0075 0.0135 0.0223635032573
0.0075 0.0145 0.0247015622074
0.0075 0.0155 0.0229833127888
0.0075 0.0165 0.0170524240945
0.0075 0.0175 0.0092314315121
0.0075 0.0185 0.00380955982277
0.0075 0.0195 0.00166215822051
0.0075 0.0205 0.00085382167315
0.0075 0.0215 0.000410414555339
0.0075 0.0225 0.00020394625208
0.0075 0.0235 0.000115687424862
0.0075 0.0245 7.15666602927e-05
0.0075 0.0255 4.59912231699e-05
0.0075 0.0265 2.94989277911e-05
0.0075 0.0275 1.93850489991e-05
0.0075 0.0285 1.3797417184e-05
0.0075 0.0295 1.04849677347e-05
0.0075 0.0305 9.3313045228e-06
0.0075 0.0315 4.96500032998e-06
0.0085 -0.0315 5.33863299736e-06
0.0085 -0.0305 9.1811554997e-06
0.0085 -0.0295 9.68114422078e-06
0.0085 -0.0285 1.5145258905e-05
0.0085 -0.0275 2.99369570327e-05
0.0085 -0.0265 7.64042982743e-05
0.0085 -0.0255 0.000276747240553
0.0085 -0.0245 0.000969722604378
0.0085 -0.0235 0.00329417803025
0.0085 -0.0225 0.00887751764412
0.0085 -0.0215 0.0152442418424
0.0085 -0.0205 0.0163366484994
0.0085 -0.0195 0.0110525806057
0.0085 -0.0185 0.00485416817963
0.0085 -0.0175 0.00164876683563
0.0085 -0.0165 0.000562640381232
0.0085 -0.0155 0.000212927325638
0.0085 -0.0145 0.00012415969216
0.0085 -0.0135 9.76861143926e-05
0.0085 -0.0125 9.41268552245e-05
0.0085 -0.0115 9.93305361441e-05
0.0085 -0.0105 0.000111359224203
0.0085 -0.0095 0.000135942942028
0.0085 -0.0085 0.00018540024044
0.0085 -0.0075 0.000280231308007
0.0085 -0.0065 0.000487014286635
0.0085 -0.0055 0.00093909618826
0.0085 -0.0045 0.00191525887353
0.0085 -0.0035 0.00249451274049
0.0085 -0.0025 0.00205938722129
0.0085 -0.0015 0.00157088727417
0.0085 -0.0005 0.00137584768464
0.0085 0.0005 0.00113237721315
0.0085 0.0015 0.000804843568284
0.0085 0.0025 0.000660857022672
0.0085 0.0035 0.000608636538182
0.0085 0.0045 0.000482782203839
0.0085 0.0055 0.000396133848835
0.0085 0.0065 0.000485675700917
0.0085 0.0075 0.000662599850029
0.0085 0.0085 0.000806907889235
0.0085 0.0095 0.00103169111287
0.0085 0.0105 0.00202741333049
0.0085 0.0115 0.00557858371322
0.0085 0.0125 0.0123075300201
0.0085 0.0135 0.0195472758347
0.0085 0.0145 0.0235977742437
0.0085 0.0155 0.0233568173467
0.0085 0.0165 0.0188429307185
0.0085 0.0175 0.0116856179603
0.0085 0.0185 0.00610075447536
0.0085 0.0195 0.00359826042779
0.0085 0.0205 0.00233088520483
0.0085 0.0215 0.00128914760125
0.0085 0.0225 0.000599163418084
0.0085 0.0235 0.00029997316823
0.0085 0.0245 0.000179043111263
0.0085 0.0255 0.000103239613994
0.0085 0.0265 5.43408369468e-05
0.0085 0.0275 2.96244482345e-05
0.0085 0.0285 1.82424949291e-05
0.0085 0.0295 1.24634899554e-05
0.0085 0.0305 1.03344400008e-05
0.0085 0.0315 5.36799213613e-06
0.0095 -0.0315 5.81054241263e-06
0.0095 -0.0305 1.01203963142e-05
0.0095 -0.0295 1.12278771359e-05
0.0095 -0.0285 1.88138914667e-05
0.0095 -0.0275 3.97835641652e-05
0.0095 -0.0265 0.000101827267374
0.0095 -0.0255 0.00037298229065
0.0095 -0.0245 0.00135615380937
0.0095 -0.0235 0.00454838362686
0.0095 -0.0225 0.0109202986693
0.0095 -0.0215 0.0163817434286
0.0095 -0.0205 0.0151570574782
0.0095 -0.0195 0.00862575535472
0.0095 -0.0185 0.00316718552226
0.0095 -0.0175 0.00100025429625
0.0095 -0.0165 0.000354577077114
0.0095 -0.0155 0.000154732065764
0.0095 -0.0145 9.08454112774e-05
0.0095 -0.0135 6.93068248574e-05
0.0095 -0.0125 6.36141204867e-05
0.0095 -0.0115 6.5378354256e-05
0.0095 -0.0105 7.29662939823e-05
0.0095 -0.0095 9.02149737876e-05
0.0095 -0.0085 0.000128270172433
0.0095 -0.0075 0.000217979617375
0.0095 -0.0065 0.000450008372443
0.0095 -0.0055 0.00116352359053
0.0095 -0.0045 0.00233278958815
0.0095 -0.0035 0.00243919636638
0.0095 -0.0025 0.00149210668439
0.0095 -0.0015 0.000954090557821
0.0095 -0.0005 0.000820270835484
0.0095 0.0005 0.000657330531206
0.0095 0.0015 0.00039810009605
0.0095 0.0025 0.000241275369635
0.0095 0.0035 0.000192805654571
0.0095 0.0045 0.000164762429723
0.0095 0.0055 0.000158794181344
0.0095 0.0065 0.000198693271402
0.0095 0.0075 0.000293090382602
0.0095 0.0085 0.000384647204225
0.0095 0.0095 0.000481663772796
0.0095 0.0105 0.000993011522181
0.0095 0.0115 0.00362051960363
0.0095 0.0125 0.00970899616575
0.0095 0.0135 0.0173018731441
0.0095 0.0145 0.0220946802179
0.0095 0.0155 0.0224506235923
0.0095 0.0165 0.0186496363896
0.0095 0.0175 0.0124597953475
0.0095 0.0185 0.0082562865336
0.0095 0.0195 0.00691003037348
0.0095 0.0205 0.00580999478021
0.0095 0.0215 0.00399097821526
0.0095 0.0225 0.00209655870294
0.0095 0.0235 0.00103072391181
0.0095 0.0245 0.000580196176159
0.0095 0.0255 0.00028034857879
0.0095 0.0265 0.000113900117784
0.0095 0.0275 5.26362656891e-05
0.0095 0.0285 2.72393559388e-05
0.0095 0.0295 1.62759953082e-05
0.0095 0.0305 1.21924113823e-05
0.0095 0.0315 6.09605011102e-06
0.0105 -0.0315 6.34369258966e-06
0.0105 -0.0305 1.12801889798e-05
0.0105 -0.0295 1.33422611052e-05
0.0105 -0.0285 2.42163882593e-05
0.0105 -0.0275 5.61939489483e-05
0.0105 -0.0265 0.000165169085914
0.0105 -0.0255 0.000553709344242
0.0105 -0.0245 0.00188423660916
0.0105 -0.0235 0.00590017786907
0.0105 -0.0225 0.0126001516942
0.0105 -0.0215 0.0167038927215
0.0105 -0.0205 0.0135260936257
0.0105 -0.0195 0.00664418111829
0.0105 -0.0185 0.00217887176262
0.0105 -0.0175 0.000683094019763
0.0105 -0.0165 0.000253868504033
0.0105 -0.0155 0.000131445736068
0.0105 -0.0145 8.05400041931e-05
0.0105 -0.0135 5.98028580883e-05
0.0105 -0.0125 5.24229566373e-05
0.0105 -0.0115 5.20003871838e-05
0.0105 -0.0105 5.75029849203e-05
0.0105 -0.0095 7.37986964458e-05
0.0105 -0.0085 0.000117004102292
0.0105 -0.0075 0.000237356713079
0.0105 -0.0065 0.000567613017595
0.0105 -0.0055 0.001715365955
0.0105 -0.0045 0.00332480516065
0.0105 -0.0035 0.00314874317134
0.0105 -0.0025 0.00157428643312
0.0105 -0.0015 0.000672498355287
0.0105 -0.0005 0.000415618448957
0.0105 0.0005 0.000294496693805
0.0105 0.0015 0.000189457139349
0.0105 0.0025 0.00011757763389
0.0105 0.0035 8.37375686899e-05
0.0105 0.0045 7.21018107257e-05
0.0105 0.0055 7.91540145011e-05
0.0105 0.0065 0.000112272364338
0.0105 0.0075 0.000173442886839
0.0105 0.0085 0.000227645228672
0.0105 0.0095 0.000275433768
0.0105 0.0105 0.000721080354258
0.0105 0.0115 0.00317171475484
0.0105 0.0125 0.00897454655523
0.0105 0.0135 0.0163430360285
0.0105 0.0145 0.0209098083283
0.0105 0.0155 0.0209120192453
0.0105 0.0165 0.0167098202677
0.0105 0.0175 0.0108223525299
0.0105 0.0185 0.00847413179872
0.0105 0.0195 0.00902936325149
0.0105 0.0205 0.00934107109256
0.0105 0.0215 0.00828685705453
0.0105 0.0225 0.00577061206978
0.0105 0.0235 0.00322830291046
0.0105 0.0245 0.00162483847564
0.0105 0.0255 0.000732047088052
0.0105 0.0265 0.000275081159936
0.0105 0.0275 9.96026312621e-05
0.0105 0.0285 4.40475236254e-05
0.0105 0.0295 2.3192867248e-05
0.0105 0.0305 1.53739668731e-05
0.0105 0.0315 7.31133033176e-06
0.0115 -0.0315 6.99964689e-06
0.0115 -0.0305 1.27027825628e-05
0.0115 -0.0295 1.59703126682e-05
0.0115 -0.0285 3.13294619571e-05
0.0115 -0.0275 7.79292157994e-05
0.0115 -0.0265 0.000256836288136
0.0115 -0.0255 0.000818635220154
0.0115 -0.0245 0.00257944254257
0.0115 -0.0235 0.00727308604908
0.0115 -0.0225 0.0137849009341
0.0115 -0.0215 0.0163284919419
0.0115 -0.0205 0.0117951855216
0.0115 -0.0195 0.0052052379156
0.0115 -0.0185 0.0017275447672
0.0115 -0.0175 0.00063345100858
0.0115 -0.0165 0.000259647435667
0.0115 -0.0155 0.000138489202113
0.0115 -0.0145 8.77240780484e-05
0.0115 -0.0135 6.44971848696e-05
0.0115 -0.0125 5.38717712265e-05
0.0115 -0.0115 5.06381580194e-05
0.0115 -0.0105 5.46323544594e-05
0.0115 -0.0095 7.23321927724e-05
0.0115 -0.0085 0.000126678450352
0.0115 -0.0075 0.000298509021152
0.0115 -0.0065 0.000843723573247
0.0115 -0.0055 0.00240732683771
0.0115 -0.0045 0.00416424988622
0.0115 -0.0035 0.00362501191163
0.0115 -0.0025 0.0016398627546
0.0115 -0.0015 0.00055060671089
0.0115 -0.0005 0.000252266358973
0.0115 0.0005 0.000150388400281
0.0115 0.0015 9.91966151853e-05
0.0115 0.0025 6.63571893658e-05
0.0115 0.0035 4.79944292176e-05
0.0115 0.0045 4.27735707085e-05
0.0115 0.0055 5.14975470218e-05
0.0115 0.0065 8.07396006678e-05
0.0115 0.0075 0.000137012754143
0.0115 0.0085 0.000187817759923
0.0115 0.0095 0.000282293597481
0.0115 0.0105 0.000979838963713
0.0115 0.0115 0.00389699220279
0.0115 0.0125 0.00997258979861
0.0115 0.0135 0.0168826167598
0.0115 0.0145 0.0205406012729
0.0115 0.0155 0.0194071449599
0.0115 0.0165 0.0138780438329
0.0115 0.0175 0.00736411914574
0.0115 0.0185 0.00560540182874
0.0115 0.0195 0.00653681563332
0.0115 0.0205 0.00825845076729
0.0115 0.0215 0.00984539981629
0.0115 0.0225 0.00940774923286
0.0115 0.0235 0.00684632102098
0.0115 0.0245 0.00382241434153
0.0115 0.0255 0.00167255026311
0.0115 0.0265 0.000589277260407
0.0115 0.0275 0.000189196905344
0.0115 0.0285 7.694697695e-05
0.0115 0.0295 3.5401731507e-05
0.0115 0.0305 2.09118804341e-05
0.0115 0.0315 9.44254563613e-06
0.0125 -0.0315 7.79445285726e-06
0.0125 -0.0305 1.44210843652e-05
0.0125 -0.0295 1.91496439423e-05
0.0125 -0.0285 3.9833798604e-05
0.0125 -0.0275 0.00010270915155
0.0125 -0.0265 0.000349325418557
0.0125 -0.0255 0.00111672525261
0.0125 -0.0245 0.00343224061183
0.0125 -0.0235 0.00864378440412
0.0125 -0.0225 0.0144235041418
0.0125 -0.0215 0.0153079691884
0.0125 -0.0205 0.0100885787851
0.0125 -0.0195 0.00429968277663
0.0125 -0.0185 0.00171663489305
0.0125 -0.0175 0.000782006439701
0.0125 -0.0165 0.000349454255761
0.0125 -0.0155 0.000194367016493
0.0125 -0.0145 0.000126984299765
0.0125 -0.0135 9.05911871949e-05
0.0125 -0.0125 6.92391929085e-05
0.0125 -0.0115 5.89382907801e-05
0.0125 -0.0105 5.92167774624e-05
0.0125 -0.0095 7.67969962397e-05
0.0125 -0.0085 0.000139956867189
0.0125 -0.0075 0.000347284219136
0.0125 -0.0065 0.00113337727756
0.0125 -0.0055 0.00311344709744
0.0125 -0.0045 0.00463822615575
0.0125 -0.0035 0.00348211902398
0.0125 -0.0025 0.00140659216232
0.0125 -0.0015 0.000448210320637
0.0125 -0.0005 0.000186368927645
0.0125 0.0005 9.96701076017e-05
0.0125 0.0015 6.47816707482e-05
0.0125 0.0025 4.61121532917e-05
0.0125 0.0035 3.62376735904e-05
0.0125 0.0045 3.424763535e-05
0.0125 0.0055 4.19410056981e-05
0.0125 0.0065 6.63671574597e-05
0.0125 0.0075 0.000124433962319
0.0125 0.0085 0.000222794909365
0.0125 0.0095 0.000504485567055
0.0125 0.0105 0.00177253659866
0.0125 0.0115 0.0056866409061
0.0125 0.0125 0.0123045314916
0.0125 0.0135 0.0184941465094
0.0125 0.0145 0.0207329784411
0.0125 0.0155 0.0178594998338
0.0125 0.0165 0.0108769807167
0.0125 0.0175 0.00425023105384
0.0125 0.0185 0.0023802004395
0.0125 0.0195 0.00255178554323
0.0125 0.0205 0.00414340234933
0.0125 0.0215 0.00704403894615
0.0125 0.0225 0.00950940375809
0.0125 0.0235 0.00957694790067
0.0125 0.0245 0.0069498733553
0.0125 0.0255 0.00349924299098
0.0125 0.0265 0.00126502484087
0.0125 0.0275 0.000411715039081
0.0125 0.0285 0.000139393098848
0.0125 0.0295 5.74942974541e-05
0.0125 0.0305 3.13447680039e-05
0.0125 0.0315 1.35855002423e-05
0.0135 -0.0315 8.83648397631e-06
0.0135 -0.0305 1.66624679018e-05
0.0135 -0.0295 2.34552548915e-05
0.0135 -0.0285 5.11961854555e-05
0.0135 -0.0275 0.000134531873678
0.0135 -0.0265 0.000468482558793
0.0135 -0.0255 0.00154085288128
0.0135 -0.0245 0.00459441156134
0.0135 -0.0235 0.0100884775323
0.0135 -0.0225 0.0145105996827
0.0135 -0.0215 0.0135788007033
0.0135 -0.0205 0.00824706036172
0.0135 -0.0195 0.00394144177404
0.0135 -0.0185 0.00236261709361
0.0135 -0.0175 0.00130181727693
0.0135 -0.0165 0.000625342195856
0.0135 -0.0155 0.000395847545492
0.0135 -0.0145 0.000259285134514
0.0135 -0.0135 0.000163791727591
0.0135 -0.0125 0.00010936592953
0.0135 -0.0115 8.16872851248e-05
0.0135 -0.0105 7.18609756387e-05
0.0135 -0.0095 8.50389474248e-05
0.0135 -0.0085 0.000150969638866
0.0135 -0.0075 0.000370126988113
0.0135 -0.0065 0.00131224701127
0.0135 -0.0055 0.00361156561945
0.0135 -0.0045 0.00469609079033
0.0135 -0.0035 0.00292613202982
0.0135 -0.0025 0.00104638100669
0.0135 -0.0015 0.00034562986373
0.0135 -0.0005 0.000145025172214
0.0135 0.0005 7.80330127672e-05
0.0135 0.0015 5.21128326672e-05
0.0135 0.0025 4.00897966447e-05
0.0135 0.0035 3.49797770175e-05
0.0135 0.0045 3.60521911065e-05
0.0135 0.0055 4.47813167887e-05
0.0135 0.0065 6.78476852349e-05
0.0135 0.0075 0.000140359744041
0.0135 0.0085 0.000345367157071
0.0135 0.0095 0.000962905052909
0.0135 0.0105 0.00318728601942
0.0135 0.0115 0.00838022799138
0.0135 0.0125 0.0153028054584
0.0135 0.0135 0.0202800560168
0.0135 0.0145 0.0204376948567
0.0135 0.0155 0.015365388772
0.0135 0.0165 0.00771849658629
0.0135 0.0175 0.00248959143741
0.0135 0.0185 0.00119298611717
0.0135 0.0195 0.000974839185694
0.0135 0.0205 0.00171867396868
0.0135 0.0215 0.00368972473883
0.0135 0.0225 0.00676060605691
0.0135 0.0235 0.00953675550111
0.0135 0.0245 0.00949911552955
0.0135 0.0255 0.00623374935089
0.0135 0.0265 0.00264264305574
0.0135 0.0275 0.000830602882445
0.0135 0.0285 0.000258264766947
0.0135 0.0295 0.000102680375039
0.0135 0.0305 5.31184575817e-05
0.0135 0.0315 2.26410913378e-05
0.0145 -0.0315 1.03203333048e-05
0.0145 -0.0305 1.99234907788e-05
0.0145 -0.0295 3.01701433094e-05
0.0145 -0.0285 7.16344499991e-05
0.0145 -0.0275 0.000194783082805
0.0145 -0.0265 0.000675438709333
0.0145 -0.0255 0.00231039271269
0.0145 -0.0245 0.00633372502807
0.0145 -0.0235 0.0116596325477
0.0145 -0.0225 0.0140212094531
0.0145 -0.0215 0.0111062310519
0.0145 -0.0205 0.00604722644435
0.0145 -0.0195 0.00381733426145
0.0145 -0.0185 0.00351597994563
0.0145 -0.0175 0.00275325209644
0.0145 -0.0165 0.0018404926509
0.0145 -0.0155 0.00121649435619
0.0145 -0.0145 0.000692216607705
0.0145 -0.0135 0.000355542024963
0.0145 -0.0125 0.000211551332322
0.0145 -0.0115 0.000134288537277
0.0145 -0.0105 9.93666666844e-05
0.0145 -0.0095 0.000101458249497
0.0145 -0.0085 0.000166643502316
0.0145 -0.0075 0.000395997789957
0.0145 -0.0065 0.00147767951209
0.0145 -0.0055 0.00394673267835
0.0145 -0.0045 0.004475481449
0.0145 -0.0035 0.00223475516523
0.0145 -0.0025 0.000694267607356
0.0145 -0.0015 0.000256284338737
0.0145 -0.0005 0.000115422128124
0.0145 0.0005 6.75691702174e-05
0.0145 0.0015 4.88377339427e-05
0.0145 0.0025 4.12417648805e-05
0.0145 0.0035 4.02920050484e-05
0.0145 0.0045 4.69474874277e-05
0.0145 0.0055 6.39978146557e-05