% Model:              Benchmark260518.mph
% Version:            COMSOL 6.2.0.339
% Date:               May 21 2026, 02:06
% Dimension:          2
% Nodes:              4096
% Expressions:        1
% Description:        速度大小
% Length unit:        m
% x                       y                        spf.U (m/s)
5.0E-4                    -0.0315                  1.8293123471512324E-6
5.0E-4                    -0.0305                  3.6728448445854224E-6
5.0E-4                    -0.0295                  4.122927244055508E-6
5.0E-4                    -0.0285                  4.59819501201229E-6
5.0E-4                    -0.0275                  4.849255658259917E-6
5.0E-4                    -0.0265                  5.110296226511838E-6
5.0E-4                    -0.0255                  5.409924853881416E-6
5.0E-4                    -0.0245                  5.788285072935028E-6
5.0E-4                    -0.0235                  6.180145155330926E-6
5.0E-4                    -0.0225                  6.5013149321491365E-6
5.0E-4                    -0.0215                  6.730410507394731E-6
5.0E-4                    -0.0205                  6.893450736957485E-6
5.0E-4                    -0.0195                  7.013424605573643E-6
5.0E-4                    -0.0185                  7.152234882568651E-6
5.0E-4                    -0.0175                  7.415164150498775E-6
5.0E-4                    -0.0165                  7.952774188828572E-6
5.0E-4                    -0.0155                  8.819492957817381E-6
5.0E-4                    -0.0145                  1.0146952574795765E-5
5.0E-4                    -0.0135                  1.2818080566211112E-5
5.0E-4                    -0.0125                  1.7307862770975718E-5
5.0E-4                    -0.0115                  2.374670651942867E-5
5.0E-4                    -0.0105                  3.343047300499542E-5
5.0E-4                    -0.0095                  4.780493891806562E-5
5.0E-4                    -0.0085                  7.249251506911062E-5
5.0E-4                    -0.0075                  1.9882771531171668E-4
5.0E-4                    -0.0065                  4.886423081028383E-4
5.0E-4                    -0.0055                  8.529295258559058E-4
5.0E-4                    -0.0045                  0.0011349732061532584
5.0E-4                    -0.0035                  0.0012327197432841523
5.0E-4                    -0.0025                  0.0010946427832848884
5.0E-4                    -0.0015                  0.0010862906990284614
5.0E-4                    -5.0E-4                  0.0066538454080610826
5.0E-4                    5.0E-4                   0.021371906181633885
5.0E-4                    0.0015                   0.029664044329224717
5.0E-4                    0.0025                   0.02439777220616294
5.0E-4                    0.0035                   0.0173997101463548
5.0E-4                    0.0045                   0.009994525757080932
5.0E-4                    0.0055                   0.004220204755013761
5.0E-4                    0.0065                   0.0011231852362723167
5.0E-4                    0.0075                   2.9744167393764686E-4
5.0E-4                    0.0085                   1.807052308047144E-4
5.0E-4                    0.0095                   5.607701937329693E-4
5.0E-4                    0.0105                   0.0020026990044466437
5.0E-4                    0.0115                   0.005145884171572937
5.0E-4                    0.0125                   0.00961861939730853
5.0E-4                    0.0135                   0.013905245529939157
5.0E-4                    0.0145                   0.017176020167235125
5.0E-4                    0.0155                   0.012137720445787295
5.0E-4                    0.0165                   0.003328247614313029
5.0E-4                    0.0175                   6.921945685167293E-4
5.0E-4                    0.0185                   2.9827939773294405E-4
5.0E-4                    0.0195                   1.2119392352004947E-4
5.0E-4                    0.0205                   3.7295218408259477E-5
5.0E-4                    0.0215                   1.4532658519455483E-5
5.0E-4                    0.0225                   7.399939407864223E-6
5.0E-4                    0.0235                   5.188254921809127E-6
5.0E-4                    0.0245                   4.3441343428356004E-6
5.0E-4                    0.0255                   3.765632769792723E-6
5.0E-4                    0.0265                   3.4028865033448067E-6
5.0E-4                    0.0275                   3.1363119256214E-6
5.0E-4                    0.0285                   2.906479127006236E-6
5.0E-4                    0.0295                   2.583705512110334E-6
5.0E-4                    0.0305                   2.293081287012997E-6
5.0E-4                    0.0315                   1.1309270295731304E-6
0.0015                    -0.0315                  3.5737141916025035E-6
0.0015                    -0.0305                  7.075696663427873E-6
0.0015                    -0.0295                  7.603623816820708E-6
0.0015                    -0.0285                  8.132915888776309E-6
0.0015                    -0.0275                  8.332169211961548E-6
0.0015                    -0.0265                  8.589494972355134E-6
0.0015                    -0.0255                  8.943493960437971E-6
0.0015                    -0.0245                  9.434268771533512E-6
0.0015                    -0.0235                  9.977070316169453E-6
0.0015                    -0.0225                  1.0456467313666834E-5
0.0015                    -0.0215                  1.081760595737939E-5
0.0015                    -0.0205                  1.1070884469212882E-5
0.0015                    -0.0195                  1.1267399461943543E-5
0.0015                    -0.0185                  1.1561086674612432E-5
0.0015                    -0.0175                  1.2240901649034057E-5
0.0015                    -0.0165                  1.3788077163290303E-5
0.0015                    -0.0155                  1.6906129550530067E-5
0.0015                    -0.0145                  2.287382105888261E-5
0.0015                    -0.0135                  3.397114492901305E-5
0.0015                    -0.0125                  5.0062761494250295E-5
0.0015                    -0.0115                  6.769889503237802E-5
0.0015                    -0.0105                  9.455842409154453E-5
0.0015                    -0.0095                  1.437909043551792E-4
0.0015                    -0.0085                  2.993271670180655E-4
0.0015                    -0.0075                  7.501171472436546E-4
0.0015                    -0.0065                  0.0014316812551418451
0.0015                    -0.0055                  0.001964477092659732
0.0015                    -0.0045                  0.0020954859063857583
0.0015                    -0.0035                  0.0016877807734078766
0.0015                    -0.0025                  0.0016038833600685014
0.0015                    -0.0015                  0.007304271900748668
0.0015                    -5.0E-4                  0.01861154075649232
0.0015                    5.0E-4                   0.02876288096064614
0.0015                    0.0015                   0.028987026751346637
0.0015                    0.0025                   0.02213833031789242
0.0015                    0.0035                   0.014182167370418268
0.0015                    0.0045                   0.007027129738735927
0.0015                    0.0055                   0.0025729969665673888
0.0015                    0.0065                   7.610434840870966E-4
0.0015                    0.0075                   2.3820726487719246E-4
0.0015                    0.0085                   1.4272561350216285E-4
0.0015                    0.0095                   2.8937555447076024E-4
0.0015                    0.0105                   7.969357259606022E-4
0.0015                    0.0115                   0.002566428293661207
0.0015                    0.0125                   0.006657547118943015
0.0015                    0.0135                   0.012164599030268878
0.0015                    0.0145                   0.01696218072062416
0.0015                    0.0155                   0.016004190312643923
0.0015                    0.0165                   0.008408689605383744
0.0015                    0.0175                   0.002375575144065767
0.0015                    0.0185                   6.903064750811892E-4
0.0015                    0.0195                   2.575566093490644E-4
0.0015                    0.0205                   7.50523516176403E-5
0.0015                    0.0215                   2.9246566856931594E-5
0.0015                    0.0225                   1.433368377724827E-5
0.0015                    0.0235                   9.28339562404374E-6
0.0015                    0.0245                   7.3651817879633106E-6
0.0015                    0.0255                   6.361667389254965E-6
0.0015                    0.0265                   5.813451729761828E-6
0.0015                    0.0275                   5.481962027909672E-6
0.0015                    0.0285                   5.249037831896742E-6
0.0015                    0.0295                   4.8574496677759425E-6
0.0015                    0.0305                   4.456348941482054E-6
0.0015                    0.0315                   2.2199243571130474E-6
0.0025                    -0.0315                  3.778165164211953E-6
0.0025                    -0.0305                  7.220481959148222E-6
0.0025                    -0.0295                  7.368854502430894E-6
0.0025                    -0.0285                  7.659355957641415E-6
0.0025                    -0.0275                  7.607338575994727E-6
0.0025                    -0.0265                  7.600856766278313E-6
0.0025                    -0.0255                  7.690575982000726E-6
0.0025                    -0.0245                  7.91058793618033E-6
0.0025                    -0.0235                  8.235322170254858E-6
0.0025                    -0.0225                  8.609959689192877E-6
0.0025                    -0.0215                  8.96529399166452E-6
0.0025                    -0.0205                  9.258708847826077E-6
0.0025                    -0.0195                  9.542767702838889E-6
0.0025                    -0.0185                  1.0054928852792501E-5
0.0025                    -0.0175                  1.1340456636230664E-5
0.0025                    -0.0165                  1.447095908770404E-5
0.0025                    -0.0155                  2.1645655907242314E-5
0.0025                    -0.0145                  3.6987910314048815E-5
0.0025                    -0.0135                  6.620116414181392E-5
0.0025                    -0.0125                  1.1156840351238906E-4
0.0025                    -0.0115                  1.45624753563632E-4
0.0025                    -0.0105                  1.823607651755226E-4
0.0025                    -0.0095                  3.351734940144502E-4
0.0025                    -0.0085                  7.85647722089304E-4
0.0025                    -0.0075                  0.0014893607348946704
0.0025                    -0.0065                  0.0019002257470796618
0.0025                    -0.0055                  0.0013616964726030825
0.0025                    -0.0045                  5.799352325938814E-4
0.0025                    -0.0035                  0.003921616180858092
0.0025                    -0.0025                  0.009930656132707143
0.0025                    -0.0015                  0.018626962534448205
0.0025                    -5.0E-4                  0.026801930075916306
0.0025                    5.0E-4                   0.029872077363199738
0.0025                    0.0015                   0.025864971788665203
0.0025                    0.0025                   0.01788263460946516
0.0025                    0.0035                   0.010027116011706314
0.0025                    0.0045                   0.0042894677206947555
0.0025                    0.0055                   0.0014745709576432764
0.0025                    0.0065                   4.821576723317313E-4
0.0025                    0.0075                   1.7790391820307933E-4
0.0025                    0.0085                   1.1507127464108907E-4
0.0025                    0.0095                   2.2448681556670372E-4
0.0025                    0.0105                   5.872513193249063E-4
0.0025                    0.0115                   0.0015380224578303927
0.0025                    0.0125                   0.004247412278815696
0.0025                    0.0135                   0.009373556601265185
0.0025                    0.0145                   0.015198748189892882
0.0025                    0.0155                   0.016788172186186185
0.0025                    0.0165                   0.011600329812074884
0.0025                    0.0175                   0.004752793806682692
0.0025                    0.0185                   0.0012951645551814953
0.0025                    0.0195                   3.919275952159659E-4
0.0025                    0.0205                   1.0775876294580347E-4
0.0025                    0.0215                   4.0993107338364934E-5
0.0025                    0.0225                   1.8016587896841396E-5
0.0025                    0.0235                   1.0075355102593812E-5
0.0025                    0.0245                   7.054238325499131E-6
0.0025                    0.0255                   5.848453304208275E-6
0.0025                    0.0265                   5.357120602045593E-6
0.0025                    0.0275                   5.175189456996372E-6
0.0025                    0.0285                   5.1113821275130554E-6
0.0025                    0.0295                   4.839204098342444E-6
0.0025                    0.0305                   4.564611372899397E-6
0.0025                    0.0315                   2.3229023423319747E-6
0.0035                    -0.0315                  4.108191615454325E-6
0.0035                    -0.0305                  7.525654717288267E-6
0.0035                    -0.0295                  7.474905270880459E-6
0.0035                    -0.0285                  7.958033090217573E-6
0.0035                    -0.0275                  7.996271998102555E-6
0.0035                    -0.0265                  7.99582432527416E-6
0.0035                    -0.0255                  8.0461384501873E-6
0.0035                    -0.0245                  8.250073445716037E-6
0.0035                    -0.0235                  8.640417128088249E-6
0.0035                    -0.0225                  9.21816982540898E-6
0.0035                    -0.0215                  9.949987536323345E-6
0.0035                    -0.0205                  1.0791805798889706E-5
0.0035                    -0.0195                  1.1782648506318628E-5
0.0035                    -0.0185                  1.3247457683715283E-5
0.0035                    -0.0175                  1.611280130793733E-5
0.0035                    -0.0165                  2.2440715238852826E-5
0.0035                    -0.0155                  3.6309527506252384E-5
0.0035                    -0.0145                  6.6788744760227E-5
0.0035                    -0.0135                  1.2904042105875936E-4
0.0035                    -0.0125                  2.015270372747938E-4
0.0035                    -0.0115                  2.4197132812451424E-4
0.0035                    -0.0105                  3.42164336273148E-4
0.0035                    -0.0095                  7.164939520926115E-4
0.0035                    -0.0085                  0.001288596408445545
0.0035                    -0.0075                  0.0014239785183649282
0.0035                    -0.0065                  6.846202351687324E-4
0.0035                    -0.0055                  0.0032409467802243237
0.0035                    -0.0045                  0.007939699224342055
0.0035                    -0.0035                  0.014130552491297662
0.0035                    -0.0025                  0.021079733375425017
0.0035                    -0.0015                  0.026964428713806974
0.0035                    -5.0E-4                  0.02948827584059733
0.0035                    5.0E-4                   0.027177456311074762
0.0035                    0.0015                   0.020413503249872525
0.0035                    0.0025                   0.012335896532250914
0.0035                    0.0035                   0.006000880754723597
0.0035                    0.0045                   0.0023157052247084883
0.0035                    0.0055                   7.98566490868143E-4
0.0035                    0.0065                   2.599372826802204E-4
0.0035                    0.0075                   1.0248183025699393E-4
0.0035                    0.0085                   7.184671918346475E-5
0.0035                    0.0095                   1.220988027715184E-4
0.0035                    0.0105                   3.2610173375246604E-4
0.0035                    0.0115                   9.216665787847699E-4
0.0035                    0.0125                   0.0026239986667572525
0.0035                    0.0135                   0.0066154001538070205
0.0035                    0.0145                   0.012645878020018275
0.0035                    0.0155                   0.01653444590059878
0.0035                    0.0165                   0.014147678626661858
0.0035                    0.0175                   0.007609135272210263
0.0035                    0.0185                   0.0025961204354730595
0.0035                    0.0195                   7.435932998442904E-4
0.0035                    0.0205                   2.188819493324023E-4
0.0035                    0.0215                   6.849673175219615E-5
0.0035                    0.0225                   2.7324292648128862E-5
0.0035                    0.0235                   1.3800460925849363E-5
0.0035                    0.0245                   8.680191236032987E-6
0.0035                    0.0255                   6.656726161322123E-6
0.0035                    0.0265                   5.8713346724914125E-6
0.0035                    0.0275                   5.560210533175863E-6
0.0035                    0.0285                   5.382578221298743E-6
0.0035                    0.0295                   4.9502184919028955E-6
0.0035                    0.0305                   4.757832663180881E-6
0.0035                    0.0315                   2.517820617324364E-6
0.0045                    -0.0315                  4.347697717978829E-6
0.0045                    -0.0305                  7.667290960326255E-6
0.0045                    -0.0295                  7.3006915452836954E-6
0.0045                    -0.0285                  7.864865548683284E-6
0.0045                    -0.0275                  8.030352972716413E-6
0.0045                    -0.0265                  8.10974613672071E-6
0.0045                    -0.0255                  8.190841910167007E-6
0.0045                    -0.0245                  8.44143600938E-6
0.0045                    -0.0235                  8.980706663517023E-6
0.0045                    -0.0225                  9.916535014674617E-6
0.0045                    -0.0215                  1.1338517428716378E-5
0.0045                    -0.0205                  1.3314092191947139E-5
0.0045                    -0.0195                  1.5968407507107974E-5
0.0045                    -0.0185                  1.9868429253041088E-5
0.0045                    -0.0175                  2.671567567750614E-5
0.0045                    -0.0165                  4.020903993688905E-5
0.0045                    -0.0155                  6.797795796999321E-5
0.0045                    -0.0145                  1.2310510510793584E-4
0.0045                    -0.0135                  2.1682811160198443E-4
0.0045                    -0.0125                  2.924171540338741E-4
0.0045                    -0.0115                  3.507435193735791E-4
0.0045                    -0.0105                  5.89218845939269E-4
0.0045                    -0.0095                  8.82697664252668E-4
0.0045                    -0.0085                  8.005658648388466E-4
0.0045                    -0.0075                  0.0024958659580008743
0.0045                    -0.0065                  0.0066995348412855595
0.0045                    -0.0055                  0.012334311836737952
0.0045                    -0.0045                  0.018399101083708187
0.0045                    -0.0035                  0.02393427542735418
0.0045                    -0.0025                  0.027862622613919447
0.0045                    -0.0015                  0.029054557528839703
0.0045                    -5.0E-4                  0.026752043689148453
0.0045                    5.0E-4                   0.02098541732400666
0.0045                    0.0015                   0.013425015850260581
0.0045                    0.0025                   0.006955255240701082
0.0045                    0.0035                   0.0030172071795460313
0.0045                    0.0045                   0.0011459181776520594
0.0045                    0.0055                   4.1295263785377285E-4
0.0045                    0.0065                   1.3828416547620985E-4
0.0045                    0.0075                   6.00455910540881E-5
0.0045                    0.0085                   4.56187969860002E-5
0.0045                    0.0095                   6.810198391102949E-5
0.0045                    0.0105                   1.6745427825116523E-4
0.0045                    0.0115                   5.112554545703696E-4
0.0045                    0.0125                   0.001545791815209878
0.0045                    0.0135                   0.004322924584229508
0.0045                    0.0145                   0.00975690117368362
0.0045                    0.0155                   0.015270711450380565
0.0045                    0.0165                   0.015867792504748353
0.0045                    0.0175                   0.010694812173068089
0.0045                    0.0185                   0.004585425879183544
0.0045                    0.0195                   0.0014113043574220563
0.0045                    0.0205                   4.1637229305790117E-4
0.0045                    0.0215                   1.1594013279034832E-4
0.0045                    0.0225                   4.443726590019246E-5
0.0045                    0.0235                   2.0034223960904355E-5
0.0045                    0.0245                   1.1184869823216716E-5
0.0045                    0.0255                   7.684128213764107E-6
0.0045                    0.0265                   6.3176227904193814E-6
0.0045                    0.0275                   5.727399024087663E-6
0.0045                    0.0285                   5.3760175745257545E-6
0.0045                    0.0295                   4.854494247792437E-6
0.0045                    0.0305                   4.856918299240453E-6
0.0045                    0.0315                   2.6780063487732866E-6
0.0055                    -0.0315                  4.56167472757528E-6
0.0055                    -0.0305                  7.82652750352291E-6
0.0055                    -0.0295                  7.166140973771914E-6
0.0055                    -0.0285                  7.735361529888047E-6
0.0055                    -0.0275                  7.985974134018264E-6
0.0055                    -0.0265                  8.16809378114172E-6
0.0055                    -0.0255                  8.343046754432724E-6
0.0055                    -0.0245                  8.741615639786388E-6
0.0055                    -0.0235                  9.604184049433188E-6
0.0055                    -0.0225                  1.124122858455099E-5
0.0055                    -0.0215                  1.4062387890730581E-5
0.0055                    -0.0205                  1.8552136212490012E-5
0.0055                    -0.0195                  2.5227196527846383E-5
0.0055                    -0.0185                  3.512033830952542E-5
0.0055                    -0.0175                  5.200717059827855E-5
0.0055                    -0.0165                  8.476163216870208E-5
0.0055                    -0.0155                  1.486426575817887E-4
0.0055                    -0.0145                  2.73715191623619E-4
0.0055                    -0.0135                  4.31116844373376E-4
0.0055                    -0.0125                  5.208931809643218E-4
0.0055                    -0.0115                  6.25330866628882E-4
0.0055                    -0.0105                  8.414885842290558E-4
0.0055                    -0.0095                  0.0018015672072203678
0.0055                    -0.0085                  0.004954712013234609
0.0055                    -0.0075                  0.010084181827291894
0.0055                    -0.0065                  0.01606076339092046
0.0055                    -0.0055                  0.0216348085784701
0.0055                    -0.0045                  0.025912983525220066
0.0055                    -0.0035                  0.028246741002797195
0.0055                    -0.0025                  0.028087735086667464
0.0055                    -0.0015                  0.025129513396205557
0.0055                    -5.0E-4                  0.019650141831297197
0.0055                    5.0E-4                   0.012888991450371003
0.0055                    0.0015                   0.006922404899474093
0.0055                    0.0025                   0.00316638705200674
0.0055                    0.0035                   0.0013520292878158265
0.0055                    0.0045                   5.57398765772722E-4
0.0055                    0.0055                   2.1972032122913234E-4
0.0055                    0.0065                   9.124779633131926E-5
0.0055                    0.0075                   4.520376853948358E-5
0.0055                    0.0085                   3.2925551029836805E-5
0.0055                    0.0095                   4.3872926573995464E-5
0.0055                    0.0105                   9.21823058405022E-5
0.0055                    0.0115                   2.877940604842237E-4
0.0055                    0.0125                   9.04250592695537E-4
0.0055                    0.0135                   0.0026396604889792692
0.0055                    0.0145                   0.006906612607173509
0.0055                    0.0155                   0.013069266433358134
0.0055                    0.0165                   0.016452585189802877
0.0055                    0.0175                   0.013599838867940792
0.0055                    0.0185                   0.0072495298750990915
0.0055                    0.0195                   0.0025874538910319544
0.0055                    0.0205                   7.849523361225345E-4
0.0055                    0.0215                   2.355213783223067E-4
0.0055                    0.0225                   7.83542374684966E-5
0.0055                    0.0235                   3.168066554496132E-5
0.0055                    0.0245                   1.527584158651023E-5
0.0055                    0.0255                   9.242332568956722E-6
0.0055                    0.0265                   6.88922614546117E-6
0.0055                    0.0275                   5.874201541302552E-6
0.0055                    0.0285                   5.338148649249349E-6
0.0055                    0.0295                   4.775957342548625E-6
0.0055                    0.0305                   4.925817829940996E-6
0.0055                    0.0315                   2.782223619405435E-6
0.0065                    -0.0315                  4.752280406041227E-6
0.0065                    -0.0305                  7.984955056366008E-6
0.0065                    -0.0295                  7.065967772194371E-6
0.0065                    -0.0285                  7.616991925123171E-6
0.0065                    -0.0275                  7.924917546403828E-6
0.0065                    -0.0265                  8.221521158702175E-6
0.0065                    -0.0255                  8.568502389706432E-6
0.0065                    -0.0245                  9.304453413593949E-6
0.0065                    -0.0235                  1.0897620529709221E-5
0.0065                    -0.0225                  1.403905301509714E-5
0.0065                    -0.0215                  1.996762097113927E-5
0.0065                    -0.0205                  3.060808740556321E-5
0.0065                    -0.0195                  4.8064856157935514E-5
0.0065                    -0.0185                  7.476453365155024E-5
0.0065                    -0.0175                  1.1733102629165092E-4
0.0065                    -0.0165                  2.069801760797293E-4
0.0065                    -0.0155                  4.205143415000359E-4
0.0065                    -0.0145                  7.767265715697649E-4
0.0065                    -0.0135                  0.0011409973475454075
0.0065                    -0.0125                  0.001426809545328965
0.0065                    -0.0115                  0.0019703847372885457
0.0065                    -0.0105                  0.0035788991628050485
0.0065                    -0.0095                  0.007255862084270327
0.0065                    -0.0085                  0.012657757747594483
0.0065                    -0.0075                  0.01843230083095014
0.0065                    -0.0065                  0.023276049360080604
0.0065                    -0.0055                  0.026429623423104343