% Model:              Benchmark260518.mph
% Version:            COMSOL 6.2.0.339
% Date:               May 19 2026, 18:49
% Dimension:          2
% Nodes:              4096
% Expressions:        1
% Description:        速度大小
% Length unit:        m
% x                       y                        spf.U (m/s)
5.0E-4                    -0.0315                  3.2861214294766452E-6
5.0E-4                    -0.0305                  6.618138035377412E-6
5.0E-4                    -0.0295                  7.492998846412983E-6
5.0E-4                    -0.0285                  8.460424336607908E-6
5.0E-4                    -0.0275                  9.057798465516439E-6
5.0E-4                    -0.0265                  9.634659182409103E-6
5.0E-4                    -0.0255                  1.0141938241591289E-5
5.0E-4                    -0.0245                  1.0647749669053922E-5
5.0E-4                    -0.0235                  1.1209818000472917E-5
5.0E-4                    -0.0225                  1.1904779310852375E-5
5.0E-4                    -0.0215                  1.2793199234797056E-5
5.0E-4                    -0.0205                  1.3889604264812172E-5
5.0E-4                    -0.0195                  1.5170717402601199E-5
5.0E-4                    -0.0185                  1.666798381597396E-5
5.0E-4                    -0.0175                  1.8583926074928278E-5
5.0E-4                    -0.0165                  2.174147601391265E-5
5.0E-4                    -0.0155                  2.724546769552382E-5
5.0E-4                    -0.0145                  4.325657443475194E-5
5.0E-4                    -0.0135                  9.567840341853376E-5
5.0E-4                    -0.0125                  2.605893591961922E-4
5.0E-4                    -0.0115                  4.82982194168948E-4
5.0E-4                    -0.0105                  5.62332251747379E-4
5.0E-4                    -0.0095                  5.034440403167557E-4
5.0E-4                    -0.0085                  6.357861834810037E-4
5.0E-4                    -0.0075                  0.0012814315648239382
5.0E-4                    -0.0065                  0.0022827232805306503
5.0E-4                    -0.0055                  0.0033214164229625007
5.0E-4                    -0.0045                  0.004060160370492619
5.0E-4                    -0.0035                  0.004251246130316641
5.0E-4                    -0.0025                  0.0038312688517454247
5.0E-4                    -0.0015                  0.0029027325556901813
5.0E-4                    -5.0E-4                  0.0017309676751580444
5.0E-4                    5.0E-4                   6.960813088194017E-4
5.0E-4                    0.0015                   2.873840550563038E-4
5.0E-4                    0.0025                   6.445739462888837E-4
5.0E-4                    0.0035                   0.006296421296073864
5.0E-4                    0.0045                   0.025036554189046916
5.0E-4                    0.0055                   0.040518930736257036
5.0E-4                    0.0065                   0.04090091663273452
5.0E-4                    0.0075                   0.03769838784723595
5.0E-4                    0.0085                   0.031671407687492936
5.0E-4                    0.0095                   0.024289180349782606
5.0E-4                    0.0105                   0.01684584467143286
5.0E-4                    0.0115                   0.008117159567109523
5.0E-4                    0.0125                   0.00174515588591425
5.0E-4                    0.0135                   1.023818377955396E-4
5.0E-4                    0.0145                   2.1718439857823797E-4
5.0E-4                    0.0155                   1.756291282993277E-4
5.0E-4                    0.0165                   1.8314462742186196E-4
5.0E-4                    0.0175                   1.758120486767014E-4
5.0E-4                    0.0185                   9.982291623183024E-5
5.0E-4                    0.0195                   3.8552335766046856E-5
5.0E-4                    0.0205                   1.7706563245458655E-5
5.0E-4                    0.0215                   1.0298997663893564E-5
5.0E-4                    0.0225                   7.591779850814062E-6
5.0E-4                    0.0235                   6.337761754697864E-6
5.0E-4                    0.0245                   5.632408806751179E-6
5.0E-4                    0.0255                   5.200034669439467E-6
5.0E-4                    0.0265                   4.8845104622767244E-6
5.0E-4                    0.0275                   4.596021831651749E-6
5.0E-4                    0.0285                   4.304382431904394E-6
5.0E-4                    0.0295                   3.822029412968427E-6
5.0E-4                    0.0305                   3.371500786196597E-6
5.0E-4                    0.0315                   1.6723013062586067E-6
0.0015                    -0.0315                  6.359633229495577E-6
0.0015                    -0.0305                  1.2591259393762799E-5
0.0015                    -0.0295                  1.3594255842446243E-5
0.0015                    -0.0285                  1.4689793066781111E-5
0.0015                    -0.0275                  1.5228217323615147E-5
0.0015                    -0.0265                  1.5783747028972638E-5
0.0015                    -0.0255                  1.6297896702475422E-5
0.0015                    -0.0245                  1.685234515030719E-5
0.0015                    -0.0235                  1.7552429345682647E-5
0.0015                    -0.0225                  1.857136142451153E-5
0.0015                    -0.0215                  2.008605843904792E-5
0.0015                    -0.0205                  2.218715155352536E-5
0.0015                    -0.0195                  2.484257822331866E-5
0.0015                    -0.0185                  2.806583114212407E-5
0.0015                    -0.0175                  3.227740443283258E-5
0.0015                    -0.0165                  3.909093829736474E-5
0.0015                    -0.0155                  5.207809781801035E-5
0.0015                    -0.0145                  8.489776444218746E-5
0.0015                    -0.0135                  1.797783792651283E-4
0.0015                    -0.0125                  4.5609086194557354E-4
0.0015                    -0.0115                  8.352757865518012E-4
0.0015                    -0.0105                  0.0011335906170895163
0.0015                    -0.0095                  0.0016883183101077833
0.0015                    -0.0085                  0.003454803836535273
0.0015                    -0.0075                  0.006420778821501422
0.0015                    -0.0065                  0.009849249213377233
0.0015                    -0.0055                  0.012965838559242073
0.0015                    -0.0045                  0.015162805333611223
0.0015                    -0.0035                  0.016130048777682218
0.0015                    -0.0025                  0.015806982567598694
0.0015                    -0.0015                  0.01430676939542027
0.0015                    -5.0E-4                  0.011960844360326597
0.0015                    5.0E-4                   0.009417529542321442
0.0015                    0.0015                   0.007927374668075115
0.0015                    0.0025                   0.009769175147688925
0.0015                    0.0035                   0.01884535530278484
0.0015                    0.0045                   0.03179519081408128
0.0015                    0.0055                   0.03802863050793232
0.0015                    0.0065                   0.036916193684850385
0.0015                    0.0075                   0.03338762770506941
0.0015                    0.0085                   0.028265930758090994
0.0015                    0.0095                   0.022647012098489194
0.0015                    0.0105                   0.01740837519917065
0.0015                    0.0115                   0.01194366964589005
0.0015                    0.0125                   0.00643091841122774
0.0015                    0.0135                   0.0026223690403605142
0.0015                    0.0145                   8.974762871445612E-4
0.0015                    0.0155                   5.245766241081509E-4
0.0015                    0.0165                   4.3773595036798296E-4
0.0015                    0.0175                   3.2645469936615456E-4
0.0015                    0.0185                   1.8127906047501097E-4
0.0015                    0.0195                   7.504486238507583E-5
0.0015                    0.0205                   3.5099711668368656E-5
0.0015                    0.0215                   1.910557981849618E-5
0.0015                    0.0225                   1.2894064519638486E-5
0.0015                    0.0235                   1.0249168324235814E-5
0.0015                    0.0245                   8.975331609853415E-6
0.0015                    0.0255                   8.334213681175053E-6
0.0015                    0.0265                   7.984442548859446E-6
0.0015                    0.0275                   7.750797218289243E-6
0.0015                    0.0285                   7.55326259085706E-6
0.0015                    0.0295                   7.049971490284896E-6
0.0015                    0.0305                   6.477364628905502E-6
0.0015                    0.0315                   3.2459694679488457E-6
0.0025                    -0.0315                  6.664553040765046E-6
0.0025                    -0.0305                  1.2645558274923476E-5
0.0025                    -0.0295                  1.2828379013797152E-5
0.0025                    -0.0285                  1.3392477185320478E-5
0.0025                    -0.0275                  1.337882758484155E-5
0.0025                    -0.0265                  1.3374322442483852E-5
0.0025                    -0.0255                  1.3407406007261284E-5
0.0025                    -0.0245                  1.3559835479738461E-5
0.0025                    -0.0235                  1.3973097762320347E-5
0.0025                    -0.0225                  1.4959963966553056E-5
0.0025                    -0.0215                  1.69659877598076E-5
0.0025                    -0.0205                  2.0382018916546863E-5
0.0025                    -0.0195                  2.5287523888299892E-5
0.0025                    -0.0185                  3.151722207530792E-5
0.0025                    -0.0175                  3.97265139631892E-5
0.0025                    -0.0165                  5.2312494310972854E-5
0.0025                    -0.0155                  7.508122206887911E-5
0.0025                    -0.0145                  1.2188759961169266E-4
0.0025                    -0.0135                  2.2377941448769554E-4
0.0025                    -0.0125                  4.952140361201864E-4
0.0025                    -0.0115                  9.582995864741524E-4
0.0025                    -0.0105                  0.0020448985232525622
0.0025                    -0.0095                  0.005001635315644161
0.0025                    -0.0085                  0.009987076496542152
0.0025                    -0.0075                  0.01556139531258121
0.0025                    -0.0065                  0.02049083055317896
0.0025                    -0.0055                  0.024259617740920805
0.0025                    -0.0045                  0.026863925587640784
0.0025                    -0.0035                  0.028462935549554775
0.0025                    -0.0025                  0.029140545075777957
0.0025                    -0.0015                  0.028829371384434626
0.0025                    -5.0E-4                  0.027480265606316927
0.0025                    5.0E-4                   0.02545952725987418
0.0025                    0.0015                   0.023909963791364112
0.0025                    0.0025                   0.024686868226666825
0.0025                    0.0035                   0.02840869504273355
0.0025                    0.0045                   0.032602489694399356
0.0025                    0.0055                   0.033467721992640226
0.0025                    0.0065                   0.030981678660254537
0.0025                    0.0075                   0.0274152029569557
0.0025                    0.0085                   0.023716529797751018
0.0025                    0.0095                   0.020840680311213777
0.0025                    0.0105                   0.018852337113368353
0.0025                    0.0115                   0.01661636393928698
0.0025                    0.0125                   0.013229059717343138
0.0025                    0.0135                   0.009095086271433373
0.0025                    0.0145                   0.005263166021920104
0.0025                    0.0155                   0.002490205731894278
0.0025                    0.0165                   0.001057448547098954
0.0025                    0.0175                   5.143045619982407E-4
0.0025                    0.0185                   2.6035812091302474E-4
0.0025                    0.0195                   1.097972404858237E-4
0.0025                    0.0205                   4.4986720759558515E-5
0.0025                    0.0215                   2.1730273241152303E-5
0.0025                    0.0225                   1.2714923309220083E-5
0.0025                    0.0235                   8.915594876830926E-6
0.0025                    0.0245                   7.355383878542556E-6
0.0025                    0.0255                   6.8069127500673525E-6
0.0025                    0.0265                   6.742126194521409E-6
0.0025                    0.0275                   6.888340649951261E-6
0.0025                    0.0285                   7.0659112609124994E-6
0.0025                    0.0295                   6.8634440224512975E-6
0.0025                    0.0305                   6.515047167362388E-6
0.0025                    0.0315                   3.3279298510877E-6
0.0035                    -0.0315                  7.2122868367873075E-6
0.0035                    -0.0305                  1.3082839838512708E-5
0.0035                    -0.0295                  1.2868298729843799E-5
0.0035                    -0.0285                  1.376455437416868E-5
0.0035                    -0.0275                  1.3981739281641071E-5
0.0035                    -0.0265                  1.415295899785888E-5
0.0035                    -0.0255                  1.4378717476763457E-5
0.0035                    -0.0245                  1.4858712273503759E-5
0.0035                    -0.0235                  1.5884470231249717E-5
0.0035                    -0.0225                  1.8093830821183102E-5
0.0035                    -0.0215                  2.271606871066784E-5
0.0035                    -0.0205                  3.1364504090986475E-5
0.0035                    -0.0195                  4.506079108534953E-5
0.0035                    -0.0185                  6.360196688706601E-5
0.0035                    -0.0175                  8.686121733150255E-5
0.0035                    -0.0165                  1.2234045685870635E-4
0.0035                    -0.0155                  1.8079832570132225E-4
0.0035                    -0.0145                  2.7235900264559155E-4
0.0035                    -0.0135                  4.8564908284657807E-4
0.0035                    -0.0125                  9.763954100474174E-4
0.0035                    -0.0115                  0.0021148700372013163
0.0035                    -0.0105                  0.005245658712627356
0.0035                    -0.0095                  0.011108399769371233
0.0035                    -0.0085                  0.01793288550064636
0.0035                    -0.0075                  0.023568965908758715
0.0035                    -0.0065                  0.02734988840734408
0.0035                    -0.0055                  0.029646784414411247
0.0035                    -0.0045                  0.031090068770381004
0.0035                    -0.0035                  0.03221401023785403
0.0035                    -0.0025                  0.033356389310012044
0.0035                    -0.0015                  0.034370544641051305
0.0035                    -5.0E-4                  0.03471431820079273
0.0035                    5.0E-4                   0.03407734831937377
0.0035                    0.0015                   0.0327730323268153
0.0035                    0.0025                   0.03158918975688438
0.0035                    0.0035                   0.030870398640050235
0.0035                    0.0045                   0.029838282958690097
0.0035                    0.0055                   0.027243703234778774
0.0035                    0.0065                   0.023454639657567264
0.0035                    0.0075                   0.020077827828208394
0.0035                    0.0085                   0.018602076409545556
0.0035                    0.0095                   0.01953600507946881
0.0035                    0.0105                   0.02119521923241393
0.0035                    0.0115                   0.021757441124770373
0.0035                    0.0125                   0.020384952007460468
0.0035                    0.0135                   0.017076628452249706
0.0035                    0.0145                   0.012441824381936768
0.0035                    0.0155                   0.007478859209438761
0.0035                    0.0165                   0.003548407410157272
0.0035                    0.0175                   0.0014426149188701163
0.0035                    0.0185                   5.935473566242723E-4
0.0035                    0.0195                   2.1792865055699704E-4
0.0035                    0.0205                   7.362500258249234E-5
0.0035                    0.0215                   3.334016411602627E-5
0.0035                    0.0225                   1.8020457493366372E-5
0.0035                    0.0235                   1.1508417554927403E-5
0.0035                    0.0245                   8.748124423662034E-6
0.0035                    0.0255                   7.749953509929811E-6
0.0035                    0.0265                   7.545103846034318E-6
0.0035                    0.0275                   7.622733511167087E-6
0.0035                    0.0285                   7.663221243432904E-6
0.0035                    0.0295                   7.188633443743949E-6
0.0035                    0.0305                   6.728462960818584E-6
0.0035                    0.0315                   3.4931226268429974E-6
0.0045                    -0.0315                  7.5645830416169815E-6
0.0045                    -0.0305                  1.3220033655840168E-5
0.0045                    -0.0295                  1.2475344338618081E-5
0.0045                    -0.0285                  1.3527002397753716E-5
0.0045                    -0.0275                  1.4090905607967239E-5
0.0045                    -0.0265                  1.470753758297186E-5
0.0045                    -0.0255                  1.5548012701485003E-5
0.0045                    -0.0245                  1.701543737028986E-5
0.0045                    -0.0235                  1.980337442360542E-5
0.0045                    -0.0225                  2.546873338617053E-5
0.0045                    -0.0215                  3.7090276220584334E-5
0.0045                    -0.0205                  6.156072781005966E-5
0.0045                    -0.0195                  1.0738480257143261E-4
0.0045                    -0.0185                  1.7094445269388023E-4
0.0045                    -0.0175                  2.443601695715408E-4
0.0045                    -0.0165                  3.4823920606415876E-4
0.0045                    -0.0155                  5.799684276877542E-4
0.0045                    -0.0145                  9.238754780262853E-4
0.0045                    -0.0135                  0.0014593857831805479
0.0045                    -0.0125                  0.002476139300409893
0.0045                    -0.0115                  0.004959910903401465
0.0045                    -0.0105                  0.010252956195789547
0.0045                    -0.0095                  0.01725171253195458
0.0045                    -0.0085                  0.02312269557328877
0.0045                    -0.0075                  0.026484156001549432
0.0045                    -0.0065                  0.027556327586753086
0.0045                    -0.0055                  0.02690389021582868
0.0045                    -0.0045                  0.02543548200494241
0.0045                    -0.0035                  0.02447091582628232
0.0045                    -0.0025                  0.024959582426829614
0.0045                    -0.0015                  0.02683357762430379
0.0045                    -5.0E-4                  0.029159012303009255
0.0045                    5.0E-4                   0.03075887224071356
0.0045                    0.0015                   0.030971077060274018
0.0045                    0.0025                   0.029834809901281362
0.0045                    0.0035                   0.027551288877723675
0.0045                    0.0045                   0.024145043868110106
0.0045                    0.0055                   0.019672246322782274
0.0045                    0.0065                   0.015046165828884099
0.0045                    0.0075                   0.012386726697640684
0.0045                    0.0085                   0.013908311522758812
0.0045                    0.0095                   0.018163802504227756
0.0045                    0.0105                   0.02216175952916278
0.0045                    0.0115                   0.024561471298889803
0.0045                    0.0125                   0.02503313166883639
0.0045                    0.0135                   0.023480911134966437
0.0045                    0.0145                   0.019928198819469306
0.0045                    0.0155                   0.014611790219968808
0.0045                    0.0165                   0.008616840632126524
0.0045                    0.0175                   0.0038821696793963295
0.0045                    0.0185                   0.0014233704468197541
0.0045                    0.0195                   4.926218236318475E-4
0.0045                    0.0205                   1.5816264193967085E-4
0.0045                    0.0215                   5.90165306643716E-5
0.0045                    0.0225                   2.808838326110198E-5
0.0045                    0.0235                   1.5902232068414142E-5
0.0045                    0.0245                   1.0944096073021064E-5
0.0045                    0.0255                   9.044144396134484E-6
0.0045                    0.0265                   8.440018655785096E-6
0.0045                    0.0275                   8.274849566368345E-6
0.0045                    0.0285                   8.071066842089451E-6
0.0045                    0.0295                   7.369913785376102E-6
0.0045                    0.0305                   6.821523449843333E-6
0.0045                    0.0315                   3.5633277684398276E-6
0.0055                    -0.0315                  7.89860914646873E-6
0.0055                    -0.0305                  1.3438560279484283E-5
0.0055                    -0.0295                  1.2216844907572892E-5
0.0055                    -0.0285                  1.3308723459049287E-5
0.0055                    -0.0275                  1.4213921593242307E-5
0.0055                    -0.0265                  1.5531944334601673E-5
0.0055                    -0.0255                  1.7613518015364364E-5
0.0055                    -0.0245                  2.1277832320772633E-5
0.0055                    -0.0235                  2.8021184200409752E-5
0.0055                    -0.0225                  4.17186293914005E-5
0.0055                    -0.0215                  7.240208075360213E-5
0.0055                    -0.0205                  1.4199619231064885E-4
0.0055                    -0.0195                  3.1813725172738657E-4
0.0055                    -0.0185                  6.018149315519492E-4
0.0055                    -0.0175                  9.204355066793605E-4
0.0055                    -0.0165                  0.0013468036237576416
0.0055                    -0.0155                  0.002197477490315521
0.0055                    -0.0145                  0.003380203436530551
0.0055                    -0.0135                  0.004552749383557044
0.0055                    -0.0125                  0.006028192544090473
0.0055                    -0.0115                  0.009154802133098914
0.0055                    -0.0105                  0.014768002970163794
0.0055                    -0.0095                  0.02074082430391281
0.0055                    -0.0085                  0.02446933582631181
0.0055                    -0.0075                  0.02522331472910058
0.0055                    -0.0065                  0.023126781431212478
0.0055                    -0.0055                  0.018892470592268087
0.0055                    -0.0045                  0.014517572660041783
0.0055                    -0.0035                  0.011896848183955993
0.0055                    -0.0025                  0.011435990241792704
0.0055                    -0.0015                  0.012664556674513742
0.0055                    -5.0E-4                  0.015240157706616976
0.0055                    5.0E-4                   0.018246695559295867
0.0055                    0.0015                   0.0202627391533314
0.0055                    0.0025                   0.02048636724062466
0.0055                    0.0035                   0.018758872482695515
0.0055                    0.0045                   0.015440436834007285
0.0055                    0.0055                   0.011183346484111909
0.0055                    0.0065                   0.007255286024460649
0.0055                    0.0075                   0.006196546418617505
0.0055                    0.0085                   0.008666303034752583
0.0055                    0.0095                   0.012503203710977056
0.0055                    0.0105                   0.01670071047548719
0.0055                    0.0115                   0.020553270616449744
0.0055                    0.0125                   0.02355342569043582
0.0055                    0.0135                   0.024993810938831844
0.0055                    0.0145                   0.024264938163887705
0.0055                    0.0155                   0.020976803539942364
0.0055                    0.0165                   0.015135802892031262
0.0055                    0.0175                   0.00831413826128197
0.0055                    0.0185                   0.0033250024696767863
0.0055                    0.0195                   0.0011132450196125237
0.0055                    0.0205                   3.809960657254586E-4
0.0055                    0.0215                   1.2431930539039788E-4
0.0055                    0.0225                   4.649816303562175E-5
0.0055                    0.0235                   2.325783572166064E-5
0.0055                    0.0245                   1.4638211429186187E-5
0.0055                    0.0255                   1.1068965166685367E-5
0.0055                    0.0265                   9.695307424365175E-6
0.0055                    0.0275                   9.117990996445357E-6
0.0055                    0.0285                   8.63225258817742E-6
0.0055                    0.0295                   7.725115955930404E-6
0.0055                    0.0305                   7.029069854698273E-6
0.0055                    0.0315                   3.6503603505923557E-6
0.0065                    -0.0315                  8.206948477952763E-6
0.0065                    -0.0305                  1.3724788806963698E-5
0.0065                    -0.0295                  1.2155680998629713E-5
0.0065                    -0.0285                  1.3295012165944012E-5
0.0065                    -0.0275                  1.464674343842352E-5
0.0065                    -0.0265                  1.7123263996635488E-5
0.0065                    -0.0255                  2.156562199220583E-5
0.0065                    -0.0245                  2.987917008563679E-5
0.0065                    -0.0235                  4.54573167163807E-5
0.0065                    -0.0225                  7.619605186090973E-5
0.0065                    -0.0215                  1.526067943113791E-4
0.0065                    -0.0205                  3.834792502504052E-4
0.0065                    -0.0195                  9.232560396453034E-4
0.0065                    -0.0185                  0.0018149803160404578
0.0065                    -0.0175                  0.0031081199842126826
0.0065                    -0.0165                  0.004949633832564575
0.0065                    -0.0155                  0.007195477386459008
0.0065                    -0.0145                  0.00909858498514343
0.0065                    -0.0135                  0.01007040060768637
0.0065                    -0.0125                  0.010528481208580189
0.0065                    -0.0115                  0.012133527696429352
0.0065                    -0.0105                  0.01627569269664723
0.0065                    -0.0095                  0.020813167187897618
0.0065                    -0.0085                  0.022994217401150752
0.0065                    -0.0075                  0.021773884254303974
0.0065                    -0.0065                  0.01704356747840663
0.0065                    -0.0055                  0.010651415685158485