% Model:              Benchmark260518.mph
% Version:            COMSOL 6.2.0.339
% Date:               May 19 2026, 18:34
% Dimension:          2
% Nodes:              4096
% Expressions:        1
% Description:        速度大小
% Length unit:        m
% x                       y                        spf.U (m/s)
5.0E-4                    -0.0315                  1.2429123533753417E-6
5.0E-4                    -0.0305                  2.5059549663492297E-6
5.0E-4                    -0.0295                  2.7870882788173893E-6
5.0E-4                    -0.0285                  3.101251094578154E-6
5.0E-4                    -0.0275                  3.287094571343539E-6
5.0E-4                    -0.0265                  3.4253070241491347E-6
5.0E-4                    -0.0255                  3.5354693933444672E-6
5.0E-4                    -0.0245                  3.627995041812364E-6
5.0E-4                    -0.0235                  3.710067131994353E-6
5.0E-4                    -0.0225                  3.7864355233376753E-6
5.0E-4                    -0.0215                  3.860053587704556E-6
5.0E-4                    -0.0205                  3.932893718886707E-6
5.0E-4                    -0.0195                  4.00534081103934E-6
5.0E-4                    -0.0185                  4.076534787029502E-6
5.0E-4                    -0.0175                  4.143395015949817E-6
5.0E-4                    -0.0165                  4.20401413896044E-6
5.0E-4                    -0.0155                  4.256384442521649E-6
5.0E-4                    -0.0145                  4.299721778045576E-6
5.0E-4                    -0.0135                  4.337935455313267E-6
5.0E-4                    -0.0125                  4.3760494117182415E-6
5.0E-4                    -0.0115                  4.4211795178772E-6
5.0E-4                    -0.0105                  4.481406408520016E-6
5.0E-4                    -0.0095                  4.565386777590033E-6
5.0E-4                    -0.0085                  4.682850354209706E-6
5.0E-4                    -0.0075                  4.846531111777524E-6
5.0E-4                    -0.0065                  5.0734392679736684E-6
5.0E-4                    -0.0055                  5.3831547349142966E-6
5.0E-4                    -0.0045                  5.788774670104982E-6
5.0E-4                    -0.0035                  6.294476104311626E-6
5.0E-4                    -0.0025                  6.8734437018628785E-6
5.0E-4                    -0.0015                  7.636372345947873E-6
5.0E-4                    -5.0E-4                  8.52745951248103E-6
5.0E-4                    5.0E-4                   1.03168289242035E-5
5.0E-4                    0.0015                   1.4111655500691337E-5
5.0E-4                    0.0025                   1.9868799936783538E-5
5.0E-4                    0.0035                   2.7255843892981E-5
5.0E-4                    0.0045                   3.479191731291991E-5
5.0E-4                    0.0055                   4.22922140421151E-5
5.0E-4                    0.0065                   5.8750007979833284E-5
5.0E-4                    0.0075                   9.921343923144257E-5
5.0E-4                    0.0085                   2.352612515379951E-4
5.0E-4                    0.0095                   4.919563054916826E-4
5.0E-4                    0.0105                   7.725246169852587E-4
5.0E-4                    0.0115                   9.959572387851082E-4
5.0E-4                    0.0125                   0.0011094657624938086
5.0E-4                    0.0135                   0.001092479419040355
5.0E-4                    0.0145                   9.889251504885978E-4
5.0E-4                    0.0155                   8.811077867935279E-4
5.0E-4                    0.0165                   8.556636490599978E-4
5.0E-4                    0.0175                   0.0010043168074065933
5.0E-4                    0.0185                   0.0018142486209933022
5.0E-4                    0.0195                   0.004856084844185186
5.0E-4                    0.0205                   0.03373028433612941
5.0E-4                    0.0215                   0.055420104711995044
5.0E-4                    0.0225                   0.05012908570040431
5.0E-4                    0.0235                   0.03763721949118901
5.0E-4                    0.0245                   0.023078367970848893
5.0E-4                    0.0255                   0.011264565195249704
5.0E-4                    0.0265                   0.00380961026959064
5.0E-4                    0.0275                   7.958687788770816E-4
5.0E-4                    0.0285                   8.529369379837351E-5
5.0E-4                    0.0295                   1.5755867506987687E-5
5.0E-4                    0.0305                   5.48931414926848E-6
5.0E-4                    0.0315                   1.6848609349509428E-6
0.0015                    -0.0315                  2.431071771230553E-6
0.0015                    -0.0305                  4.872088542107915E-6
0.0015                    -0.0295                  5.2797434800054445E-6
0.0015                    -0.0285                  5.646697242581875E-6
0.0015                    -0.0275                  5.7760953990874125E-6
0.0015                    -0.0265                  5.8589423361054185E-6
0.0015                    -0.0255                  5.917839704161032E-6
0.0015                    -0.0245                  5.970679247130972E-6
0.0015                    -0.0235                  6.0237579556494344E-6
0.0015                    -0.0225                  6.081889070253951E-6
0.0015                    -0.0215                  6.1479105378250605E-6
0.0015                    -0.0205                  6.223761589051649E-6
0.0015                    -0.0195                  6.309463855573209E-6
0.0015                    -0.0185                  6.402801275667116E-6
0.0015                    -0.0175                  6.498176817939029E-6
0.0015                    -0.0165                  6.589766102873214E-6
0.0015                    -0.0155                  6.671332131411752E-6
0.0015                    -0.0145                  6.7391688428983835E-6
0.0015                    -0.0135                  6.7969933142846645E-6
0.0015                    -0.0125                  6.853718727750992E-6
0.0015                    -0.0115                  6.9237790573812955E-6
0.0015                    -0.0105                  7.02473429268749E-6
0.0015                    -0.0095                  7.175804663517047E-6
0.0015                    -0.0085                  7.398554327673172E-6
0.0015                    -0.0075                  7.719567751557058E-6
0.0015                    -0.0065                  8.174458422574623E-6
0.0015                    -0.0055                  8.812191415752103E-6
0.0015                    -0.0045                  9.687128416523494E-6
0.0015                    -0.0035                  1.084980617168816E-5
0.0015                    -0.0025                  1.236014868752638E-5
0.0015                    -0.0015                  1.4549611477796605E-5
0.0015                    -5.0E-4                  1.8119107282592787E-5
0.0015                    5.0E-4                   2.536004073948122E-5
0.0015                    0.0015                   4.0295217287402257E-5
0.0015                    0.0025                   6.406059267606973E-5
0.0015                    0.0035                   9.424343150947575E-5
0.0015                    0.0045                   1.4588480621200464E-4
0.0015                    0.0055                   2.1677143382363998E-4
0.0015                    0.0065                   3.039654001798255E-4
0.0015                    0.0075                   4.631972571323211E-4
0.0015                    0.0085                   9.172828971862878E-4
0.0015                    0.0095                   0.0017322524381448415
0.0015                    0.0105                   0.0025820916112319885
0.0015                    0.0115                   0.0031801147652890205
0.0015                    0.0125                   0.003422092349235377
0.0015                    0.0135                   0.003315420821557693
0.0015                    0.0145                   0.0029795443623524204
0.0015                    0.0155                   0.002609358574263986
0.0015                    0.0165                   0.0024158608075514256
0.0015                    0.0175                   0.002685598051777454
0.0015                    0.0185                   0.0024558295845812893
0.0015                    0.0195                   0.014881889323494876
0.0015                    0.0205                   0.043247060444348014
0.0015                    0.0215                   0.05563446759242477
0.0015                    0.0225                   0.048526543066887425
0.0015                    0.0235                   0.03484544955765502
0.0015                    0.0245                   0.020219202958140343
0.0015                    0.0255                   0.009032521414238518
0.0015                    0.0265                   0.0028365700772781015
0.0015                    0.0275                   7.150822942262528E-4
0.0015                    0.0285                   1.6534120086807478E-4
0.0015                    0.0295                   3.17100443353174E-5
0.0015                    0.0305                   1.0835236346396068E-5
0.0015                    0.0315                   3.3624178490572904E-6
0.0025                    -0.0315                  2.4958146357979446E-6
0.0025                    -0.0305                  4.954262521488759E-6
0.0025                    -0.0295                  5.317312523962883E-6
0.0025                    -0.0285                  5.578243164279361E-6
0.0025                    -0.0275                  5.505548459997535E-6
0.0025                    -0.0265                  5.3786506051561845E-6
0.0025                    -0.0255                  5.234388215225484E-6
0.0025                    -0.0245                  5.105547399200529E-6
0.0025                    -0.0235                  4.998683467121548E-6
0.0025                    -0.0225                  4.918104767352613E-6
0.0025                    -0.0215                  4.865908959161541E-6
0.0025                    -0.0205                  4.843526035758814E-6
0.0025                    -0.0195                  4.851095950137557E-6
0.0025                    -0.0185                  4.88630182699419E-6
0.0025                    -0.0175                  4.943425647556973E-6
0.0025                    -0.0165                  5.012911251396127E-6
0.0025                    -0.0155                  5.083162092278554E-6
0.0025                    -0.0145                  5.144339646442632E-6
0.0025                    -0.0135                  5.193132406375736E-6
0.0025                    -0.0125                  5.236916040644433E-6
0.0025                    -0.0115                  5.294212869564244E-6
0.0025                    -0.0105                  5.391760183410846E-6
0.0025                    -0.0095                  5.5602967094869116E-6
0.0025                    -0.0085                  5.833928713750374E-6
0.0025                    -0.0075                  6.254377118457305E-6
0.0025                    -0.0065                  6.8789822074608444E-6
0.0025                    -0.0055                  7.800217019194546E-6
0.0025                    -0.0045                  9.186235046141135E-6
0.0025                    -0.0035                  1.1311297400722827E-5
0.0025                    -0.0025                  1.4605594225182757E-5
0.0025                    -0.0015                  1.990395418256483E-5
0.0025                    -5.0E-4                  2.9764252960523417E-5
0.0025                    5.0E-4                   5.092023418632096E-5
0.0025                    0.0015                   9.504352101450421E-5
0.0025                    0.0025                   1.787440067954605E-4
0.0025                    0.0035                   2.649538241740285E-4
0.0025                    0.0045                   3.6070260392933023E-4
0.0025                    0.0055                   5.710188187840328E-4
0.0025                    0.0065                   0.0010693743829232269
0.0025                    0.0075                   0.0019878477590829164
0.0025                    0.0085                   0.003351491450624838
0.0025                    0.0095                   0.004859183703200966
0.0025                    0.0105                   0.005950845367930791
0.0025                    0.0115                   0.0063781130041395285
0.0025                    0.0125                   0.006246345186588039
0.0025                    0.0135                   0.005719200476861721
0.0025                    0.0145                   0.004948868385401083
0.0025                    0.0155                   0.004110464920287193
0.0025                    0.0165                   0.0034710099525247537
0.0025                    0.0175                   0.003217745864574105
0.0025                    0.0185                   0.00467150962802109
0.0025                    0.0195                   0.026181501693189255
0.0025                    0.0205                   0.049112194402358186
0.0025                    0.0215                   0.05471481115523346
0.0025                    0.0225                   0.04564806977698705
0.0025                    0.0235                   0.03097998411775989
0.0025                    0.0245                   0.016719755989634266
0.0025                    0.0255                   0.006831970612127443
0.0025                    0.0265                   0.0020995899478146863
0.0025                    0.0275                   6.100418146646871E-4
0.0025                    0.0285                   1.5521825507613333E-4
0.0025                    0.0295                   3.4529838864275814E-5
0.0025                    0.0305                   1.1136235480302222E-5
0.0025                    0.0315                   3.4913079687450926E-6
0.0035                    -0.0315                  2.6113638058792985E-6
0.0035                    -0.0305                  5.079641764234831E-6
0.0035                    -0.0295                  5.486028927913739E-6
0.0035                    -0.0285                  5.959250565469659E-6
0.0035                    -0.0275                  5.999372928394265E-6
0.0035                    -0.0265                  5.897204873571895E-6
0.0035                    -0.0255                  5.72161338485289E-6
0.0035                    -0.0245                  5.5341548070281735E-6
0.0035                    -0.0235                  5.3573625008064224E-6
0.0035                    -0.0225                  5.204916287147771E-6
0.0035                    -0.0215                  5.085136878463253E-6
0.0035                    -0.0205                  5.004336037438412E-6
0.0035                    -0.0195                  4.966729277317372E-6
0.0035                    -0.0185                  4.973400915242173E-6
0.0035                    -0.0175                  5.020502947810692E-6
0.0035                    -0.0165                  5.0978740192108475E-6
0.0035                    -0.0155                  5.189379084747652E-6
0.0035                    -0.0145                  5.2766115884472865E-6
0.0035                    -0.0135                  5.346358579539443E-6
0.0035                    -0.0125                  5.3995765216670035E-6
0.0035                    -0.0115                  5.457840315012347E-6
0.0035                    -0.0105                  5.563643506660401E-6
0.0035                    -0.0095                  5.774811548357272E-6
0.0035                    -0.0085                  6.160224238603639E-6
0.0035                    -0.0075                  6.8094987769087185E-6
0.0035                    -0.0065                  7.864537280404044E-6
0.0035                    -0.0055                  9.564985424383505E-6
0.0035                    -0.0045                  1.2353494132355357E-5
0.0035                    -0.0035                  1.7179607339155373E-5
0.0035                    -0.0025                  2.5670300490249538E-5
0.0035                    -0.0015                  4.02204012673449E-5
0.0035                    -5.0E-4                  6.622191919912484E-5
0.0035                    5.0E-4                   1.2489527141120067E-4
0.0035                    0.0015                   2.815388710025703E-4
0.0035                    0.0025                   5.437521690265058E-4
0.0035                    0.0035                   7.72508534224275E-4
0.0035                    0.0045                   8.857553756281664E-4
0.0035                    0.0055                   0.0012173550432129172
0.0035                    0.0065                   0.0023252855194933783
0.0035                    0.0075                   0.004123220042124598
0.0035                    0.0085                   0.006219741154397553
0.0035                    0.0095                   0.007946539428169244
0.0035                    0.0105                   0.00874166420042009
0.0035                    0.0115                   0.008655710724781345
0.0035                    0.0125                   0.008051475468891244
0.0035                    0.0135                   0.007168342186100468
0.0035                    0.0145                   0.006082639484671868
0.0035                    0.0155                   0.004852406255125158
0.0035                    0.0165                   0.0036693366090012184
0.0035                    0.0175                   0.0021866917164696685
0.0035                    0.0185                   0.014236735265199313
0.0035                    0.0195                   0.03730286897851688
0.0035                    0.0205                   0.05274271146713962
0.0035                    0.0215                   0.05263166100658342
0.0035                    0.0225                   0.04143841531965112
0.0035                    0.0235                   0.026182153608475593
0.0035                    0.0245                   0.012962602910560051
0.0035                    0.0255                   0.0048539452056300045
0.0035                    0.0265                   0.0014829404672355945
0.0035                    0.0275                   4.534906987350529E-4
0.0035                    0.0285                   1.2248856257365508E-4
0.0035                    0.0295                   3.0081985348786866E-5
0.0035                    0.0305                   1.027212326369256E-5
0.0035                    0.0315                   3.430909162830702E-6
0.0045                    -0.0315                  2.7303910382686027E-6
0.0045                    -0.0305                  5.142488618429383E-6
0.0045                    -0.0295                  5.421792294794501E-6
0.0045                    -0.0285                  6.018846621488112E-6
0.0045                    -0.0275                  6.213554498885956E-6
0.0045                    -0.0265                  6.215889970282846E-6
0.0045                    -0.0255                  6.0776724924669015E-6
0.0045                    -0.0245                  5.8790653700600535E-6
0.0045                    -0.0235                  5.660716352544931E-6
0.0045                    -0.0225                  5.450128251333848E-6
0.0045                    -0.0215                  5.265814040316662E-6
0.0045                    -0.0205                  5.122372000913421E-6
0.0045                    -0.0195                  5.031241229173036E-6
0.0045                    -0.0185                  4.999998205275094E-6
0.0045                    -0.0175                  5.030354362822855E-6
0.0045                    -0.0165                  5.115607856970214E-6
0.0045                    -0.0155                  5.238992123716545E-6
0.0045                    -0.0145                  5.375399646373828E-6
0.0045                    -0.0135                  5.499338241311224E-6
0.0045                    -0.0125                  5.600097340205542E-6
0.0045                    -0.0115                  5.699643261748761E-6
0.0045                    -0.0105                  5.864169925363542E-6
0.0045                    -0.0095                  6.2048727244294095E-6
0.0045                    -0.0085                  6.876369929570922E-6
0.0045                    -0.0075                  8.086380402891358E-6
0.0045                    -0.0065                  1.0157303939548178E-5
0.0045                    -0.0055                  1.3734503195530775E-5
0.0045                    -0.0045                  1.9995515402549524E-5
0.0045                    -0.0035                  3.1260232131664214E-5
0.0045                    -0.0025                  5.4287039337661354E-5
0.0045                    -0.0015                  9.966289414945906E-5
0.0045                    -5.0E-4                  1.7324777107883743E-4
0.0045                    5.0E-4                   3.1730458422660787E-4
0.0045                    0.0015                   7.575011252505331E-4
0.0045                    0.0025                   0.001584975018736644
0.0045                    0.0035                   0.002569817315837996
0.0045                    0.0045                   0.003469717591321397
0.0045                    0.0055                   0.004186917259796993
0.0045                    0.0065                   0.00482726873464482
0.0045                    0.0075                   0.005440927919848277
0.0045                    0.0085                   0.005931282697620303
0.0045                    0.0095                   0.006201335960784876
0.0045                    0.0105                   0.006223322165110134
0.0045                    0.0115                   0.006192446209589946
0.0045                    0.0125                   0.006186745241144725
0.0045                    0.0135                   0.006045828723637323
0.0045                    0.0145                   0.005490770530499369
0.0045                    0.0155                   0.0044326841445156496
0.0045                    0.0165                   0.0029490680682796974
0.0045                    0.0175                   0.008422517046066945
0.0045                    0.0185                   0.02684746096552102
0.0045                    0.0195                   0.045876017853829526
0.0045                    0.0205                   0.053794391695570216
0.0045                    0.0215                   0.04910270225598448
0.0045                    0.0225                   0.035899825313506474
0.0045                    0.0235                   0.020781284004886935
0.0045                    0.0245                   0.009310033370056842
0.0045                    0.0255                   0.0032041894108555
0.0045                    0.0265                   9.78283221855938E-4
0.0045                    0.0275                   2.881885850017253E-4
0.0045                    0.0285                   7.797468859476725E-5
0.0045                    0.0295                   2.2331967914022654E-5
0.0045                    0.0305                   8.47673877183351E-6
0.0045                    0.0315                   3.1658462901895137E-6
0.0055                    -0.0315                  2.8459200194266022E-6
0.0055                    -0.0305                  5.226027419721526E-6
0.0055                    -0.0295                  5.3621486812613035E-6
0.0055                    -0.0285                  6.01050955727654E-6
0.0055                    -0.0275                  6.327074433112363E-6
0.0055                    -0.0265                  6.460990660934969E-6
0.0055                    -0.0255                  6.412624908366952E-6
0.0055                    -0.0245                  6.252910916856375E-6
0.0055                    -0.0235                  6.030549727603326E-6
0.0055                    -0.0225                  5.78514666934596E-6
0.0055                    -0.0215                  5.546730990972529E-6
0.0055                    -0.0205                  5.340523592074664E-6
0.0055                    -0.0195                  5.188009467354075E-6
0.0055                    -0.0185                  5.1065634960768344E-6
0.0055                    -0.0175                  5.107597509371713E-6
0.0055                    -0.0165                  5.193599376306625E-6
0.0055                    -0.0155                  5.354657008818846E-6
0.0055                    -0.0145                  5.566876137238843E-6
0.0055                    -0.0135                  5.7976268606993695E-6
0.0055                    -0.0125                  6.0245180793106524E-6
0.0055                    -0.0115                  6.272253583691739E-6
0.0055                    -0.0105                  6.654861515721037E-6
0.0055                    -0.0095                  7.391093735454702E-6
0.0055                    -0.0085                  8.807417565285474E-6
0.0055                    -0.0075                  1.1426280025235883E-5
0.0055                    -0.0065                  1.6052126493178414E-5
0.0055                    -0.0055                  2.414324712054229E-5
0.0055                    -0.0045                  3.993671994764148E-5
0.0055                    -0.0035                  7.110121464781494E-5
0.0055                    -0.0025                  1.3092050148701755E-4
0.0055                    -0.0015                  2.9051723450493745E-4
0.0055                    -5.0E-4                  5.955865670076666E-4
0.0055                    5.0E-4                   0.0010639804952881384
0.0055                    0.0015                   0.002316751171390566
0.0055                    0.0025                   0.004874749033082553
0.0055                    0.0035                   0.008038483708798819
0.0055                    0.0045                   0.010845417022971426
0.0055                    0.0055                   0.012885410261177073
0.0055                    0.0065                   0.014105272010659167
0.0055                    0.0075                   0.014315727075868508
0.0055                    0.0085                   0.013031504145086963
0.0055                    0.0095                   0.010013225872148243
0.0055                    0.0105                   0.005846764260844369
0.0055                    0.0115                   0.0017706358380184379
0.0055                    0.0125                   0.0016569703783533166
0.0055                    0.0135                   0.0034383607736119303
0.0055                    0.0145                   0.0040858562348419095
0.0055                    0.0155                   0.0038357962014083243
0.0055                    0.0165                   0.006905003195348823
0.0055                    0.0175                   0.020148511456921186
0.0055                    0.0185                   0.03853269009931703
0.0055                    0.0195                   0.05084415134040388
0.0055                    0.0205                   0.05239715351028824
0.0055                    0.0215                   0.043901161971280994
0.0055                    0.0225                   0.029258830381963325
0.0055                    0.0235                   0.015258189839217453
0.0055                    0.0245                   0.006110713981238701
0.0055                    0.0255                   0.00195536460083448
0.0055                    0.0265                   5.988526292157919E-4
0.0055                    0.0275                   1.6648776645762655E-4
0.0055                    0.0285                   4.368339141965517E-5
0.0055                    0.0295                   1.4966839535549761E-5
0.0055                    0.0305                   6.690170318971569E-6
0.0055                    0.0315                   2.7644324984548873E-6
0.0065                    -0.0315                  2.9387071665810594E-6
0.0065                    -0.0305                  5.2943978189810175E-6
0.0065                    -0.0295                  5.297578873808104E-6
0.0065                    -0.0285                  5.95362157783462E-6
0.0065                    -0.0275                  6.342647118548333E-6
0.0065                    -0.0265                  6.587370896873535E-6
0.0065                    -0.0255                  6.643254269447904E-6
0.0065                    -0.0245                  6.553774209011074E-6
0.0065                    -0.0235                  6.358916056955502E-6
0.0065                    -0.0225                  6.101661476451112E-6
0.0065                    -0.0215                  5.820549231617757E-6
0.0065                    -0.0205                  5.551589863749663E-6
0.0065                    -0.0195                  5.328294815444439E-6
0.0065                    -0.0185                  5.18103447155928E-6
0.0065                    -0.0175                  5.135290316924155E-6
0.0065                    -0.0165                  5.209141504289575E-6
0.0065                    -0.0155                  5.409760747737237E-6
0.0065                    -0.0145                  5.729457314440566E-6
0.0065                    -0.0135                  6.1465308418471514E-6
0.0065                    -0.0125                  6.644057303812929E-6
0.0065                    -0.0115                  7.2678857853289545E-6
0.0065                    -0.0105                  8.245118903597544E-6
0.0065                    -0.0095                  1.0102143303409342E-5
0.0065                    -0.0085                  1.3579781266043699E-5
0.0065                    -0.0075                  1.9730000639212566E-5
0.0065                    -0.0065                  3.1352719627646434E-5
0.0065                    -0.0055                  5.323530724296205E-5