% Model:              Benchmark260518.mph
% Version:            COMSOL 6.2.0.339
% Date:               May 21 2026, 17:23
% Dimension:          2
% Nodes:              4096
% Expressions:        1
% Description:        速度大小
% Length unit:        m
% x                       y                        spf.U (m/s)
% mirrored_by_python_y_to_minus_y, coord_match_decimals=12
0.0005 -0.0315 2.50459035849e-06
0.0005 -0.0305 4.27803047193e-06
0.0005 -0.0295 3.83510651396e-06
0.0005 -0.0285 3.66650267794e-06
0.0005 -0.0275 8.77550451803e-06
0.0005 -0.0265 0.000117578645242
0.0005 -0.0255 0.000597266179836
0.0005 -0.0245 0.00101176502606
0.0005 -0.0235 0.00288296862105
0.0005 -0.0225 0.0101005280975
0.0005 -0.0215 0.0210161725619
0.0005 -0.0205 0.0340022873736
0.0005 -0.0195 0.0476439925193
0.0005 -0.0185 0.0555809820056
0.0005 -0.0175 0.0548694291755
0.0005 -0.0165 0.0318047465218
0.0005 -0.0155 0.00489017057384
0.0005 -0.0145 0.00310692929329
0.0005 -0.0135 0.00380559602892
0.0005 -0.0125 0.00393651654567
0.0005 -0.0115 0.00317530594786
0.0005 -0.0105 0.00174827831527
0.0005 -0.0095 0.00178707714301
0.0005 -0.0085 0.00375256606316
0.0005 -0.0075 0.00585189623225
0.0005 -0.0065 0.00778345573933
0.0005 -0.0055 0.00937369763806
0.0005 -0.0045 0.0104712215825
0.0005 -0.0035 0.0110415824272
0.0005 -0.0025 0.0111494549903
0.0005 -0.0015 0.0109118814928
0.0005 -0.0005 0.0104561322601
0.0005 0.0005 0.0098954642397
0.0005 0.0015 0.0093122212933
0.0005 0.0025 0.00875085959449
0.0005 0.0035 0.00822076244955
0.0005 0.0045 0.00770223025915
0.0005 0.0055 0.00715053726124
0.0005 0.0065 0.00650797830079
0.0005 0.0075 0.00572591121713
0.0005 0.0085 0.00479289031603
0.0005 0.0095 0.00373511175554
0.0005 0.0105 0.00263947155845
0.0005 0.0115 0.00165342434495
0.0005 0.0125 0.000932019316238
0.0005 0.0135 0.000575321430147
0.0005 0.0145 0.000438552494281
0.0005 0.0155 0.0002997002466
0.0005 0.0165 0.000141700347035
0.0005 0.0175 4.89938334497e-05
0.0005 0.0185 2.10975150754e-05
0.0005 0.0195 1.1707163776e-05
0.0005 0.0205 8.33102954538e-06
0.0005 0.0215 6.80867096109e-06
0.0005 0.0225 5.94724785542e-06
0.0005 0.0235 5.41625971839e-06
0.0005 0.0245 5.04440784254e-06
0.0005 0.0255 4.75955653882e-06
0.0005 0.0265 4.51949796998e-06
0.0005 0.0275 4.27748307244e-06
0.0005 0.0285 4.02534812331e-06
0.0005 0.0295 3.59013651561e-06
0.0005 0.0305 3.17638893126e-06
0.0005 0.0315 1.57365559888e-06
0.0015 -0.0315 2.20704023984e-06
0.0015 -0.0305 4.5691225468e-06
0.0015 -0.0295 6.20433084173e-06
0.0015 -0.0285 1.00266502267e-05
0.0015 -0.0275 2.28158377904e-05
0.0015 -0.0265 7.34734650472e-05
0.0015 -0.0255 0.000207246332088
0.0015 -0.0245 0.000451024590892
0.0015 -0.0235 0.00271241402138
0.0015 -0.0225 0.00948347582451
0.0015 -0.0215 0.0197852273711
0.0015 -0.0205 0.0318233979878
0.0015 -0.0195 0.0446616742091
0.0015 -0.0185 0.0527892154737
0.0015 -0.0175 0.0533274329321
0.0015 -0.0165 0.0397929435572
0.0015 -0.0155 0.0158790663751
0.0015 -0.0145 0.0028012674453
0.0015 -0.0135 0.00240031517766
0.0015 -0.0125 0.00154554878191
0.0015 -0.0115 0.00301208262565
0.0015 -0.0105 0.00731337954715
0.0015 -0.0095 0.0121378205272
0.0015 -0.0085 0.0165117679357
0.0015 -0.0075 0.0201516916335
0.0015 -0.0065 0.0230936315426
0.0015 -0.0055 0.0253160597703
0.0015 -0.0045 0.0267583311312
0.0015 -0.0035 0.0274423643853
0.0015 -0.0025 0.0274689197942
0.0015 -0.0015 0.0269983761255
0.0015 -0.0005 0.0262090940213
0.0015 0.0005 0.0252669134338
0.0015 0.0015 0.0242960540472
0.0015 0.0025 0.02335833288
0.0015 0.0035 0.0224503789382
0.0015 0.0045 0.0215215340595
0.0015 0.0055 0.0204938600859
0.0015 0.0065 0.0192673731583
0.0015 0.0075 0.0177311455425
0.0015 0.0085 0.0157888206497
0.0015 0.0095 0.0133819175601
0.0015 0.0105 0.0105630765271
0.0015 0.0115 0.00755611235229
0.0015 0.0125 0.00474073813577
0.0015 0.0135 0.00256632342828
0.0015 0.0145 0.00131274112525
0.0015 0.0155 0.000686540650714
0.0015 0.0165 0.000297855635194
0.0015 0.0175 0.000103590473102
0.0015 0.0185 4.43470944809e-05
0.0015 0.0195 2.24447739452e-05
0.0015 0.0205 1.44153774407e-05
0.0015 0.0215 1.10596187537e-05
0.0015 0.0225 9.39710892915e-06
0.0015 0.0235 8.50453932978e-06
0.0015 0.0245 7.98451226516e-06
0.0015 0.0255 7.66453070071e-06
0.0015 0.0265 7.45574068878e-06
0.0015 0.0275 7.28193973252e-06
0.0015 0.0285 7.11515165074e-06
0.0015 0.0295 6.64721244865e-06
0.0015 0.0305 6.13024746419e-06
0.0015 0.0315 3.07435215081e-06
0.0025 -0.0315 2.84531335554e-06
0.0025 -0.0305 6.30818906431e-06
0.0025 -0.0295 1.07976240584e-05
0.0025 -0.0285 2.35050670007e-05
0.0025 -0.0275 5.90065272278e-05
0.0025 -0.0265 0.000144484659107
0.0025 -0.0255 0.000298645169574
0.0025 -0.0245 0.000802512104612
0.0025 -0.0235 0.00339641304331
0.0025 -0.0225 0.00975833470366
0.0025 -0.0215 0.0189305037574
0.0025 -0.0205 0.0293032949882
0.0025 -0.0195 0.0404374566324
0.0025 -0.0185 0.0479565410905
0.0025 -0.0175 0.0494103093559
0.0025 -0.0165 0.0426575204434
0.0025 -0.0155 0.0280423406926
0.0025 -0.0145 0.0162477703452
0.0025 -0.0135 0.0129490943958
0.0025 -0.0125 0.015352896664
0.0025 -0.0115 0.0199509073538
0.0025 -0.0105 0.0247750593576
0.0025 -0.0095 0.0286092410803
0.0025 -0.0085 0.0310628808608
0.0025 -0.0075 0.0323822311308
0.0025 -0.0065 0.0329796556669
0.0025 -0.0055 0.0331726365032
0.0025 -0.0045 0.033134975514
0.0025 -0.0035 0.0329314373354
0.0025 -0.0025 0.0325721358153
0.0025 -0.0015 0.0320664895171
0.0025 -0.0005 0.0314532785815
0.0025 0.0005 0.0307940163737
0.0025 0.0015 0.0301465651756
0.0025 0.0025 0.029544721423
0.0025 0.0035 0.0289858150106
0.0025 0.0045 0.0284335726173
0.0025 0.0055 0.0278274866268
0.0025 0.0065 0.0270773810433
0.0025 0.0075 0.0260624627034
0.0025 0.0085 0.0246520607553
0.0025 0.0095 0.0226900600169
0.0025 0.0105 0.0199751190705
0.0025 0.0115 0.0163419958569
0.0025 0.0125 0.0118924653974
0.0025 0.0135 0.0072416592248
0.0025 0.0145 0.00353141258171
0.0025 0.0155 0.00146392152145
0.0025 0.0165 0.000567801851882
0.0025 0.0175 0.000195396802462
0.0025 0.0185 6.79493691768e-05
0.0025 0.0195 2.89651983707e-05
0.0025 0.0205 1.54475524623e-05
0.0025 0.0215 9.99837719943e-06
0.0025 0.0225 7.69060430741e-06
0.0025 0.0235 6.70155703241e-06
0.0025 0.0245 6.33429204766e-06
0.0025 0.0255 6.28273728679e-06
0.0025 0.0265 6.3966281178e-06
0.0025 0.0275 6.56836140595e-06
0.0025 0.0285 6.71614109411e-06
0.0025 0.0295 6.49441487751e-06
0.0025 0.0305 6.23981159768e-06
0.0025 0.0315 3.21493813749e-06
0.0035 -0.0315 4.39342287232e-06
0.0035 -0.0305 1.04949949446e-05
0.0035 -0.0295 2.08532273928e-05
0.0035 -0.0285 4.99494806328e-05
0.0035 -0.0275 0.000143847738202
0.0035 -0.0265 0.000357078524289
0.0035 -0.0255 0.000755502918835
0.0035 -0.0245 0.0020030095588
0.0035 -0.0235 0.00552000097934
0.0035 -0.0225 0.0116806813044
0.0035 -0.0215 0.0191435773352
0.0035 -0.0205 0.0269175226317
0.0035 -0.0195 0.0350911619058
0.0035 -0.0185 0.0407835546334
0.0035 -0.0175 0.0426402079669
0.0035 -0.0165 0.0407222230217
0.0035 -0.0155 0.0353195496516
0.0035 -0.0145 0.0309878524194
0.0035 -0.0135 0.0302837699753
0.0035 -0.0125 0.0323226690068
0.0035 -0.0115 0.0350478682529
0.0035 -0.0105 0.0368945022032
0.0035 -0.0095 0.0372508614633
0.0035 -0.0085 0.0363173443005
0.0035 -0.0075 0.0346451503711
0.0035 -0.0065 0.0327799725613
0.0035 -0.0055 0.03112366191
0.0035 -0.0045 0.0298597093464
0.0035 -0.0035 0.028959445454
0.0035 -0.0025 0.0282952701147
0.0035 -0.0015 0.0277484636988
0.0035 -0.0005 0.0272693734187
0.0035 0.0005 0.0268585212323
0.0035 0.0015 0.0265306495144
0.0035 0.0025 0.0262980940972
0.0035 0.0035 0.026168478271
0.0035 0.0045 0.0261432197932
0.0035 0.0055 0.0262150308571
0.0035 0.0065 0.0263607782742
0.0035 0.0075 0.0265149314818
0.0035 0.0085 0.026529061267
0.0035 0.0095 0.0261545257194
0.0035 0.0105 0.0250961135502
0.0035 0.0115 0.0229910627405
0.0035 0.0125 0.0193935112421
0.0035 0.0135 0.0141725630166
0.0035 0.0145 0.00829083880535
0.0035 0.0155 0.00367420629904
0.0035 0.0165 0.00130956681373
0.0035 0.0175 0.00042554802485
0.0035 0.0185 0.000126191153979
0.0035 0.0195 5.02761210958e-05
0.0035 0.0205 2.34838206215e-05
0.0035 0.0215 1.3334255726e-05
0.0035 0.0225 9.13491942314e-06
0.0035 0.0235 7.43449333338e-06
0.0035 0.0245 6.83953572278e-06
0.0035 0.0255 6.76208446549e-06
0.0035 0.0265 6.90861290905e-06
0.0035 0.0275 7.07586933121e-06
0.0035 0.0285 7.12535537694e-06
0.0035 0.0295 6.69037738366e-06
0.0035 0.0305 6.4981941863e-06
0.0035 0.0315 3.46192653878e-06
0.0045 -0.0315 7.71251964159e-06
0.0045 -0.0305 2.01275743703e-05
0.0045 -0.0295 4.52821236418e-05
0.0045 -0.0285 0.000127215600151
0.0045 -0.0275 0.000370887950748
0.0045 -0.0265 0.000910207552183
0.0045 -0.0255 0.00215986597725
0.0045 -0.0245 0.00510734316503
0.0045 -0.0235 0.0101611660558
0.0045 -0.0225 0.0161929166181
0.0045 -0.0215 0.0215737892521
0.0045 -0.0205 0.0257617345499
0.0045 -0.0195 0.0293127769982
0.0045 -0.0185 0.0315209292698
0.0045 -0.0175 0.0328469374629
0.0045 -0.0165 0.0341660122935
0.0045 -0.0155 0.0351762365785
0.0045 -0.0145 0.0366050800841
0.0045 -0.0135 0.0383207529616
0.0045 -0.0125 0.0394653439608
0.0045 -0.0115 0.0391905889268
0.0045 -0.0105 0.0372134193808
0.0045 -0.0095 0.0338483638236
0.0045 -0.0085 0.0298097298764
0.0045 -0.0075 0.0258782606016
0.0045 -0.0065 0.0226034469532
0.0045 -0.0055 0.0202353788029
0.0045 -0.0045 0.0187366888893
0.0045 -0.0035 0.017855904023
0.0045 -0.0025 0.0172981163222
0.0045 -0.0015 0.0168726816452
0.0045 -0.0005 0.016547927145
0.0045 0.0005 0.0163680935202
0.0045 0.0015 0.0163542518601
0.0045 0.0025 0.0164888214754
0.0045 0.0035 0.0167535310356
0.0045 0.0045 0.0171627253485
0.0045 0.0055 0.0177666548162
0.0045 0.0065 0.0186440706054
0.0045 0.0075 0.0198685421206
0.0045 0.0085 0.0214173748715
0.0045 0.0095 0.0230895892868
0.0045 0.0105 0.0244493776984
0.0045 0.0115 0.0249097550496
0.0045 0.0125 0.0238764149315
0.0045 0.0135 0.0205763022829
0.0045 0.0145 0.0146678621254
0.0045 0.0155 0.00779472176411
0.0045 0.0165 0.00295749383391
0.0045 0.0175 0.000927432346879
0.0045 0.0185 0.000287471633609
0.0045 0.0195 9.6216856507e-05
0.0045 0.0205 4.01952288153e-05
0.0045 0.0215 1.98850682718e-05
0.0045 0.0225 1.20314236577e-05
0.0045 0.0235 8.84552522505e-06
0.0045 0.0245 7.65458801292e-06
0.0045 0.0255 7.33533767549e-06
0.0045 0.0265 7.35370900833e-06
0.0045 0.0275 7.37938951743e-06
0.0045 0.0285 7.24473060005e-06
0.0045 0.0295 6.65970532231e-06
0.0045 0.0305 6.6057433976e-06
0.0045 0.0315 3.61999744598e-06
0.0055 -0.0315 1.52329535803e-05
0.0055 -0.0305 4.28252104955e-05
0.0055 -0.0295 0.000116568393919
0.0055 -0.0285 0.000357619569645
0.0055 -0.0275 0.000954011346291
0.0055 -0.0265 0.00241340997742
0.0055 -0.0255 0.0056979214667
0.0055 -0.0245 0.0111555706634
0.0055 -0.0235 0.0175888446246
0.0055 -0.0225 0.0230926010979
0.0055 -0.0215 0.0262541116973
0.0055 -0.0205 0.026649491603
0.0055 -0.0195 0.0246383224813
0.0055 -0.0185 0.0216195189018
0.0055 -0.0175 0.0210056069405
0.0055 -0.0165 0.024145049879
0.0055 -0.0155 0.0284768760644
0.0055 -0.0145 0.0318680140153
0.0055 -0.0135 0.0332607167307
0.0055 -0.0125 0.0322696134172
0.0055 -0.0115 0.0291565690466
0.0055 -0.0105 0.0247126971869
0.0055 -0.0095 0.0198772755618
0.0055 -0.0085 0.0154650711765
0.0055 -0.0075 0.0119586601236
0.0055 -0.0065 0.00947665728833
0.0055 -0.0055 0.00788565413629
0.0055 -0.0045 0.00693871681652
0.0055 -0.0035 0.00640049860132
0.0055 -0.0025 0.00606886318928
0.0055 -0.0015 0.0057745799048
0.0055 -0.0005 0.00552204641736
0.0055 0.0005 0.00546292234481
0.0055 0.0015 0.00565503179147
0.0055 0.0025 0.00602656128939
0.0055 0.0035 0.00650212625361
0.0055 0.0045 0.00706985115133
0.0055 0.0055 0.00777723329823
0.0055 0.0065 0.00873111585053
0.0055 0.0075 0.0101168730267
0.0055 0.0085 0.0121917977133
0.0055 0.0095 0.0151593509015
0.0055 0.0105 0.0188153902628
0.0055 0.0115 0.0223302609061
0.0055 0.0125 0.0245599956629
0.0055 0.0135 0.0244081704472
0.0055 0.0145 0.0206723709831
0.0055 0.0155 0.0134459761781
0.0055 0.0165 0.00611856306814
0.0055 0.0175 0.00206112128907
0.0055 0.0185 0.000682531675609
0.0055 0.0195 0.000218109288287
0.0055 0.0205 7.63818873166e-05
0.0055 0.0215 3.3642198462e-05
0.0055 0.0225 1.79966675742e-05
0.0055 0.0235 1.17805120289e-05
0.0055 0.0245 9.24070473102e-06
0.0055 0.0255 8.29814862842e-06
0.0055 0.0265 7.96793963827e-06
0.0055 0.0275 7.73197156947e-06
0.0055 0.0285 7.3902266474e-06
0.0055 0.0295 6.68479978901e-06
0.0055 0.0305 6.70582364582e-06
0.0055 0.0315 3.72915166363e-06
0.0065 -0.0315 3.28242928055e-05
0.0065 -0.0305 0.000104257735103
0.0065 -0.0295 0.000312589116786
0.0065 -0.0285 0.00088669524351
0.0065 -0.0275 0.00240128549654
0.0065 -0.0265 0.00606563575757
0.0065 -0.0255 0.0123196420798
0.0065 -0.0245 0.0196376738239
0.0065 -0.0235 0.0258238390456
0.0065 -0.0225 0.0294014125368
0.0065 -0.0215 0.0297190676464
0.0065 -0.0205 0.0266235900721
0.0065 -0.0195 0.020420054569
0.0065 -0.0185 0.013167490983
0.0065 -0.0175 0.00961258945251
0.0065 -0.0165 0.012063813202
0.0065 -0.0155 0.0158752881959
0.0065 -0.0145 0.0180998501477
0.0065 -0.0135 0.018115516503
0.0065 -0.0125 0.0161790089404
0.0065 -0.0115 0.013079384992
0.0065 -0.0105 0.00976893995554
0.0065 -0.0095 0.00692825286539
0.0065 -0.0085 0.0048347782783
0.0065 -0.0075 0.00344543703495
0.0065 -0.0065 0.00255999064487
0.0065 -0.0055 0.001985269269
0.0065 -0.0045 0.00190135957639
0.0065 -0.0035 0.00277836747937
0.0065 -0.0025 0.00372478509894
0.0065 -0.0015 0.00375992279744
0.0065 -0.0005 0.00304258513614
0.0065 0.0005 0.00220487072268
0.0065 0.0015 0.00162330310395
0.0065 0.0025 0.00141876760163
0.0065 0.0035 0.00153528798724
0.0065 0.0045 0.00182117819977
0.0065 0.0055 0.00220325664155
0.0065 0.0065 0.00270869160037
0.0065 0.0075 0.00346085747526
0.0065 0.0085 0.00472690506309
0.0065 0.0095 0.0070024601673
0.0065 0.0105 0.0108856547939
0.0065 0.0115 0.0162809848508
0.0065 0.0125 0.0217373359534
0.0065 0.0135 0.0251518522173
0.0065 0.0145 0.0247009116769
0.0065 0.0155 0.0192620765752
0.0065 0.0165 0.0108222153346
0.0065 0.0175 0.00427164268371
0.0065 0.0185 0.00143505561615
0.0065 0.0195 0.000505013836739
0.0065 0.0205 0.000166504715953
0.0065 0.0215 6.28678228731e-05
0.0065 0.0225 2.9944123622e-05
0.0065 0.0235 1.71957572537e-05
0.0065 0.0245 1.20064738693e-05
0.0065 0.0255 9.8422031411e-06
0.0065 0.0265 8.85343196407e-06
0.0065 0.0275 8.2151694408e-06
0.0065 0.0285 7.61806571563e-06
0.0065 0.0295 6.76812940341e-06
0.0065 0.0305 6.79494193159e-06
0.0065 0.0315 3.80163563301e-06
0.0075 -0.0315 7.94202886823e-05
0.0075 -0.0305 0.000261554457082
0.0075 -0.0295 0.000726628199101
0.0075 -0.0285 0.00207507097134
0.0075 -0.0275 0.0057207016322
0.0075 -0.0265 0.0125293557945
0.0075 -0.0255 0.0207169406996
0.0075 -0.0245 0.027343011087
0.0075 -0.0235 0.030749711102
0.0075 -0.0225 0.0304489281374
0.0075 -0.0215 0.0265847459225
0.0075 -0.0205 0.0200728952772
0.0075 -0.0195 0.0124807502015
0.0075 -0.0185 0.00625455919367
0.0075 -0.0175 0.00324371529633
0.0075 -0.0165 0.00348879929724
0.0075 -0.0155 0.00477196113618
0.0075 -0.0145 0.00544212741711
0.0075 -0.0135 0.00528479313776
0.0075 -0.0125 0.00454420206548
0.0075 -0.0115 0.0036026213505
0.0075 -0.0105 0.00272591889275
0.0075 -0.0095 0.0019983296554
0.0075 -0.0085 0.0014379948843
0.0075 -0.0075 0.00105464681156
0.0075 -0.0065 0.000877788907871
0.0075 -0.0055 0.00111008361595
0.0075 -0.0045 0.00220110373601
0.0075 -0.0035 0.00392019974751
0.0075 -0.0025 0.00470587109968
0.0075 -0.0015 0.00388296672282
0.0075 -0.0005 0.0026675437484
0.0075 0.0005 0.00184905519535
0.0075 0.0015 0.00132954799431
0.0075 0.0025 0.000986145201563
0.0075 0.0035 0.000774206772287
0.0075 0.0045 0.00068140913699
0.0075 0.0055 0.000696878719534
0.0075 0.0065 0.000804540967901
0.0075 0.0075 0.00101635951939
0.0075 0.0085 0.0014416271756
0.0075 0.0095 0.00244856359355
0.0075 0.0105 0.00480755974942
0.0075 0.0115 0.00949867785632
0.0075 0.0125 0.016343029141
0.0075 0.0135 0.0229084621909
0.0075 0.0145 0.0261133357424
0.0075 0.0155 0.023800910918
0.0075 0.0165 0.0162864292486
0.0075 0.0175 0.00787290487627
0.0075 0.0185 0.0028587242163
0.0075 0.0195 0.00102182020847
0.0075 0.0205 0.000373079087007
0.0075 0.0215 0.000132692416758
0.0075 0.0225 5.2876362494e-05
0.0075 0.0235 2.71195047655e-05
0.0075 0.0245 1.72252707289e-05
0.0075 0.0255 1.2718584461e-05
0.0075 0.0265 1.04866974577e-05
0.0075 0.0275 9.12820809514e-06
0.0075 0.0285 8.09253715384e-06
0.0075 0.0295 6.97927493568e-06
0.0075 0.0305 6.90290728187e-06
0.0075 0.0315 3.85230994794e-06
0.0085 -0.0315 0.000180131326179
0.0085 -0.0305 0.000573774683942
0.0085 -0.0295 0.00156582208464
0.0085 -0.0285 0.00469802718985
0.0085 -0.0275 0.0114035977223
0.0085 -0.0265 0.0202477520262
0.0085 -0.0255 0.0275073761612
0.0085 -0.0245 0.0307981215869
0.0085 -0.0235 0.0296110780832
0.0085 -0.0225 0.0243599904996
0.0085 -0.0215 0.0169001182537
0.0085 -0.0205 0.00979012873278
0.0085 -0.0195 0.0045387179237
0.0085 -0.0185 0.00182725073213
0.0085 -0.0175 0.00114048278989
0.0085 -0.0165 0.0010331249517
0.0085 -0.0155 0.00106063081365
0.0085 -0.0145 0.00116243430066
0.0085 -0.0135 0.00117785950411
0.0085 -0.0125 0.00108195069608
0.0085 -0.0115 0.000914042750839
0.0085 -0.0105 0.000724440745173
0.0085 -0.0095 0.000555875912171
0.0085 -0.0085 0.000434426627011
0.0085 -0.0075 0.000394200567981
0.0085 -0.0065 0.000548553311857
0.0085 -0.0055 0.00106415074345
0.0085 -0.0045 0.00238279302599
0.0085 -0.0035 0.00449672312485
0.0085 -0.0025 0.00507068986183
0.0085 -0.0015 0.0033225238916
0.0085 -0.0005 0.00178369144038
0.0085 0.0005 0.00120728754433
0.0085 0.0015 0.00089924480291
0.0085 0.0025 0.000699391503588
0.0085 0.0035 0.000553137546805
0.0085 0.0045 0.000446832613649
0.0085 0.0055 0.000377106757549
0.0085 0.0065 0.000346557048009
0.0085 0.0075 0.000366889787197
0.0085 0.0085 0.000478361903784
0.0085 0.0095 0.000874694563096
0.0085 0.0105 0.00193241718767
0.0085 0.0115 0.00467680127131
0.0085 0.0125 0.0104490529465
0.0085 0.0135 0.0183781481846
0.0085 0.0145 0.0248309819848
0.0085 0.0155 0.0262078764437
0.0085 0.0165 0.0212936233161
0.0085 0.0175 0.0126819040234
0.0085 0.0185 0.00543409265706
0.0085 0.0195 0.00194210085383
0.0085 0.0205 0.000734227433798
0.0085 0.0215 0.000261940774126
0.0085 0.0225 9.59780433369e-05
0.0085 0.0235 4.79145084252e-05
0.0085 0.0245 2.80801135076e-05
0.0085 0.0255 1.88177776708e-05
0.0085 0.0265 1.39563063602e-05
0.0085 0.0275 1.10825578625e-05
0.0085 0.0285 9.12203401441e-06
0.0085 0.0295 7.46099799327e-06
0.0085 0.0305 7.10025637517e-06
0.0085 0.0315 3.90933613381e-06
0.0095 -0.0315 0.000339119682615
0.0095 -0.0305 0.001121965148
0.0095 -0.0295 0.00336111468242
0.0095 -0.0285 0.00918783075863
0.0095 -0.0275 0.018177983796
0.0095 -0.0265 0.0264176796323
0.0095 -0.0255 0.0304027802436
0.0095 -0.0245 0.0291272000409
0.0095 -0.0235 0.0230464847952
0.0095 -0.0225 0.0146594569733
0.0095 -0.0215 0.0076723558293
0.0095 -0.0205 0.0035734045504
0.0095 -0.0195 0.00152695204496
0.0095 -0.0185 0.000676895629484
0.0095 -0.0175 0.000434709186272
0.0095 -0.0165 0.000368469971203
0.0095 -0.0155 0.000347592452984
0.0095 -0.0145 0.000330992569438
0.0095 -0.0135 0.000310144539273
0.0095 -0.0125 0.000280054789432
0.0095 -0.0115 0.000243813342851
0.0095 -0.0105 0.000208451690449
0.0095 -0.0095 0.000181331593607
0.0095 -0.0085 0.000171944984792
0.0095 -0.0075 0.000202803963953
0.0095 -0.0065 0.000360476582937
0.0095 -0.0055 0.000734621318331
0.0095 -0.0045 0.0018127394342
0.0095 -0.0035 0.00430230842858
0.0095 -0.0025 0.00571545644862
0.0095 -0.0015 0.0038221360319
0.0095 -0.0005 0.00158046209236
0.0095 0.0005 0.000778857922256
0.0095 0.0015 0.000500897423362
0.0095 0.0025 0.000374255688597
0.0095 0.0035 0.00029706948635
0.0095 0.0045 0.000242196324192
0.0095 0.0055 0.000200385211964
0.0095 0.0065 0.000170022393887
0.0095 0.0075 0.000157325710225
0.0095 0.0085 0.00018654551364
0.0095 0.0095 0.000377335421481
0.0095 0.0105 0.00089798782903
0.0095 0.0115 0.00220632788214
0.0095 0.0125 0.00585757405608
0.0095 0.0135 0.0129891204502
0.0095 0.0145 0.0212876909177
0.0095 0.0155 0.0261568481729
0.0095 0.0165 0.0247472787806
0.0095 0.0175 0.0178223965097
0.0095 0.0185 0.00941478398192
0.0095 0.0195 0.00375878760651
0.0095 0.0205 0.00139972829442
0.0095 0.0215 0.000554205621773
0.0095 0.0225 0.000217369649403
0.0095 0.0235 9.90863231305e-05
0.0095 0.0245 5.405289389e-05
0.0095 0.0255 3.28152765611e-05
0.0095 0.0265 2.20117928178e-05
0.0095 0.0275 1.563348373e-05
0.0095 0.0285 1.15267562047e-05
0.0095 0.0295 8.61741995561e-06
0.0095 0.0305 7.61907985007e-06
0.0095 0.0315 4.07719221468e-06
0.0105 -0.0315 0.000567121852647
0.0105 -0.0305 0.00219052321702
0.0105 -0.0295 0.00651582374887
0.0105 -0.0285 0.0147649199508
0.0105 -0.0275 0.023929484471
0.0105 -0.0265 0.0294785092186
0.0105 -0.0255 0.0293397382544
0.0105 -0.0245 0.0235299057872
0.0105 -0.0235 0.0144714112413
0.0105 -0.0225 0.00687005634605
0.0105 -0.0215 0.00296346415099
0.0105 -0.0205 0.00140003515952
0.0105 -0.0195 0.000657595977422
0.0105 -0.0185 0.00031630602858
0.0105 -0.0175 0.000207822182202
0.0105 -0.0165 0.00017344843905
0.0105 -0.0155 0.00015816007237
0.0105 -0.0145 0.000145215881352
0.0105 -0.0135 0.000131365220946
0.0105 -0.0125 0.000117572642422
0.0105 -0.0115 0.000104999647839
0.0105 -0.0105 9.51546530157e-05
0.0105 -0.0095 9.05096054308e-05
0.0105 -0.0085 9.61458985779e-05
0.0105 -0.0075 0.000125531362235
0.0105 -0.0065 0.000208537026888
0.0105 -0.0055 0.000409605149638
0.0105 -0.0045 0.00104572052947
0.0105 -0.0035 0.00327890539013
0.0105 -0.0025 0.00597809633545
0.0105 -0.0015 0.00506799585404
0.0105 -0.0005 0.00210202033188
0.0105 0.0005 0.000743825148209
0.0105 0.0015 0.000371996933422
0.0105 0.0025 0.000229659042587
0.0105 0.0035 0.000169358562025
0.0105 0.0045 0.000136271542872
0.0105 0.0055 0.000114020432151
0.0105 0.0065 9.89008596499e-05
0.0105 0.0075 9.48522754019e-05
0.0105 0.0085 0.000116768417087
0.0105 0.0095 0.000202597815025
0.0105 0.0105 0.000442905992053
0.0105 0.0115 0.00108417603459
0.0105 0.0125 0.00302978569368
0.0105 0.0135 0.00816262793412
0.0105 0.0145 0.0164540093589
0.0105 0.0155 0.0238194058986
0.0105 0.0165 0.0259377816205
0.0105 0.0175 0.0220114551836
0.0105 0.0185 0.0143691540071
0.0105 0.0195 0.00707777019995
0.0105 0.0205 0.00290892609954
0.0105 0.0215 0.00125848313941
0.0105 0.0225 0.00058577501329
0.0105 0.0235 0.000261549714488
0.0105 0.0245 0.000124027838893
0.0105 0.0255 6.97460841907e-05
0.0105 0.0265 4.28245306421e-05
0.0105 0.0275 2.7380459996e-05
0.0105 0.0285 1.75474388248e-05
0.0105 0.0295 1.13845199483e-05
0.0105 0.0305 8.95598558673e-06
0.0105 0.0315 4.59585734765e-06
0.0115 -0.0315 0.000983339067218
0.0115 -0.0305 0.00410062270427
0.0115 -0.0295 0.0106672134164
0.0115 -0.0285 0.0199667951423
0.0115 -0.0275 0.0274222068548
0.0115 -0.0265 0.0295235290057
0.0115 -0.0255 0.0253883660854
0.0115 -0.0245 0.0164596362912
0.0115 -0.0235 0.00766638790927
0.0115 -0.0225 0.0029057500229
0.0115 -0.0215 0.00121190570673
0.0115 -0.0205 0.000552729724488
0.0115 -0.0195 0.000291696264798
0.0115 -0.0185 0.000182100487001
0.0115 -0.0175 0.000128322811041
0.0115 -0.0165 0.000104741257435
0.0115 -0.0155 9.27788634429e-05
0.0115 -0.0145 8.35765062754e-05
0.0115 -0.0135 7.48600579722e-05
0.0115 -0.0125 6.69309598814e-05
0.0115 -0.0115 6.05748691035e-05
0.0115 -0.0105 5.65696085083e-05
0.0115 -0.0095 5.61975943182e-05
0.0115 -0.0085 6.24190027158e-05
0.0115 -0.0075 8.22370514414e-05
0.0115 -0.0065 0.000130345490752
0.0115 -0.0055 0.000262430453171
0.0115 -0.0045 0.000639821746294
0.0115 -0.0035 0.00232964230019
0.0115 -0.0025 0.00570500847737
0.0115 -0.0015 0.00617575707405
0.0115 -0.0005 0.00308200691695
0.0115 0.0005 0.00102846290329
0.0115 0.0015 0.000396083142432
0.0115 0.0025 0.000190576547819
0.0115 0.0035 0.000120187505158
0.0115 0.0045 9.03211618994e-05
0.0115 0.0055 7.51439246103e-05
0.0115 0.0065 6.78340541199e-05
0.0115 0.0075 6.9824610171e-05
0.0115 0.0085 8.67881848263e-05
0.0115 0.0095 0.000127412082835
0.0115 0.0105 0.000225413680289
0.0115 0.0115 0.000542070750565
0.0115 0.0125 0.00154048488416
0.0115 0.0135 0.00466890915128
0.0115 0.0145 0.011475960838
0.0115 0.0155 0.0198483507846
0.0115 0.0165 0.0247710546096
0.0115 0.0175 0.0240997405875
0.0115 0.0185 0.0189506495604
0.0115 0.0195 0.0119102955319
0.0115 0.0205 0.0062083836154
0.0115 0.0215 0.00306446921819
0.0115 0.0225 0.00158052461386
0.0115 0.0235 0.000789668095704
0.0115 0.0245 0.000358316084746
0.0115 0.0255 0.000175674173024
0.0115 0.0265 0.000106340308117
0.0115 0.0275 6.22101072924e-05
0.0115 0.0285 3.27483208815e-05
0.0115 0.0295 1.75210292621e-05
0.0115 0.0305 1.1933795185e-05
0.0115 0.0315 5.8048584952e-06
0.0125 -0.0315 0.00174993430715
0.0125 -0.0305 0.00677204031908
0.0125 -0.0295 0.0149464755392
0.0125 -0.0285 0.0237780536814
0.0125 -0.0275 0.0286524433848
0.0125 -0.0265 0.0273889853105
0.0125 -0.0255 0.0201149818102
0.0125 -0.0245 0.0103320083289
0.0125 -0.0235 0.0037639384852
0.0125 -0.0225 0.0014011712531
0.0125 -0.0215 0.000650488693691
0.0125 -0.0205 0.000326860727205
0.0125 -0.0195 0.000207002779841
0.0125 -0.0185 0.000143333792744
0.0125 -0.0175 0.00010778398088
0.0125 -0.0165 8.69085792032e-05
0.0125 -0.0155 7.35250186835e-05
0.0125 -0.0145 6.36180944489e-05
0.0125 -0.0135 5.57319301337e-05
0.0125 -0.0125 4.94806587129e-05
0.0125 -0.0115 4.49043152796e-05
0.0125 -0.0105 4.22812687629e-05
0.0125 -0.0095 4.23382205566e-05
0.0125 -0.0085 4.68451746609e-05
0.0125 -0.0075 6.04288204561e-05
0.0125 -0.0065 9.53815847647e-05
0.0125 -0.0055 0.000194778485656
0.0125 -0.0045 0.000502339210993
0.0125 -0.0035 0.00184446227909
0.0125 -0.0025 0.00522643844605
0.0125 -0.0015 0.00685471033379
0.0125 -0.0005 0.00417681611408
0.0125 0.0005 0.00140455279634
0.0125 0.0015 0.000458250927206
0.0125 0.0025 0.000200312305133
0.0125 0.0035 0.000111551651585
0.0125 0.0045 7.67127460578e-05
0.0125 0.0055 6.18598498273e-05
0.0125 0.0065 5.65415650717e-05
0.0125 0.0075 5.93293473163e-05
0.0125 0.0085 7.2611786476e-05
0.0125 0.0095 0.000101125783515
0.0125 0.0105 0.000156965853037
0.0125 0.0115 0.000327996410272
0.0125 0.0125 0.000866318561756
0.0125 0.0135 0.00257228302595
0.0125 0.0145 0.0073366717366
0.0125 0.0155 0.0151263109904
0.0125 0.0165 0.0216232450945
0.0125 0.0175 0.0235687318334
0.0125 0.0185 0.0214485725007
0.0125 0.0195 0.0168471919199
0.0125 0.0205 0.0116508705836
0.0125 0.0215 0.00738705780653
0.0125 0.0225 0.00439976246423
0.0125 0.0235 0.00239660579476
0.0125 0.0245 0.0011851099123
0.0125 0.0255 0.000611410080918
0.0125 0.0265 0.000351972190558
0.0125 0.0275 0.000171476754063
0.0125 0.0285 6.73083559254e-05
0.0125 0.0295 3.03626769598e-05
0.0125 0.0305 1.83015754334e-05
0.0125 0.0315 8.38148549361e-06
0.0135 -0.0315 0.00286826725919
0.0135 -0.0305 0.00979848669665
0.0135 -0.0295 0.0186305381827
0.0135 -0.0285 0.0260058224753
0.0135 -0.0275 0.0281885953272
0.0135 -0.0265 0.0240398420328
0.0135 -0.0255 0.0148988794601
0.0135 -0.0245 0.00605207618658
0.0135 -0.0235 0.00206818264258
0.0135 -0.0225 0.00126516097281
0.0135 -0.0215 0.000751076971564
0.0135 -0.0205 0.000393001754082
0.0135 -0.0195 0.00025288126519
0.0135 -0.0185 0.000180213805631
0.0135 -0.0175 0.000137746257628
0.0135 -0.0165 0.000106536835642
0.0135 -0.0155 8.28062511548e-05
0.0135 -0.0145 6.58941402262e-05
0.0135 -0.0135 5.41148825834e-05
0.0135 -0.0125 4.60202764836e-05
0.0135 -0.0115 4.07781977217e-05
0.0135 -0.0105 3.78555092658e-05
0.0135 -0.0095 3.73130489719e-05
0.0135 -0.0085 4.02386792058e-05
0.0135 -0.0075 5.03067826424e-05
0.0135 -0.0065 7.8132601453e-05
0.0135 -0.0055 0.000160655283633
0.0135 -0.0045 0.000422038188529
0.0135 -0.0035 0.00152022816547
0.0135 -0.0025 0.00463243902574
0.0135 -0.0015 0.00708611409575
0.0135 -0.0005 0.0050431365504
0.0135 0.0005 0.00176493613305
0.0135 0.0015 0.000546413324163
0.0135 0.0025 0.000240558390763
0.0135 0.0035 0.000126261620738
0.0135 0.0045 8.30849551123e-05
0.0135 0.0055 6.57798748257e-05
0.0135 0.0065 5.97746041339e-05
0.0135 0.0075 6.15777526673e-05
0.0135 0.0085 7.34730976397e-05
0.0135 0.0095 0.000102349009398
0.0135 0.0105 0.000165889929129
0.0135 0.0115 0.000327081406633
0.0135 0.0125 0.000681684213243
0.0135 0.0135 0.00162666585035
0.0135 0.0145 0.00462037289807
0.0135 0.0155 0.0106814028506
0.0135 0.0165 0.017081111328
0.0135 0.0175 0.0204760016667
0.0135 0.0185 0.0208598315044
0.0135 0.0195 0.0195800192201
0.0135 0.0205 0.0173420212407
0.0135 0.0215 0.0142796425412
0.0135 0.0225 0.0106168704596
0.0135 0.0235 0.00687301376292
0.0135 0.0245 0.00379040341288
0.0135 0.0255 0.00192488634156
0.0135 0.0265 0.0009791582413
0.0135 0.0275 0.000415227839045
0.0135 0.0285 0.000139856200365
0.0135 0.0295 5.9525553856e-05
0.0135 0.0305 3.21371737742e-05
0.0135 0.0315 1.41128299407e-05
0.0145 -0.0315 0.00419957342746
0.0145 -0.0305 0.0128042366088
0.0145 -0.0295 0.0214280505439
0.0145 -0.0285 0.0269599073113
0.0145 -0.0275 0.0266598333267
0.0145 -0.0265 0.0202492405705
0.0145 -0.0255 0.0104311375782
0.0145 -0.0245 0.003558868397
0.0145 -0.0235 0.00260247008498
0.0145 -0.0225 0.00253207671859
0.0145 -0.0215 0.00174413127542
0.0145 -0.0205 0.000898207997223
0.0145 -0.0195 0.000513354841242
0.0145 -0.0185 0.000368805382825
0.0145 -0.0175 0.000263954163531
0.0145 -0.0165 0.000178867394944
0.0145 -0.0155 0.000124024482853
0.0145 -0.0145 8.9322897378e-05
0.0145 -0.0135 6.60251068033e-05
0.0145 -0.0125 5.15197597719e-05
0.0145 -0.0115 4.29657471912e-05
0.0145 -0.0105 3.81386431015e-05
0.0145 -0.0095 3.61609650037e-05
0.0145 -0.0085 3.74524158769e-05
0.0145 -0.0075 4.48210170822e-05
0.0145 -0.0065 6.71022411662e-05
0.0145 -0.0055 0.000134417513457
0.0145 -0.0045 0.000348464339212
0.0145 -0.0035 0.00123086725433
0.0145 -0.0025 0.00392962210421
0.0145 -0.0015 0.00697200744436
0.0145 -0.0005 0.00595228578392
0.0145 0.0005 0.0025147795125
0.0145 0.0015 0.000792374799087
0.0145 0.0025 0.000311028948883
0.0145 0.0035 0.000160899659326
0.0145 0.0045 0.000109521764979
0.0145 0.0055 8.99806761868e-05
0.0145 0.0065 8.31418626552e-05
0.0145 0.0075 8.40431957243e-05
0.0145 0.0085 9.60535609364e-05
0.0145 0.0095 0.000130361405705
0.0145 0.0105 0.000215849557408