% Model:              Benchmark260518.mph
% Version:            COMSOL 6.2.0.339
% Date:               May 19 2026, 00:10
% Dimension:          2
% Nodes:              4096
% Expressions:        1
% Description:        速度大小
% Length unit:        m
% x                       y                        spf.U (m/s)
% mirrored_by_python_y_to_minus_y, coord_match_decimals=12
0.0005 -0.0315 1.81353133214e-06
0.0005 -0.0305 3.58838093437e-06
0.0005 -0.0295 3.96399965403e-06
0.0005 -0.0285 4.4090703054e-06
0.0005 -0.0275 4.64326499953e-06
0.0005 -0.0265 4.85325485546e-06
0.0005 -0.0255 5.03045140491e-06
0.0005 -0.0245 5.19035271511e-06
0.0005 -0.0235 5.32344518973e-06
0.0005 -0.0225 5.45138034316e-06
0.0005 -0.0215 5.57488207947e-06
0.0005 -0.0205 5.68028762774e-06
0.0005 -0.0195 5.77753800861e-06
0.0005 -0.0185 5.87168554916e-06
0.0005 -0.0175 5.95540425244e-06
0.0005 -0.0165 6.25511866597e-06
0.0005 -0.0155 6.6292078491e-06
0.0005 -0.0145 8.46339193445e-06
0.0005 -0.0135 1.62419145432e-05
0.0005 -0.0125 4.61744124535e-05
0.0005 -0.0115 0.00045830956355
0.0005 -0.0105 0.00238750256833
0.0005 -0.0095 0.00815945810743
0.0005 -0.0085 0.0178397664213
0.0005 -0.0075 0.0290831863922
0.0005 -0.0065 0.037950181008
0.0005 -0.0055 0.0412953056661
0.0005 -0.0045 0.0250400174958
0.0005 -0.0035 0.00381805479661
0.0005 -0.0025 0.00118463343401
0.0005 -0.0015 0.000544422929167
0.0005 -0.0005 0.000229806540489
0.0005 0.0005 8.13890493176e-05
0.0005 0.0015 5.33429082301e-05
0.0005 0.0025 2.74136124442e-05
0.0005 0.0035 1.34633391082e-05
0.0005 0.0045 6.85446665281e-06
0.0005 0.0055 4.15022020601e-06
0.0005 0.0065 3.28217089789e-06
0.0005 0.0075 3.18351209095e-06
0.0005 0.0085 3.23820454124e-06
0.0005 0.0095 3.29402134057e-06
0.0005 0.0105 3.3817168507e-06
0.0005 0.0115 3.45969004487e-06
0.0005 0.0125 3.52557272024e-06
0.0005 0.0135 3.57088904738e-06
0.0005 0.0145 3.58719568668e-06
0.0005 0.0155 3.57418718055e-06
0.0005 0.0165 3.53301738491e-06
0.0005 0.0175 3.47179840112e-06
0.0005 0.0185 3.40010860004e-06
0.0005 0.0195 3.32476558331e-06
0.0005 0.0205 3.24924048667e-06
0.0005 0.0215 3.17390057479e-06
0.0005 0.0225 3.09995448522e-06
0.0005 0.0235 3.02624095344e-06
0.0005 0.0245 2.94856851792e-06
0.0005 0.0255 2.85991012479e-06
0.0005 0.0265 2.76274141315e-06
0.0005 0.0275 2.6447513433e-06
0.0005 0.0285 2.48768263717e-06
0.0005 0.0295 2.24843277958e-06
0.0005 0.0305 2.04624367849e-06
0.0005 0.0315 1.01989248495e-06
0.0015 -0.0315 3.53042102355e-06
0.0015 -0.0305 6.88495941886e-06
0.0015 -0.0295 7.26032356105e-06
0.0015 -0.0285 7.72039599138e-06
0.0015 -0.0275 7.87454571246e-06
0.0015 -0.0265 8.02796778758e-06
0.0015 -0.0255 8.16737990337e-06
0.0015 -0.0245 8.30867470915e-06
0.0015 -0.0235 8.43967153738e-06
0.0015 -0.0225 8.57767100187e-06
0.0015 -0.0215 8.71922449621e-06
0.0015 -0.0205 8.84630570328e-06
0.0015 -0.0195 8.96272001113e-06
0.0015 -0.0185 9.07131403269e-06
0.0015 -0.0175 9.19315694314e-06
0.0015 -0.0165 9.58877971924e-06
0.0015 -0.0155 1.04193054089e-05
0.0015 -0.0145 1.37667424859e-05
0.0015 -0.0135 2.68147013261e-05
0.0015 -0.0125 8.35351983004e-05
0.0015 -0.0115 0.000396095659662
0.0015 -0.0105 0.00165285036582
0.0015 -0.0095 0.00596573838151
0.0015 -0.0085 0.0150164077736
0.0015 -0.0075 0.0269264196437
0.0015 -0.0065 0.0371617971814
0.0015 -0.0055 0.0419459562308
0.0015 -0.0045 0.0321666905387
0.0015 -0.0035 0.0111212072558
0.0015 -0.0025 0.00142659522028
0.0015 -0.0015 0.00155905657124
0.0015 -0.0005 0.000763269236789
0.0015 0.0005 0.000268595005368
0.0015 0.0015 0.0001250319853
0.0015 0.0025 6.50494374547e-05
0.0015 0.0035 2.96729598313e-05
0.0015 0.0045 1.43925214847e-05
0.0015 0.0055 8.42853358655e-06
0.0015 0.0065 6.2646055793e-06
0.0015 0.0075 5.65251426811e-06
0.0015 0.0085 5.50338527594e-06
0.0015 0.0095 5.47292921779e-06
0.0015 0.0105 5.52492128476e-06
0.0015 0.0115 5.59618937974e-06
0.0015 0.0125 5.66533643755e-06
0.0015 0.0135 5.71239553333e-06
0.0015 0.0145 5.72140012119e-06
0.0015 0.0155 5.68901584708e-06
0.0015 0.0165 5.6183966415e-06
0.0015 0.0175 5.52209131664e-06
0.0015 0.0185 5.4150299819e-06
0.0015 0.0195 5.30862497515e-06
0.0015 0.0205 5.20930700426e-06
0.0015 0.0215 5.11907523123e-06
0.0015 0.0225 5.03961682681e-06
0.0015 0.0235 4.96984520106e-06
0.0015 0.0245 4.90535538027e-06
0.0015 0.0255 4.83948147618e-06
0.0015 0.0265 4.77496307029e-06
0.0015 0.0275 4.69370290308e-06
0.0015 0.0285 4.57762176873e-06
0.0015 0.0295 4.29358433171e-06
0.0015 0.0305 3.99172739255e-06
0.0015 0.0315 1.99824825137e-06
0.0025 -0.0315 3.774151219e-06
0.0025 -0.0305 7.04894010304e-06
0.0025 -0.0295 6.97201492476e-06
0.0025 -0.0285 7.16529414587e-06
0.0025 -0.0275 7.04633726244e-06
0.0025 -0.0265 6.92509943737e-06
0.0025 -0.0255 6.81468867906e-06
0.0025 -0.0245 6.74011077012e-06
0.0025 -0.0235 6.70083977689e-06
0.0025 -0.0225 6.69315288077e-06
0.0025 -0.0215 6.70950755231e-06
0.0025 -0.0205 6.73933288053e-06
0.0025 -0.0195 6.77026446134e-06
0.0025 -0.0185 6.80019735196e-06
0.0025 -0.0175 6.87578053975e-06
0.0025 -0.0165 7.13653321514e-06
0.0025 -0.0155 8.19211992637e-06
0.0025 -0.0145 1.17370740073e-05
0.0025 -0.0135 2.52814771881e-05
0.0025 -0.0125 7.78645963004e-05
0.0025 -0.0115 0.000332400057328
0.0025 -0.0105 0.00122978894335
0.0025 -0.0095 0.00422396550769
0.0025 -0.0085 0.0118007550812
0.0025 -0.0075 0.0236390830278
0.0025 -0.0065 0.0351703848951
0.0025 -0.0055 0.0416526621619
0.0025 -0.0045 0.0364315660804
0.0025 -0.0035 0.0186199939588
0.0025 -0.0025 0.00273835840021
0.0025 -0.0015 0.00217624628443
0.0025 -0.0005 0.00146050061216
0.0025 0.0005 0.000573591589395
0.0025 0.0015 0.000202230106355
0.0025 0.0025 8.69597718123e-05
0.0025 0.0035 3.6962646589e-05
0.0025 0.0045 1.80739297349e-05
0.0025 0.0055 1.02949900795e-05
0.0025 0.0065 6.97850952451e-06
0.0025 0.0075 5.59570826182e-06
0.0025 0.0085 5.01061620847e-06
0.0025 0.0095 4.74501006097e-06
0.0025 0.0105 4.62730809863e-06
0.0025 0.0115 4.58972981095e-06
0.0025 0.0125 4.58388492632e-06
0.0025 0.0135 4.5774757751e-06
0.0025 0.0145 4.55219612299e-06
0.0025 0.0155 4.50299082593e-06
0.0025 0.0165 4.43552629971e-06
0.0025 0.0175 4.36065646112e-06
0.0025 0.0185 4.29029359341e-06
0.0025 0.0195 4.23425073174e-06
0.0025 0.0205 4.19881395447e-06
0.0025 0.0215 4.18715176779e-06
0.0025 0.0225 4.20001051621e-06
0.0025 0.0235 4.23664347666e-06
0.0025 0.0245 4.29529696375e-06
0.0025 0.0255 4.3731919097e-06
0.0025 0.0265 4.46529807985e-06
0.0025 0.0275 4.54602312103e-06
0.0025 0.0285 4.59060480538e-06
0.0025 0.0295 4.37198710024e-06
0.0025 0.0305 4.08663403438e-06
0.0025 0.0315 2.06373949574e-06
0.0035 -0.0315 4.13597332673e-06
0.0035 -0.0305 7.38938097763e-06
0.0035 -0.0295 7.08230355774e-06
0.0035 -0.0285 7.46465202323e-06
0.0035 -0.0275 7.45257350985e-06
0.0035 -0.0265 7.36320892353e-06
0.0035 -0.0255 7.22907586604e-06
0.0035 -0.0245 7.11318503749e-06
0.0035 -0.0235 7.031214472e-06
0.0035 -0.0225 6.99024614781e-06
0.0035 -0.0215 6.98756449434e-06
0.0035 -0.0205 7.01426983377e-06
0.0035 -0.0195 7.05820052756e-06
0.0035 -0.0185 7.11484527053e-06
0.0035 -0.0175 7.22022188622e-06
0.0035 -0.0165 7.55731435852e-06
0.0035 -0.0155 8.71720932868e-06
0.0035 -0.0145 1.24356400148e-05
0.0035 -0.0135 2.47952735165e-05
0.0035 -0.0125 6.72271242557e-05
0.0035 -0.0115 0.00025671909245
0.0035 -0.0105 0.000910453960559
0.0035 -0.0095 0.00295192831338
0.0035 -0.0085 0.00881858996889
0.0035 -0.0075 0.0196793840752
0.0035 -0.0065 0.0320448058625
0.0035 -0.0055 0.0403973869587
0.0035 -0.0045 0.0392627589774
0.0035 -0.0035 0.025920262775
0.0035 -0.0025 0.00830273930622
0.0035 -0.0015 0.00119930525891
0.0035 -0.0005 0.00215092271208
0.0035 0.0005 0.00103157420728
0.0035 0.0015 0.000335874056763
0.0035 0.0025 0.000112309965101
0.0035 0.0035 4.54294065945e-05
0.0035 0.0045 2.37082282369e-05
0.0035 0.0055 1.34395023064e-05
0.0035 0.0065 8.74124191762e-06
0.0035 0.0075 6.66578808112e-06
0.0035 0.0085 5.76320980365e-06
0.0035 0.0095 5.37413365868e-06
0.0035 0.0105 5.21156670122e-06
0.0035 0.0115 5.13788874032e-06
0.0035 0.0125 5.08008642075e-06
0.0035 0.0135 5.00339585711e-06
0.0035 0.0145 4.90075075168e-06
0.0035 0.0155 4.7813467348e-06
0.0035 0.0165 4.66062866631e-06
0.0035 0.0175 4.55388467478e-06
0.0035 0.0185 4.47288218727e-06
0.0035 0.0195 4.42479840462e-06
0.0035 0.0205 4.41249105082e-06
0.0035 0.0215 4.43540455678e-06
0.0035 0.0225 4.49065402536e-06
0.0035 0.0235 4.57360425734e-06
0.0035 0.0245 4.67813602753e-06
0.0035 0.0255 4.79386042733e-06
0.0035 0.0265 4.90380419587e-06
0.0035 0.0275 4.95949773434e-06
0.0035 0.0285 4.90999925845e-06
0.0035 0.0295 4.51797164274e-06
0.0035 0.0305 4.21451837872e-06
0.0035 0.0315 2.17916659489e-06
0.0045 -0.0315 4.36345473319e-06
0.0045 -0.0305 7.52420939764e-06
0.0045 -0.0295 6.92716849912e-06
0.0045 -0.0285 7.40921865675e-06
0.0045 -0.0275 7.55647342855e-06
0.0045 -0.0265 7.58592533399e-06
0.0045 -0.0255 7.50469332961e-06
0.0045 -0.0245 7.39905383573e-06
0.0045 -0.0235 7.30854523452e-06
0.0045 -0.0225 7.25674702733e-06
0.0045 -0.0215 7.25176551647e-06
0.0045 -0.0205 7.29208291003e-06
0.0045 -0.0195 7.36959265559e-06
0.0045 -0.0185 7.47967066498e-06
0.0045 -0.0175 7.65725672858e-06
0.0045 -0.0165 8.07485655617e-06
0.0045 -0.0155 9.31934241785e-06
0.0045 -0.0145 1.29568313514e-05
0.0045 -0.0135 2.36842210863e-05
0.0045 -0.0125 5.6877611207e-05
0.0045 -0.0115 0.000194314373223
0.0045 -0.0105 0.000652763760174
0.0045 -0.0095 0.00201900901086
0.0045 -0.0085 0.00627161616617
0.0045 -0.0075 0.0155390919946
0.0045 -0.0065 0.0280099726234
0.0045 -0.0055 0.038106633311
0.0045 -0.0045 0.0404127947175
0.0045 -0.0035 0.0317812019224
0.0045 -0.0025 0.0154743986401
0.0045 -0.0015 0.00204619999839
0.0045 -0.0005 0.00234910872947
0.0045 0.0005 0.00160755113751
0.0045 0.0015 0.000581939917255
0.0045 0.0025 0.00018011372969
0.0045 0.0035 6.66066279522e-05
0.0045 0.0045 3.13454663331e-05
0.0045 0.0055 1.75135518989e-05
0.0045 0.0065 1.11751275529e-05
0.0045 0.0075 8.12648981481e-06
0.0045 0.0085 6.74709541152e-06
0.0045 0.0095 6.17439108206e-06
0.0045 0.0105 5.93566539913e-06
0.0045 0.0115 5.78959098764e-06
0.0045 0.0125 5.63296821668e-06
0.0045 0.0135 5.44091191626e-06
0.0045 0.0145 5.22687414284e-06
0.0045 0.0155 5.01655552387e-06
0.0045 0.0165 4.83353874414e-06
0.0045 0.0175 4.69384691929e-06
0.0045 0.0185 4.60549383101e-06
0.0045 0.0195 4.56995957653e-06
0.0045 0.0205 4.58397378301e-06
0.0045 0.0215 4.64098860269e-06
0.0045 0.0225 4.73219141978e-06
0.0045 0.0235 4.84675603254e-06
0.0045 0.0245 4.97106215161e-06
0.0045 0.0255 5.08432173968e-06
0.0045 0.0265 5.15565320309e-06
0.0045 0.0275 5.1219486043e-06
0.0045 0.0285 4.94736214378e-06
0.0045 0.0295 4.46035424971e-06
0.0045 0.0305 4.28628889065e-06
0.0045 0.0315 2.29662515891e-06
0.0055 -0.0315 4.58122119233e-06
0.0055 -0.0305 7.68103796518e-06
0.0055 -0.0295 6.78848119856e-06
0.0055 -0.0285 7.29397408401e-06
0.0055 -0.0275 7.55601627717e-06
0.0055 -0.0265 7.72440731681e-06
0.0055 -0.0255 7.74433700209e-06
0.0055 -0.0245 7.69507622731e-06
0.0055 -0.0235 7.62991308274e-06
0.0055 -0.0225 7.59003664688e-06
0.0055 -0.0215 7.59794876714e-06
0.0055 -0.0205 7.66320018025e-06
0.0055 -0.0195 7.78612293262e-06
0.0055 -0.0185 7.96763470346e-06
0.0055 -0.0175 8.24138459733e-06
0.0055 -0.0165 8.76936639407e-06
0.0055 -0.0155 1.00988427438e-05
0.0055 -0.0145 1.36801462895e-05
0.0055 -0.0135 2.33831298517e-05
0.0055 -0.0125 5.08404827923e-05
0.0055 -0.0115 0.000147116632163
0.0055 -0.0105 0.000447082534277
0.0055 -0.0095 0.0013416828941
0.0055 -0.0085 0.00425246342422
0.0055 -0.0075 0.0116485058556
0.0055 -0.0065 0.0234058972316
0.0055 -0.0055 0.0348246318569
0.0055 -0.0045 0.0399891377312
0.0055 -0.0035 0.0357228298056
0.0055 -0.0025 0.0226829339874
0.0055 -0.0015 0.00744369173595
0.0055 -0.0005 0.00110563758138
0.0055 0.0005 0.0021046187828
0.0055 0.0015 0.00099547823146
0.0055 0.0025 0.000316659920453
0.0055 0.0035 0.000101851877289
0.0055 0.0045 4.25098298086e-05
0.0055 0.0055 2.47289432146e-05
0.0055 0.0065 1.56887057479e-05
0.0055 0.0075 1.08183113757e-05
0.0055 0.0085 8.4572675603e-06
0.0055 0.0095 7.45048415865e-06
0.0055 0.0105 6.99116856515e-06
0.0055 0.0115 6.66633672557e-06
0.0055 0.0125 6.33027297532e-06
0.0055 0.0135 5.96862360179e-06
0.0055 0.0145 5.61338844502e-06
0.0055 0.0155 5.30066665325e-06
0.0055 0.0165 5.05519166305e-06
0.0055 0.0175 4.88798921042e-06
0.0055 0.0185 4.79915956819e-06
0.0055 0.0195 4.78149222476e-06
0.0055 0.0205 4.8232335808e-06
0.0055 0.0215 4.90985199786e-06
0.0055 0.0225 5.02494497748e-06
0.0055 0.0235 5.1499940863e-06
0.0055 0.0245 5.26302012383e-06
0.0055 0.0255 5.33421140375e-06
0.0055 0.0265 5.32671194991e-06
0.0055 0.0275 5.18490660084e-06
0.0055 0.0285 4.91624793022e-06
0.0055 0.0295 4.39796909605e-06
0.0055 0.0305 4.37818551401e-06
0.0055 0.0315 2.41756188528e-06
0.0065 -0.0315 4.7544598586e-06
0.0065 -0.0305 7.812287049e-06
0.0065 -0.0295 6.6601690838e-06
0.0065 -0.0285 7.1333385125e-06
0.0065 -0.0275 7.44327673188e-06
0.0065 -0.0265 7.71148498419e-06
0.0065 -0.0255 7.83067266758e-06
0.0065 -0.0245 7.85358192274e-06
0.0065 -0.0235 7.83012567638e-06
0.0065 -0.0225 7.81194410086e-06
0.0065 -0.0215 7.83542555063e-06
0.0065 -0.0205 7.92334957088e-06
0.0065 -0.0195 8.08769254492e-06
0.0065 -0.0185 8.33964351584e-06
0.0065 -0.0175 8.72006546168e-06
0.0065 -0.0165 9.38902021008e-06
0.0065 -0.0155 1.08652841315e-05
0.0065 -0.0145 1.45522656328e-05
0.0065 -0.0135 2.38278676591e-05
0.0065 -0.0125 4.71517082956e-05
0.0065 -0.0115 0.000107731868429
0.0065 -0.0105 0.000286602741138
0.0065 -0.0095 0.000861764985323
0.0065 -0.0085 0.00276309058141
0.0065 -0.0075 0.00830594297113
0.0065 -0.0065 0.0186432176923
0.0065 -0.0055 0.0306728611544
0.0065 -0.0045 0.0381547865982
0.0065 -0.0035 0.0375575492273
0.0065 -0.0025 0.0286330081216
0.0065 -0.0015 0.014356231315
0.0065 -0.0005 0.00258001667384
0.0065 0.0005 0.00193045860053
0.0065 0.0015 0.00151026050608
0.0065 0.0025 0.000565190077421
0.0065 0.0035 0.000164058027034
0.0065 0.0045 6.8545263449e-05
0.0065 0.0055 4.07882224624e-05
0.0065 0.0065 2.52411810834e-05
0.0065 0.0075 1.59284111917e-05
0.0065 0.0085 1.13058374588e-05
0.0065 0.0095 9.2735197997e-06
0.0065 0.0105 8.27669827855e-06
0.0065 0.0115 7.58987109519e-06
0.0065 0.0125 6.97450336921e-06
0.0065 0.0135 6.40037448926e-06
0.0065 0.0145 5.89681314715e-06
0.0065 0.0155 5.49379675461e-06
0.0065 0.0165 5.20557914302e-06
0.0065 0.0175 5.03105620135e-06
0.0065 0.0185 4.95852918747e-06
0.0065 0.0195 4.9699223717e-06
0.0065 0.0205 5.0436668108e-06
0.0065 0.0215 5.15641918829e-06
0.0065 0.0225 5.28383156922e-06
0.0065 0.0235 5.40025152696e-06
0.0065 0.0245 5.47786973347e-06
0.0065 0.0255 5.48442025343e-06
0.0065 0.0265 5.38986026088e-06
0.0065 0.0275 5.16027544739e-06
0.0065 0.0285 4.8406412927e-06
0.0065 0.0295 4.32856841476e-06
0.0065 0.0305 4.45450433258e-06
0.0065 0.0315 2.51752172952e-06
0.0075 -0.0315 4.91513970807e-06
0.0075 -0.0305 7.94796458187e-06
0.0075 -0.0295 6.5615964855e-06
0.0075 -0.0285 6.98257448774e-06
0.0075 -0.0275 7.29627840302e-06
0.0075 -0.0265 7.61905422829e-06
0.0075 -0.0255 7.81052660899e-06
0.0075 -0.0245 7.89779524752e-06
0.0075 -0.0235 7.91661131587e-06
0.0075 -0.0225 7.91949319462e-06
0.0075 -0.0215 7.95288410825e-06
0.0075 -0.0205 8.05331410389e-06
0.0075 -0.0195 8.24757371939e-06
0.0075 -0.0185 8.56342221737e-06
0.0075 -0.0175 9.06253509545e-06
0.0075 -0.0165 9.93070896862e-06
0.0075 -0.0155 1.16920774919e-05
0.0075 -0.0145 1.5711483819e-05
0.0075 -0.0135 2.50638874229e-05
0.0075 -0.0125 4.57682585015e-05
0.0075 -0.0115 8.92926103292e-05
0.0075 -0.0105 0.000213309218335
0.0075 -0.0095 0.000578317345062
0.0075 -0.0085 0.001754973448
0.0075 -0.0075 0.00566398515128
0.0075 -0.0065 0.0141617660045
0.0075 -0.0055 0.0259134329853
0.0075 -0.0045 0.0350751654057
0.0075 -0.0035 0.0373446641554
0.0075 -0.0025 0.0324515029225
0.0075 -0.0015 0.0212837673108
0.0075 -0.0005 0.00848714077568
0.0075 0.0005 0.000885740998286
0.0075 0.0015 0.00171180709015
0.0075 0.0025 0.000935506571553
0.0075 0.0035 0.000280013754976
0.0075 0.0045 0.000132825321472
0.0075 0.0055 8.70599124054e-05
0.0075 0.0065 4.63006552941e-05
0.0075 0.0075 2.51877118774e-05
0.0075 0.0085 1.59304924135e-05
0.0075 0.0095 1.18426449526e-05
0.0075 0.0105 9.80978682512e-06
0.0075 0.0115 8.51219446046e-06
0.0075 0.0125 7.50940229352e-06
0.0075 0.0135 6.69411106998e-06
0.0075 0.0145 6.05451920339e-06
0.0075 0.0155 5.58995938481e-06
0.0075 0.0165 5.29026738697e-06
0.0075 0.0175 5.13553968691e-06
0.0075 0.0185 5.09919830765e-06
0.0075 0.0195 5.15094704255e-06
0.0075 0.0205 5.2589688338e-06
0.0075 0.0215 5.39136291324e-06
0.0075 0.0225 5.51708725291e-06
0.0075 0.0235 5.60627409268e-06
0.0075 0.0245 5.63072887253e-06
0.0075 0.0255 5.5640678503e-06
0.0075 0.0265 5.39110583735e-06
0.0075 0.0275 5.09873454111e-06
0.0075 0.0285 4.75586815966e-06
0.0075 0.0295 4.26602021323e-06
0.0075 0.0305 4.52703391597e-06
0.0075 0.0315 2.60700155516e-06
0.0085 -0.0315 5.06361292932e-06
0.0085 -0.0305 8.08479609824e-06
0.0085 -0.0295 6.49034393794e-06
0.0085 -0.0285 6.8529933814e-06
0.0085 -0.0275 7.14777700474e-06
0.0085 -0.0265 7.49294951297e-06
0.0085 -0.0255 7.72732412251e-06
0.0085 -0.0245 7.85949185462e-06
0.0085 -0.0235 7.90911013777e-06
0.0085 -0.0225 7.92308873055e-06
0.0085 -0.0215 7.95366594233e-06
0.0085 -0.0205 8.05181267758e-06
0.0085 -0.0195 8.2648360357e-06
0.0085 -0.0185 8.64887456763e-06
0.0085 -0.0175 9.30956597705e-06
0.0085 -0.0165 1.05025846574e-05
0.0085 -0.0155 1.28524965356e-05
0.0085 -0.0145 1.78132881539e-05
0.0085 -0.0135 2.85008431175e-05
0.0085 -0.0125 5.18807601889e-05
0.0085 -0.0115 0.000105597403261
0.0085 -0.0105 0.000249856689585
0.0085 -0.0095 0.000531853821487
0.0085 -0.0085 0.00121568294219
0.0085 -0.0075 0.00380571444155
0.0085 -0.0065 0.0103715476706
0.0085 -0.0055 0.0209373042952
0.0085 -0.0045 0.0308573066186
0.0085 -0.0035 0.0352542109529
0.0085 -0.0025 0.03367177589
0.0085 -0.0015 0.0265988849364
0.0085 -0.0005 0.0157975991831
0.0085 0.0005 0.00588014789401
0.0085 0.0015 0.00133694886819
0.0085 0.0025 0.00114911955099
0.0085 0.0035 0.000477465687338
0.0085 0.0045 0.000290215860026
0.0085 0.0055 0.000187058484579
0.0085 0.0065 8.49716794245e-05
0.0085 0.0075 4.08042193582e-05
0.0085 0.0085 2.32563396728e-05
0.0085 0.0095 1.55739296454e-05
0.0085 0.0105 1.17568714936e-05
0.0085 0.0115 9.48821564594e-06
0.0085 0.0125 7.94785757205e-06
0.0085 0.0135 6.85461219636e-06
0.0085 0.0145 6.09456215435e-06
0.0085 0.0155 5.60168065677e-06
0.0085 0.0165 5.32528282336e-06
0.0085 0.0175 5.21905954303e-06
0.0085 0.0185 5.23819656646e-06
0.0085 0.0195 5.33910204143e-06
0.0085 0.0205 5.47986849932e-06
0.0085 0.0215 5.6214553695e-06
0.0085 0.0225 5.72923966874e-06
0.0085 0.0235 5.77417835918e-06
0.0085 0.0245 5.73418184287e-06
0.0085 0.0255 5.5945201141e-06
0.0085 0.0265 5.35576317442e-06
0.0085 0.0275 5.01964340899e-06
0.0085 0.0285 4.67024656564e-06
0.0085 0.0295 4.21007178469e-06
0.0085 0.0305 4.59814668066e-06
0.0085 0.0315 2.69069198584e-06
0.0095 -0.0315 5.20192155133e-06
0.0095 -0.0305 8.22125820955e-06
0.0095 -0.0295 6.44238238224e-06
0.0095 -0.0285 6.74840752629e-06
0.0095 -0.0275 7.01518541198e-06
0.0095 -0.0265 7.36555379597e-06
0.0095 -0.0255 7.62321489609e-06
0.0095 -0.0245 7.78328776191e-06
0.0095 -0.0235 7.85040019841e-06
0.0095 -0.0225 7.86270159741e-06
0.0095 -0.0215 7.87540367273e-06
0.0095 -0.0205 7.95666399293e-06
0.0095 -0.0195 8.18564112781e-06
0.0095 -0.0185 8.66995373768e-06
0.0095 -0.0175 9.60346615858e-06
0.0095 -0.0165 1.14071494672e-05
0.0095 -0.0155 1.5021396125e-05
0.0095 -0.0145 2.25747733103e-05
0.0095 -0.0135 3.8253826742e-05
0.0095 -0.0125 7.18797519119e-05
0.0095 -0.0115 0.000153822338136
0.0095 -0.0105 0.0003964475395
0.0095 -0.0095 0.000828589113392
0.0095 -0.0085 0.00143038554867
0.0095 -0.0075 0.00310562675962
0.0095 -0.0065 0.00776866756102
0.0095 -0.0055 0.0162348586759
0.0095 -0.0045 0.0256234970979
0.0095 -0.0035 0.0313582085908
0.0095 -0.0025 0.0322977835677
0.0095 -0.0015 0.0291455156318
0.0095 -0.0005 0.0222835433565
0.0095 0.0005 0.0135566332531
0.0095 0.0015 0.00613989463272
0.0095 0.0025 0.00229431696014
0.0095 0.0035 0.00104400754869
0.0095 0.0045 0.0006610502143
0.0095 0.0055 0.000371227015941
0.0095 0.0065 0.00014709186534
0.0095 0.0075 6.71876980251e-05
0.0095 0.0085 3.59148559247e-05
0.0095 0.0095 2.19062356133e-05
0.0095 0.0105 1.48527582134e-05
0.0095 0.0115 1.08776291924e-05
0.0095 0.0125 8.4758813098e-06
0.0095 0.0135 6.99120080575e-06
0.0095 0.0145 6.08852637446e-06
0.0095 0.0155 5.58298826275e-06
0.0095 0.0165 5.35560810208e-06
0.0095 0.0175 5.32024878458e-06
0.0095 0.0185 5.40833667325e-06
0.0095 0.0195 5.56086515213e-06
0.0095 0.0205 5.72607479974e-06
0.0095 0.0215 5.86053117383e-06
0.0095 0.0225 5.931058528e-06
0.0095 0.0235 5.91561930403e-06
0.0095 0.0245 5.80352286114e-06
0.0095 0.0255 5.59362516057e-06
0.0095 0.0265 5.29965880554e-06
0.0095 0.0275 4.93286208068e-06
0.0095 0.0285 4.586906028e-06
0.0095 0.0295 4.15965362158e-06
0.0095 0.0305 4.66260718705e-06
0.0095 0.0315 2.76468925897e-06
0.0105 -0.0315 5.33385925769e-06
0.0105 -0.0305 8.35804336785e-06
0.0105 -0.0295 6.41185468595e-06
0.0105 -0.0285 6.66535968528e-06
0.0105 -0.0275 6.90184750363e-06
0.0105 -0.0265 7.25026208506e-06
0.0105 -0.0255 7.52249827219e-06
0.0105 -0.0245 7.70314714176e-06
0.0105 -0.0235 7.78255006439e-06
0.0105 -0.0225 7.78769919944e-06
0.0105 -0.0215 7.77434061317e-06
0.0105 -0.0205 7.8324475743e-06
0.0105 -0.0195 8.09264708517e-06
0.0105 -0.0185 8.75709344451e-06
0.0105 -0.0175 1.01971060983e-05
0.0105 -0.0165 1.3195986131e-05
0.0105 -0.0155 1.95188884963e-05
0.0105 -0.0145 3.31832137453e-05
0.0105 -0.0135 6.39049637533e-05
0.0105 -0.0125 0.000130692938831
0.0105 -0.0115 0.000275785707047
0.0105 -0.0105 0.000741405780091
0.0105 -0.0095 0.00176099357297
0.0105 -0.0085 0.00319609716397
0.0105 -0.0075 0.00506995712221
0.0105 -0.0065 0.00779045092963
0.0105 -0.0055 0.0126433957354
0.0105 -0.0045 0.0195996435636
0.0105 -0.0035 0.0255307803494
0.0105 -0.0025 0.0284749800219
0.0105 -0.0015 0.0286421700838
0.0105 -0.0005 0.0261398457302
0.0105 0.0005 0.0210316954688
0.0105 0.0015 0.0142617303609
0.0105 0.0025 0.00782610581154
0.0105 0.0035 0.00357861400359
0.0105 0.0045 0.00163447396401
0.0105 0.0055 0.000733821117145
0.0105 0.0065 0.00026919329369
0.0105 0.0075 0.000122475045553
0.0105 0.0085 6.23204145713e-05
0.0105 0.0095 3.51144332508e-05
0.0105 0.0105 2.10851618738e-05
0.0105 0.0115 1.36186352633e-05
0.0105 0.0125 9.57495033375e-06
0.0105 0.0135 7.35345254486e-06
0.0105 0.0145 6.18044708093e-06
0.0105 0.0155 5.62805154769e-06
0.0105 0.0165 5.44805738858e-06
0.0105 0.0175 5.48945911882e-06
0.0105 0.0185 5.64769233293e-06
0.0105 0.0195 5.84293460198e-06
0.0105 0.0205 6.01372501893e-06
0.0105 0.0215 6.11676818e-06
0.0105 0.0225 6.1269916316e-06
0.0105 0.0235 6.03529102711e-06
0.0105 0.0245 5.84527627999e-06
0.0105 0.0255 5.568468553e-06
0.0105 0.0265 5.22810844879e-06
0.0105 0.0275 4.84045954049e-06
0.0105 0.0285 4.50479529434e-06
0.0105 0.0295 4.1118741258e-06
0.0105 0.0305 4.72247202911e-06
0.0105 0.0315 2.83298885173e-06
0.0115 -0.0315 5.46026380087e-06
0.0115 -0.0305 8.49416553759e-06
0.0115 -0.0295 6.39434253276e-06
0.0115 -0.0285 6.5991236066e-06
0.0115 -0.0275 6.80529625044e-06
0.0115 -0.0265 7.1493550453e-06
0.0115 -0.0255 7.43453862142e-06
0.0115 -0.0245 7.63803895081e-06
0.0115 -0.0235 7.73733694719e-06
0.0115 -0.0225 7.74651359014e-06
0.0115 -0.0215 7.71882495747e-06
0.0115 -0.0205 7.77088261677e-06
0.0115 -0.0195 8.11331851979e-06
0.0115 -0.0185 9.11977181861e-06
0.0115 -0.0175 1.15034957236e-05
0.0115 -0.0165 1.68286209004e-05
0.0115 -0.0155 2.86006071104e-05
0.0115 -0.0145 5.64625177047e-05
0.0115 -0.0135 0.000124885987484
0.0115 -0.0125 0.000325881183564
0.0115 -0.0115 0.000744305739367
0.0115 -0.0105 0.00189568208049
0.0115 -0.0095 0.00440716228443
0.0115 -0.0085 0.00753208265236
0.0115 -0.0075 0.0101758997578
0.0115 -0.0065 0.0115615774114
0.0115 -0.0055 0.011948838451
0.0115 -0.0045 0.0138385019403
0.0115 -0.0035 0.0179976578205
0.0115 -0.0025 0.0222153655334
0.0115 -0.0015 0.0253379469436
0.0115 -0.0005 0.0267419912342
0.0115 0.0005 0.0258623438622
0.0115 0.0015 0.0222115582964
0.0115 0.0025 0.0162182746868
0.0115 0.0035 0.00962392295985
0.0115 0.0045 0.00455625138918
0.0115 0.0055 0.00179464855633
0.0115 0.0065 0.00065296543242
0.0115 0.0075 0.000267319716274
0.0115 0.0085 0.000131726360131
0.0115 0.0095 6.63172436492e-05
0.0115 0.0105 3.48080710791e-05
0.0115 0.0115 1.98626680365e-05
0.0115 0.0125 1.22001571009e-05
0.0115 0.0135 8.40781391217e-06
0.0115 0.0145 6.63119443462e-06
0.0115 0.0155 5.88907349826e-06
0.0115 0.0165 5.69864558277e-06
0.0115 0.0175 5.79099932226e-06
0.0115 0.0185 5.99782213748e-06
0.0115 0.0195 6.20770500795e-06
0.0115 0.0205 6.35000989481e-06
0.0115 0.0215 6.38806026407e-06
0.0115 0.0225 6.31190490576e-06
0.0115 0.0235 6.12932088239e-06
0.0115 0.0245 5.8581191167e-06
0.0115 0.0255 5.51936926852e-06
0.0115 0.0265 5.1415291693e-06
0.0115 0.0275 4.74189436327e-06
0.0115 0.0285 4.42236075654e-06
0.0115 0.0295 4.06527854464e-06
0.0115 0.0305 4.77752568417e-06
0.0115 0.0315 2.89606815622e-06
0.0125 -0.0315 5.58257087179e-06
0.0125 -0.0305 8.62981333776e-06
0.0125 -0.0295 6.38684032023e-06
0.0125 -0.0285 6.54602544453e-06
0.0125 -0.0275 6.72173033993e-06
0.0125 -0.0265 7.05962763591e-06
0.0125 -0.0255 7.35797617249e-06
0.0125 -0.0245 7.59128036115e-06
0.0125 -0.0235 7.72844115743e-06
0.0125 -0.0225 7.77258702661e-06
0.0125 -0.0215 7.77433581769e-06
0.0125 -0.0205 7.88381102492e-06
0.0125 -0.0195 8.43377430512e-06
0.0125 -0.0185 1.00883711389e-05
0.0125 -0.0175 1.42290005041e-05
0.0125 -0.0165 2.39058121569e-05
0.0125 -0.0155 4.72619821766e-05
0.0125 -0.0145 0.000106872496274
0.0125 -0.0135 0.00029238256286
0.0125 -0.0125 0.00081958248729
0.0125 -0.0115 0.0020588498674
0.0125 -0.0105 0.00497373528724
0.0125 -0.0095 0.00943588614823
0.0125 -0.0085 0.0131485285638
0.0125 -0.0075 0.0148826579007
0.0125 -0.0065 0.0147283978311
0.0125 -0.0055 0.0128143225157
0.0125 -0.0045 0.0102671399709
0.0125 -0.0035 0.0102699959888
0.0125 -0.0025 0.0140273078495
0.0125 -0.0015 0.0191522948028
0.0125 -0.0005 0.0238077311785
0.0125 0.0005 0.0267703461161
0.0125 0.0015 0.0271049745369
0.0125 0.0025 0.024230352983
0.0125 0.0035 0.0183676886929
0.0125 0.0045 0.0110156080452
0.0125 0.0055 0.00494171480755
0.0125 0.0065 0.0018471379702
0.0125 0.0075 0.000776892231958
0.0125 0.0085 0.000341308873157
0.0125 0.0095 0.000141731398948
0.0125 0.0105 6.95121713393e-05
0.0125 0.0115 3.41564211373e-05
0.0125 0.0125 1.8127940657e-05
0.0125 0.0135 1.10762979354e-05
0.0125 0.0145 7.90304821571e-06
0.0125 0.0155 6.61094073414e-06
0.0125 0.0165 6.24849165224e-06
0.0125 0.0175 6.30563671326e-06
0.0125 0.0185 6.49799248263e-06
0.0125 0.0195 6.66470773914e-06
0.0125 0.0205 6.72596780357e-06
0.0125 0.0215 6.65787247901e-06
0.0125 0.0225 6.46986340975e-06
0.0125 0.0235 6.18640179194e-06
0.0125 0.0245 5.83578921639e-06
0.0125 0.0255 5.4435751763e-06
0.0125 0.0265 5.03878423231e-06
0.0125 0.0275 4.63636985275e-06
0.0125 0.0285 4.33871922392e-06
0.0125 0.0295 4.01916855703e-06
0.0125 0.0305 4.82692859596e-06
0.0125 0.0315 2.9534752941e-06
0.0135 -0.0315 5.70103189373e-06
0.0135 -0.0305 8.76477307193e-06
0.0135 -0.0295 6.38823011529e-06
0.0135 -0.0285 6.50491836556e-06
0.0135 -0.0275 6.64961536774e-06
0.0135 -0.0265 6.97810138255e-06
0.0135 -0.0255 7.2873374949e-06
0.0135 -0.0245 7.55532755705e-06
0.0135 -0.0235 7.75044777868e-06
0.0135 -0.0225 7.87362474869e-06
0.0135 -0.0215 7.98271930152e-06
0.0135 -0.0205 8.28168051338e-06
0.0135 -0.0195 9.29511270394e-06
0.0135 -0.0185 1.2210478944e-05
0.0135 -0.0175 1.95936898487e-05
0.0135 -0.0165 3.80976909912e-05
0.0135 -0.0155 8.65440258437e-05
0.0135 -0.0145 0.000239077221267
0.0135 -0.0135 0.000705714830391
0.0135 -0.0125 0.00193153366153
0.0135 -0.0115 0.00489418328444
0.0135 -0.0105 0.00989291510132
0.0135 -0.0095 0.0144404683661
0.0135 -0.0085 0.015718753554
0.0135 -0.0075 0.0141532078311
0.0135 -0.0065 0.0116371077672
0.0135 -0.0055 0.00899523257472
0.0135 -0.0045 0.00650523352619
0.0135 -0.0035 0.00482718983045
0.0135 -0.0025 0.00629449661356
0.0135 -0.0015 0.0108492198506
0.0135 -0.0005 0.01659907029
0.0135 0.0005 0.0221840976162
0.0135 0.0015 0.0264338270242
0.0135 0.0025 0.0281336073223
0.0135 0.0035 0.0261237542661
0.0135 0.0045 0.019952598437
0.0135 0.0055 0.0115885302803
0.0135 0.0065 0.0050725053142
0.0135 0.0075 0.00203834852573
0.0135 0.0085 0.000891913101502
0.0135 0.0095 0.000380571790225
0.0135 0.0105 0.000165756186135
0.0135 0.0115 6.69576586919e-05
0.0135 0.0125 3.21856733718e-05
0.0135 0.0135 1.72382818605e-05
0.0135 0.0145 1.081310915e-05
0.0135 0.0155 8.21671762283e-06
0.0135 0.0165 7.31582985104e-06
0.0135 0.0175 7.13006876157e-06
0.0135 0.0185 7.17447624671e-06
0.0135 0.0195 7.20121512854e-06
0.0135 0.0205 7.11246884553e-06
0.0135 0.0215 6.89609347393e-06
0.0135 0.0225 6.57784251557e-06
0.0135 0.0235 6.19253795449e-06
0.0135 0.0245 5.77162156835e-06
0.0135 0.0255 5.33887001532e-06
0.0135 0.0265 4.91961085684e-06
0.0135 0.0275 4.52408138339e-06
0.0135 0.0285 4.25391153139e-06
0.0135 0.0295 3.97374934104e-06
0.0135 0.0305 4.87234380853e-06
0.0135 0.0315 3.00676595937e-06
0.0145 -0.0315 5.81492300401e-06
0.0145 -0.0305 8.89800741166e-06
0.0145 -0.0295 6.39837417015e-06
0.0145 -0.0285 6.47721057804e-06
0.0145 -0.0275 6.59135836469e-06
0.0145 -0.0265 6.90621859904e-06
0.0145 -0.0255 7.21987559299e-06
0.0145 -0.0245 7.5199802252e-06
0.0145 -0.0235 7.78517472036e-06
0.0145 -0.0225 8.02988094145e-06
0.0145 -0.0215 8.34329152617e-06
0.0145 -0.0205 9.03088310612e-06
0.0145 -0.0195 1.09387166641e-05
0.0145 -0.0185 1.62184748338e-05
0.0145 -0.0175 3.03557737474e-05
0.0145 -0.0165 6.81787299493e-05
0.0145 -0.0155 0.000186621002895
0.0145 -0.0145 0.000559284334089
0.0145 -0.0135 0.00157590193513
0.0145 -0.0125 0.00422858769602
0.0145 -0.0115 0.00919192776303
0.0145 -0.0105 0.0143480997232
0.0145 -0.0095 0.0159905046356
0.0145 -0.0085 0.0132568281678
0.0145 -0.0075 0.00885237654313
0.0145 -0.0065 0.00537558239954
0.0145 -0.0055 0.00325329423115