% Model:              Benchmark260518.mph
% Version:            COMSOL 6.2.0.339
% Date:               May 20 2026, 12:56
% Dimension:          2
% Nodes:              4096
% Expressions:        1
% Description:        速度大小
% Length unit:        m
% x                       y                        spf.U (m/s)
% mirrored_by_python_y_to_minus_y, coord_match_decimals=12
0.0005 -0.0315 2.93952432457e-06
0.0005 -0.0305 5.83022463019e-06
0.0005 -0.0295 6.49766034392e-06
0.0005 -0.0285 7.26922963234e-06
0.0005 -0.0275 7.72991398366e-06
0.0005 -0.0265 8.22581722138e-06
0.0005 -0.0255 8.76947463986e-06
0.0005 -0.0245 9.45587041691e-06
0.0005 -0.0235 1.06804690738e-05
0.0005 -0.0225 1.39123978629e-05
0.0005 -0.0215 2.39382277539e-05
0.0005 -0.0205 5.52044484642e-05
0.0005 -0.0195 0.000156181028748
0.0005 -0.0185 0.000320991144029
0.0005 -0.0175 0.000508607773667
0.0005 -0.0165 0.000787776125968
0.0005 -0.0155 0.00114946256247
0.0005 -0.0145 0.00137873873782
0.0005 -0.0135 0.00130325813013
0.0005 -0.0125 0.000965186601331
0.0005 -0.0115 0.000787907835002
0.0005 -0.0105 0.00148702682838
0.0005 -0.0095 0.0206302418328
0.0005 -0.0085 0.0425744798373
0.0005 -0.0075 0.0454758503108
0.0005 -0.0065 0.0249342559756
0.0005 -0.0055 0.00303937204028
0.0005 -0.0045 0.00258578634628
0.0005 -0.0035 0.00296049209107
0.0005 -0.0025 0.00317130987224
0.0005 -0.0015 0.00295232347113
0.0005 -0.0005 0.00220260697537
0.0005 0.0005 0.00121429124542
0.0005 0.0015 0.00134207829426
0.0005 0.0025 0.00255281739031
0.0005 0.0035 0.00379977988095
0.0005 0.0045 0.00480097330927
0.0005 0.0055 0.00539344151929
0.0005 0.0065 0.00549635536466
0.0005 0.0075 0.00510741252473
0.0005 0.0085 0.00430424041714
0.0005 0.0095 0.00324532141724
0.0005 0.0105 0.00214358144612
0.0005 0.0115 0.00122220496111
0.0005 0.0125 0.000644131305091
0.0005 0.0135 0.00042586268879
0.0005 0.0145 0.000368067760414
0.0005 0.0155 0.000281761927788
0.0005 0.0165 0.000146049827096
0.0005 0.0175 5.24968158524e-05
0.0005 0.0185 2.28720265493e-05
0.0005 0.0195 1.36119583137e-05
0.0005 0.0205 1.06899210724e-05
0.0005 0.0215 9.44849675622e-06
0.0005 0.0225 8.74346897418e-06
0.0005 0.0235 8.13200631988e-06
0.0005 0.0245 7.56026884715e-06
0.0005 0.0255 6.98999859242e-06
0.0005 0.0265 6.40290557332e-06
0.0005 0.0275 5.81728504902e-06
0.0005 0.0285 5.33152432941e-06
0.0005 0.0295 4.68510159456e-06
0.0005 0.0305 4.13859091698e-06
0.0005 0.0315 2.06273991238e-06
0.0015 -0.0315 5.68682974622e-06
0.0015 -0.0305 1.11020546629e-05
0.0015 -0.0295 1.17668137213e-05
0.0015 -0.0285 1.25169972953e-05
0.0015 -0.0275 1.28419910063e-05
0.0015 -0.0265 1.33092782147e-05
0.0015 -0.0255 1.39914948281e-05
0.0015 -0.0245 1.51570412595e-05
0.0015 -0.0235 1.77212542771e-05
0.0015 -0.0225 2.45337608181e-05
0.0015 -0.0215 4.32489587484e-05
0.0015 -0.0205 9.61871384177e-05
0.0015 -0.0195 0.000259682985754
0.0015 -0.0185 0.000566282737641
0.0015 -0.0175 0.00117964127451
0.0015 -0.0165 0.00239528301766
0.0015 -0.0155 0.00398507291012
0.0015 -0.0145 0.00536881905459
0.0015 -0.0135 0.00617938863072
0.0015 -0.0125 0.00624495809228
0.0015 -0.0115 0.00536795046145
0.0015 -0.0105 0.00653697677534
0.0015 -0.0095 0.0214233058741
0.0015 -0.0085 0.0380046149943
0.0015 -0.0075 0.0418373740871
0.0015 -0.0065 0.0293356249567
0.0015 -0.0055 0.00981192150509
0.0015 -0.0045 0.00218856235926
0.0015 -0.0035 0.00300327332947
0.0015 -0.0025 0.00265231988347
0.0015 -0.0015 0.00175727224092
0.0015 -0.0005 0.00258192160382
0.0015 0.0005 0.00514904600185
0.0015 0.0015 0.00791737130622
0.0015 0.0025 0.0103619242316
0.0015 0.0035 0.0123540701397
0.0015 0.0045 0.0138193568021
0.0015 0.0055 0.0146443939406
0.0015 0.0065 0.0147286457531
0.0015 0.0075 0.0140179860467
0.0015 0.0085 0.0125209366965
0.0015 0.0095 0.0103480668372
0.0015 0.0105 0.00774142223076
0.0015 0.0115 0.00509127556101
0.0015 0.0125 0.00285378522734
0.0015 0.0135 0.00142103992729
0.0015 0.0145 0.000781886331175
0.0015 0.0155 0.000486141340066
0.0015 0.0165 0.000248914662257
0.0015 0.0175 9.52631778576e-05
0.0015 0.0185 4.31704244994e-05
0.0015 0.0195 2.49075385626e-05
0.0015 0.0205 1.83381310183e-05
0.0015 0.0215 1.56973213961e-05
0.0015 0.0225 1.43468566313e-05
0.0015 0.0235 1.33033159105e-05
0.0015 0.0245 1.2340775151e-05
0.0015 0.0255 1.14143204209e-05
0.0015 0.0265 1.05481300528e-05
0.0015 0.0275 9.7912740163e-06
0.0015 0.0285 9.24820898916e-06
0.0015 0.0295 8.496502826e-06
0.0015 0.0305 7.90227474082e-06
0.0015 0.0315 4.01286289951e-06
0.0025 -0.0315 5.9742356617e-06
0.0025 -0.0305 1.12228001209e-05
0.0025 -0.0295 1.11766584423e-05
0.0025 -0.0285 1.13564035724e-05
0.0025 -0.0275 1.11234138162e-05
0.0025 -0.0265 1.10865816495e-05
0.0025 -0.0255 1.14683056882e-05
0.0025 -0.0245 1.27404941094e-05
0.0025 -0.0235 1.6165684669e-05
0.0025 -0.0225 2.50253331181e-05
0.0025 -0.0215 4.6278038155e-05
0.0025 -0.0205 9.55074151263e-05
0.0025 -0.0195 0.000246148068787
0.0025 -0.0185 0.000707411847347
0.0025 -0.0175 0.00208556062009
0.0025 -0.0165 0.00456864276829
0.0025 -0.0155 0.00726132798826
0.0025 -0.0145 0.00951389590134
0.0025 -0.0135 0.0115176703254
0.0025 -0.0125 0.0133370544043
0.0025 -0.0115 0.0140457533979
0.0025 -0.0105 0.0134238590341
0.0025 -0.0095 0.0188761910936
0.0025 -0.0085 0.030296435246
0.0025 -0.0075 0.0356992776911
0.0025 -0.0065 0.0307428007087
0.0025 -0.0055 0.0190503713717
0.0025 -0.0045 0.0101354779237
0.0025 -0.0035 0.00723418895345
0.0025 -0.0025 0.00806831243266
0.0025 -0.0015 0.0105177024002
0.0025 -0.0005 0.0134166755256
0.0025 0.0005 0.0159804869259
0.0025 0.0015 0.0178168450855
0.0025 0.0025 0.01889379259
0.0025 0.0035 0.0194210649065
0.0025 0.0045 0.0195938213156
0.0025 0.0055 0.0195245333028
0.0025 0.0065 0.0192374208569
0.0025 0.0075 0.0186603199399
0.0025 0.0085 0.0176491824248
0.0025 0.0095 0.016020813705
0.0025 0.0105 0.0136017113836
0.0025 0.0115 0.0103657950334
0.0025 0.0125 0.00668872257031
0.0025 0.0135 0.00342223586129
0.0025 0.0145 0.00140573165565
0.0025 0.0155 0.000568265992277
0.0025 0.0165 0.000247709841875
0.0025 0.0175 0.000105206251009
0.0025 0.0185 5.24932842428e-05
0.0025 0.0195 2.93323843623e-05
0.0025 0.0205 1.97057313582e-05
0.0025 0.0215 1.57998789739e-05
0.0025 0.0225 1.38788789951e-05
0.0025 0.0235 1.25052050103e-05
0.0025 0.0245 1.12622573305e-05
0.0025 0.0255 1.01690144103e-05
0.0025 0.0265 9.34170042459e-06
0.0025 0.0275 8.81357903681e-06
0.0025 0.0285 8.54801917162e-06
0.0025 0.0295 8.09832120785e-06
0.0025 0.0305 8.05998139456e-06
0.0025 0.0315 4.28612259611e-06
0.0035 -0.0315 6.54635479958e-06
0.0035 -0.0305 1.19031515117e-05
0.0035 -0.0295 1.17090151556e-05
0.0035 -0.0285 1.22434933163e-05
0.0035 -0.0275 1.22881263101e-05
0.0035 -0.0265 1.25770036576e-05
0.0035 -0.0255 1.35169061683e-05
0.0035 -0.0245 1.58325574049e-05
0.0035 -0.0235 2.12310119261e-05
0.0035 -0.0225 3.41897313213e-05
0.0035 -0.0215 6.69458420276e-05
0.0035 -0.0205 0.000153888596073
0.0035 -0.0195 0.000394774541689
0.0035 -0.0185 0.00123435644575
0.0035 -0.0175 0.00362402868665
0.0035 -0.0165 0.00703428968262
0.0035 -0.0155 0.00947728099365
0.0035 -0.0145 0.0106074877879
0.0035 -0.0135 0.0116134068332
0.0035 -0.0125 0.0132717390784
0.0035 -0.0115 0.0148806368132
0.0035 -0.0105 0.0145453713374
0.0035 -0.0095 0.0140225956415
0.0035 -0.0085 0.0203383679551
0.0035 -0.0075 0.0274467809051
0.0035 -0.0065 0.0289232180855
0.0035 -0.0055 0.0258678930235
0.0035 -0.0045 0.0223265565176
0.0035 -0.0035 0.0206351061217
0.0035 -0.0025 0.0208639814122
0.0035 -0.0015 0.0218999416518
0.0035 -0.0005 0.022816931028
0.0035 0.0005 0.0231226192971
0.0035 0.0015 0.0227002461745
0.0035 0.0025 0.0217377889155
0.0035 0.0035 0.0205458502327
0.0035 0.0045 0.0194338222536
0.0035 0.0055 0.0186535566836
0.0035 0.0065 0.0182853810224
0.0035 0.0075 0.0182142308997
0.0035 0.0085 0.0181683834458
0.0035 0.0095 0.0177884064475
0.0035 0.0105 0.0167093690498
0.0035 0.0115 0.014524478606
0.0035 0.0125 0.0109999857011
0.0035 0.0135 0.00668607973088
0.0035 0.0145 0.00304195613715
0.0035 0.0155 0.00110051844011
0.0035 0.0165 0.000422100739714
0.0035 0.0175 0.000185648071967
0.0035 0.0185 8.73797411964e-05
0.0035 0.0195 4.88239876246e-05
0.0035 0.0205 3.33768771539e-05
0.0035 0.0215 2.63385179192e-05
0.0035 0.0225 2.21891400693e-05
0.0035 0.0235 1.87472076094e-05
0.0035 0.0245 1.56044960426e-05
0.0035 0.0255 1.29859462098e-05
0.0035 0.0265 1.11213852218e-05
0.0035 0.0275 9.93847432263e-06
0.0035 0.0285 9.23074676017e-06
0.0035 0.0295 8.40238318703e-06
0.0035 0.0305 8.56124119508e-06
0.0035 0.0315 4.75015194598e-06
0.0045 -0.0315 7.08593130693e-06
0.0045 -0.0305 1.2563171981e-05
0.0045 -0.0295 1.21536733123e-05
0.0045 -0.0285 1.30650782374e-05
0.0045 -0.0275 1.3742112312e-05
0.0045 -0.0265 1.49970555335e-05
0.0045 -0.0255 1.74718165368e-05
0.0045 -0.0245 2.21832340849e-05
0.0045 -0.0235 3.14036863711e-05
0.0045 -0.0225 5.13108508023e-05
0.0045 -0.0215 0.000102772098225
0.0045 -0.0205 0.000262596389072
0.0045 -0.0195 0.000666806001192
0.0045 -0.0185 0.00199842718008
0.0045 -0.0175 0.00527571867454
0.0045 -0.0165 0.00895458188005
0.0045 -0.0155 0.0102403382042
0.0045 -0.0145 0.00918548371389
0.0045 -0.0135 0.0078486464409
0.0045 -0.0125 0.00763040786749
0.0045 -0.0115 0.00820828513056
0.0045 -0.0105 0.00870246470523
0.0045 -0.0095 0.00815029379008
0.0045 -0.0085 0.0104529139427
0.0045 -0.0075 0.017792598122
0.0045 -0.0065 0.0235212414595
0.0045 -0.0055 0.0261478984484
0.0045 -0.0045 0.0270723196511
0.0045 -0.0035 0.0272642645778
0.0045 -0.0025 0.0269697606742
0.0045 -0.0015 0.0261045832713
0.0045 -0.0005 0.0245836880346
0.0045 0.0005 0.0224409368761
0.0045 0.0015 0.0198781124324
0.0045 0.0025 0.0172446743094
0.0045 0.0035 0.0149285136912
0.0045 0.0045 0.0132713457755
0.0045 0.0055 0.0124765907717
0.0045 0.0065 0.0125589544347
0.0045 0.0075 0.0134027647896
0.0045 0.0085 0.0147438268009
0.0045 0.0095 0.0161017521756
0.0045 0.0105 0.0168582416458
0.0045 0.0115 0.0164717751018
0.0045 0.0125 0.0143886972736
0.0045 0.0135 0.0103559821393
0.0045 0.0145 0.00554882013777
0.0045 0.0155 0.0021636908583
0.0045 0.0165 0.000792821066213
0.0045 0.0175 0.0003482146152
0.0045 0.0185 0.000163430662855
0.0045 0.0195 9.89020983807e-05
0.0045 0.0205 7.14887545838e-05
0.0045 0.0215 5.78963666007e-05
0.0045 0.0225 4.75077593497e-05
0.0045 0.0235 3.73066149511e-05
0.0045 0.0245 2.7836722736e-05
0.0045 0.0255 2.03430527164e-05
0.0045 0.0265 1.52415219485e-05
0.0045 0.0275 1.21327645132e-05
0.0045 0.0285 1.02962161226e-05
0.0045 0.0295 8.83069857423e-06
0.0045 0.0305 9.0915861685e-06
0.0045 0.0315 5.18290081229e-06
0.0055 -0.0315 7.71134105875e-06
0.0055 -0.0305 1.34878822523e-05
0.0055 -0.0295 1.29993433947e-05
0.0055 -0.0285 1.44897372849e-05
0.0055 -0.0275 1.63635373078e-05
0.0055 -0.0265 2.00374603731e-05
0.0055 -0.0255 2.69096114433e-05
0.0055 -0.0245 3.84014403042e-05
0.0055 -0.0235 5.73779431988e-05
0.0055 -0.0225 9.43821778871e-05
0.0055 -0.0215 0.000179105690436
0.0055 -0.0205 0.000439100641571
0.0055 -0.0195 0.00108559538417
0.0055 -0.0185 0.00291115679876
0.0055 -0.0175 0.00663295731615
0.0055 -0.0165 0.0100283331301
0.0055 -0.0155 0.0101458186567
0.0055 -0.0145 0.00746806956422
0.0055 -0.0135 0.00476190664489
0.0055 -0.0125 0.00368984817674
0.0055 -0.0115 0.00319306781961
0.0055 -0.0105 0.00298872892728
0.0055 -0.0095 0.00334993485478
0.0055 -0.0085 0.00409379523668
0.0055 -0.0075 0.00836509522465
0.0055 -0.0065 0.0142095926403
0.0055 -0.0055 0.0186982572949
0.0055 -0.0045 0.0212917839642
0.0055 -0.0035 0.0221741394768
0.0055 -0.0025 0.0215189090061
0.0055 -0.0015 0.0196267517329
0.0055 -0.0005 0.0169472451212
0.0055 0.0005 0.0139561180641
0.0055 0.0015 0.011054513899
0.0055 0.0025 0.00857424244761
0.0055 0.0035 0.00674508386798
0.0055 0.0045 0.0056492348234
0.0055 0.0055 0.00527301551097
0.0055 0.0065 0.00562196865168
0.0055 0.0075 0.00680964051736
0.0055 0.0085 0.00897074551498
0.0055 0.0095 0.0119012554213
0.0055 0.0105 0.0147617448509
0.0055 0.0115 0.0164703490996
0.0055 0.0125 0.0162715859422
0.0055 0.0135 0.0134745484811
0.0055 0.0145 0.00847091780305
0.0055 0.0155 0.00382633414844
0.0055 0.0165 0.00149584199732
0.0055 0.0175 0.000733615325614
0.0055 0.0185 0.000394871504446
0.0055 0.0195 0.000246059920274
0.0055 0.0205 0.000194560273216
0.0055 0.0215 0.000162311143348
0.0055 0.0225 0.000130816402783
0.0055 0.0235 9.79555547446e-05
0.0055 0.0245 6.55106844861e-05
0.0055 0.0255 4.00927935511e-05
0.0055 0.0265 2.52765940055e-05
0.0055 0.0275 1.73767654593e-05
0.0055 0.0285 1.29692108419e-05
0.0055 0.0295 1.01555041896e-05
0.0055 0.0305 1.01271853536e-05
0.0055 0.0315 5.79956764524e-06
0.0065 -0.0315 8.30751314475e-06
0.0065 -0.0305 1.4518347134e-05
0.0065 -0.0295 1.42079015763e-05
0.0065 -0.0285 1.6677619919e-05
0.0065 -0.0275 2.07469550702e-05
0.0065 -0.0265 2.97361478123e-05
0.0065 -0.0255 4.9481156729e-05
0.0065 -0.0245 8.55571620727e-05
0.0065 -0.0235 0.000137324755763
0.0065 -0.0225 0.000219941370372
0.0065 -0.0215 0.00043484656352
0.0065 -0.0205 0.000969731059986
0.0065 -0.0195 0.00196413249679
0.0065 -0.0185 0.00395523797977
0.0065 -0.0175 0.00740129439495
0.0065 -0.0165 0.0101748271199
0.0065 -0.0155 0.00959603613512
0.0065 -0.0145 0.00637601557523
0.0065 -0.0135 0.00348972574584
0.0065 -0.0125 0.00253346519593
0.0065 -0.0115 0.00221225218823
0.0065 -0.0105 0.00164007770882
0.0065 -0.0095 0.00150564944646
0.0065 -0.0085 0.00177655484622
0.0065 -0.0075 0.00268807141017
0.0065 -0.0065 0.00521322008107
0.0065 -0.0055 0.00798945448352
0.0065 -0.0045 0.00996032486589
0.0065 -0.0035 0.0107674042054
0.0065 -0.0025 0.0103466700881
0.0065 -0.0015 0.00887839074672
0.0065 -0.0005 0.00684153726785
0.0065 0.0005 0.00491536018766
0.0065 0.0015 0.00346898848053
0.0065 0.0025 0.00248802783839
0.0065 0.0035 0.00188625446726
0.0065 0.0045 0.00157351056762
0.0065 0.0055 0.00150316471981
0.0065 0.0065 0.00172034114219
0.0065 0.0075 0.00243037324239
0.0065 0.0085 0.00408293419211
0.0065 0.0095 0.00716357936435
0.0065 0.0105 0.0113293161504
0.0065 0.0115 0.0150379457433
0.0065 0.0125 0.0167214260611
0.0065 0.0135 0.0154352508044
0.0065 0.0145 0.0110921296967
0.0065 0.0155 0.00588795455279
0.0065 0.0165 0.00279633843524
0.0065 0.0175 0.00178633833655
0.0065 0.0185 0.00126900945751
0.0065 0.0195 0.000916978335559
0.0065 0.0205 0.000747674883375
0.0065 0.0215 0.00061575602878
0.0065 0.0225 0.000480497811208
0.0065 0.0235 0.000338654788876
0.0065 0.0245 0.000193783666194
0.0065 0.0255 9.35282352776e-05
0.0065 0.0265 5.04057273549e-05
0.0065 0.0275 2.97725525732e-05
0.0065 0.0285 1.94340310753e-05
0.0065 0.0295 1.35084040762e-05
0.0065 0.0305 1.22588308859e-05
0.0065 0.0315 6.82724067085e-06
0.0075 -0.0315 9.06216371718e-06
0.0075 -0.0305 1.58613047432e-05
0.0075 -0.0295 1.59185027286e-05
0.0075 -0.0285 2.00248584102e-05
0.0075 -0.0275 2.78053796371e-05
0.0075 -0.0265 4.63728166747e-05
0.0075 -0.0255 9.61533660213e-05
0.0075 -0.0245 0.000228014959197
0.0075 -0.0235 0.000440468565215
0.0075 -0.0225 0.000741183043842
0.0075 -0.0215 0.00141911610625
0.0075 -0.0205 0.00256562606279
0.0075 -0.0195 0.00373057415232
0.0075 -0.0185 0.00497282325705
0.0075 -0.0175 0.00724624769291
0.0075 -0.0165 0.00939077152013
0.0075 -0.0155 0.00888417267106
0.0075 -0.0145 0.00600837907726
0.0075 -0.0135 0.00326885464274
0.0075 -0.0125 0.00218171256956
0.0075 -0.0115 0.00187803548454
0.0075 -0.0105 0.00129548955455
0.0075 -0.0095 0.000853020831688
0.0075 -0.0085 0.000870678833567
0.0075 -0.0075 0.00104904396484
0.0075 -0.0065 0.00139100083419
0.0075 -0.0055 0.00200312114873
0.0075 -0.0045 0.00263977669633
0.0075 -0.0035 0.00305606837094
0.0075 -0.0025 0.00319854365523
0.0075 -0.0015 0.00293365813286
0.0075 -0.0005 0.0021662586099
0.0075 0.0005 0.00131503787744
0.0075 0.0015 0.00085172231762
0.0075 0.0025 0.000633303013159
0.0075 0.0035 0.000505120622253
0.0075 0.0045 0.000439178152301
0.0075 0.0055 0.000432463632003
0.0075 0.0065 0.000509354405251
0.0075 0.0075 0.00077910976203
0.0075 0.0085 0.00159231387591
0.0075 0.0095 0.00378346746112
0.0075 0.0105 0.00791291054102
0.0075 0.0115 0.0128024802635
0.0075 0.0125 0.0160453645967
0.0075 0.0135 0.0161133838646
0.0075 0.0145 0.0127049981808
0.0075 0.0155 0.00766908012564
0.0075 0.0165 0.0045918715079
0.0075 0.0175 0.00399970618797
0.0075 0.0185 0.00380049072289
0.0075 0.0195 0.00337745820569
0.0075 0.0205 0.00282518424322
0.0075 0.0215 0.0022216492723
0.0075 0.0225 0.0016275371041
0.0075 0.0235 0.00107679852058
0.0075 0.0245 0.0005947806608
0.0075 0.0255 0.000267222439543
0.0075 0.0265 0.000118659589741
0.0075 0.0275 6.17159145431e-05
0.0075 0.0285 3.55677043499e-05
0.0075 0.0295 2.20672483836e-05
0.0075 0.0305 1.72182858793e-05
0.0075 0.0315 8.91871988849e-06
0.0085 -0.0315 1.01478184342e-05
0.0085 -0.0305 1.78533395871e-05
0.0085 -0.0295 1.86587756845e-05
0.0085 -0.0285 2.55380605209e-05
0.0085 -0.0275 3.91314546133e-05
0.0085 -0.0265 7.24443352576e-05
0.0085 -0.0255 0.000168176034659
0.0085 -0.0245 0.000479305678888
0.0085 -0.0235 0.00110639103123
0.0085 -0.0225 0.00217230372373
0.0085 -0.0215 0.00371422625544
0.0085 -0.0205 0.00503054524061
0.0085 -0.0195 0.00539795861114
0.0085 -0.0185 0.00515153446354
0.0085 -0.0175 0.00587477734674
0.0085 -0.0165 0.0078162846636
0.0085 -0.0155 0.00821424766516
0.0085 -0.0145 0.00626435221403
0.0085 -0.0135 0.00369511878974
0.0085 -0.0125 0.00212173394169
0.0085 -0.0115 0.00148406985962
0.0085 -0.0105 0.000954560703888
0.0085 -0.0095 0.000531813194837
0.0085 -0.0085 0.000417824246606
0.0085 -0.0075 0.000462184287439
0.0085 -0.0065 0.000532633057497
0.0085 -0.0055 0.000599322554042
0.0085 -0.0045 0.000695484395685
0.0085 -0.0035 0.000848271600379
0.0085 -0.0025 0.00125737524728
0.0085 -0.0015 0.00183059923978
0.0085 -0.0005 0.00165053290513
0.0085 0.0005 0.000806441702937
0.0085 0.0015 0.000357737350609
0.0085 0.0025 0.000239579981048
0.0085 0.0035 0.000182253781679
0.0085 0.0045 0.000155124304795
0.0085 0.0055 0.00015153482417
0.0085 0.0065 0.000181857790835
0.0085 0.0075 0.000317161444025
0.0085 0.0085 0.000723574437491
0.0085 0.0095 0.0020571648573
0.0085 0.0105 0.00545506366086
0.0085 0.0115 0.0105823755235
0.0085 0.0125 0.0147749226695
0.0085 0.0135 0.0157768647068
0.0085 0.0145 0.012988806013
0.0085 0.0155 0.00822054763439
0.0085 0.0165 0.00565003768896
0.0085 0.0175 0.00584246055732
0.0085 0.0185 0.00629125847109
0.0085 0.0195 0.00640480713289
0.0085 0.0205 0.00607493332165
0.0085 0.0215 0.00532426251457
0.0085 0.0225 0.00424543680422
0.0085 0.0235 0.00297187688747
0.0085 0.0245 0.00172866218018
0.0085 0.0255 0.000814958322014
0.0085 0.0265 0.000338948930975
0.0085 0.0275 0.000152412108751
0.0085 0.0285 8.20060752545e-05
0.0085 0.0295 4.47622522772e-05
0.0085 0.0305 3.00065232791e-05
0.0085 0.0315 1.45695280273e-05
0.0095 -0.0315 1.18877291062e-05
0.0095 -0.0305 2.13899890734e-05
0.0095 -0.0295 2.42092757723e-05
0.0095 -0.0285 3.64316159701e-05
0.0095 -0.0275 5.98677203855e-05
0.0095 -0.0265 0.000114358456983
0.0095 -0.0255 0.000268129811251
0.0095 -0.0245 0.000799751938724
0.0095 -0.0235 0.00213804778811
0.0095 -0.0225 0.00419038384838
0.0095 -0.0215 0.00569230915252
0.0095 -0.0205 0.0055836828883
0.0095 -0.0195 0.00453153916676
0.0095 -0.0185 0.00362282215514
0.0095 -0.0175 0.00370857016761
0.0095 -0.0165 0.00587063213629
0.0095 -0.0155 0.00761429296816
0.0095 -0.0145 0.00697089961441
0.0095 -0.0135 0.00469541764081
0.0095 -0.0125 0.00250732728247
0.0095 -0.0115 0.00132235450213
0.0095 -0.0105 0.000816607837033
0.0095 -0.0095 0.000461131922108
0.0095 -0.0085 0.000254523219656
0.0095 -0.0075 0.00019653523559
0.0095 -0.0065 0.000188143348005
0.0095 -0.0055 0.00019590770181
0.0095 -0.0045 0.000237742389185
0.0095 -0.0035 0.000353177156534
0.0095 -0.0025 0.000837080498731
0.0095 -0.0015 0.00177788514874
0.0095 -0.0005 0.00176962015667
0.0095 0.0005 0.000763052283717
0.0095 0.0015 0.000246163405456
0.0095 0.0025 0.000137208914633
0.0095 0.0035 9.15890674351e-05
0.0095 0.0045 7.14431840604e-05
0.0095 0.0055 6.52491462049e-05
0.0095 0.0065 7.98352610864e-05
0.0095 0.0075 0.000169331964516
0.0095 0.0085 0.000447105900706
0.0095 0.0095 0.00135829620061
0.0095 0.0105 0.00410785301419
0.0095 0.0115 0.00901331902896
0.0095 0.0125 0.0135727778374
0.0095 0.0135 0.014990421257
0.0095 0.0145 0.0122882982251
0.0095 0.0155 0.00727878311227
0.0095 0.0165 0.00465738279837
0.0095 0.0175 0.0046961944439
0.0095 0.0185 0.00493381021311
0.0095 0.0195 0.00553177912597
0.0095 0.0205 0.0062707381754
0.0095 0.0215 0.00668893825234
0.0095 0.0225 0.0065514127316
0.0095 0.0235 0.0056808127094
0.0095 0.0245 0.00409549069523
0.0095 0.0255 0.00232699839999
0.0095 0.0265 0.0010813313546
0.0095 0.0275 0.00049803432106
0.0095 0.0285 0.000239616047387
0.0095 0.0295 0.000107380555794
0.0095 0.0305 6.60819204538e-05
0.0095 0.0315 3.01238989111e-05
0.0105 -0.0315 1.51956882193e-05
0.0105 -0.0305 2.90032785602e-05
0.0105 -0.0295 3.75344476761e-05
0.0105 -0.0285 6.23597453117e-05
0.0105 -0.0275 0.000106331637059
0.0105 -0.0265 0.000202793032188
0.0105 -0.0255 0.000447267983083
0.0105 -0.0245 0.00132874276128
0.0105 -0.0235 0.00354142461069
0.0105 -0.0225 0.00569729435901
0.0105 -0.0215 0.00549019626119
0.0105 -0.0205 0.00360519403689
0.0105 -0.0195 0.00214871765447
0.0105 -0.0185 0.00174203320086
0.0105 -0.0175 0.00199504950297
0.0105 -0.0165 0.00402556258155
0.0105 -0.0155 0.00676319934791
0.0105 -0.0145 0.00763931484415
0.0105 -0.0135 0.00603227209184
0.0105 -0.0125 0.00339535921748
0.0105 -0.0115 0.00153102987212
0.0105 -0.0105 0.000784565151616
0.0105 -0.0095 0.00041659972454
0.0105 -0.0085 0.000184855041333
0.0105 -0.0075 0.00010535586967
0.0105 -0.0065 8.4727635377e-05
0.0105 -0.0055 8.9280757896e-05
0.0105 -0.0045 0.000124344532718
0.0105 -0.0035 0.000237222206648
0.0105 -0.0025 0.000723497134056
0.0105 -0.0015 0.00179614472023
0.0105 -0.0005 0.00192470628092
0.0105 0.0005 0.000859736584136
0.0105 0.0015 0.000248993382339
0.0105 0.0025 0.000112355910963
0.0105 0.0035 6.24805609812e-05
0.0105 0.0045 4.59055363229e-05
0.0105 0.0055 4.40761018641e-05
0.0105 0.0065 6.11389876239e-05
0.0105 0.0075 0.000138226335784
0.0105 0.0085 0.000377596801595
0.0105 0.0095 0.0011604690766
0.0105 0.0105 0.00363620602407
0.0105 0.0115 0.00834554393547
0.0105 0.0125 0.012932877989
0.0105 0.0135 0.0143523567163
0.0105 0.0145 0.0113320718789
0.0105 0.0155 0.00579109255371
0.0105 0.0165 0.00264738161341
0.0105 0.0175 0.00215729557222
0.0105 0.0185 0.00190201377772
0.0105 0.0195 0.0023133336889
0.0105 0.0205 0.00329373412118
0.0105 0.0215 0.00449871751993
0.0105 0.0225 0.00578864827602
0.0105 0.0235 0.006696814746
0.0105 0.0245 0.0064810675218
0.0105 0.0255 0.00497465225028
0.0105 0.0265 0.0030297373074
0.0105 0.0275 0.00156635308948
0.0105 0.0285 0.000738590880992
0.0105 0.0295 0.000336055366753
0.0105 0.0305 0.000178074716161
0.0105 0.0315 7.02212444339e-05
0.0115 -0.0315 2.34265798073e-05
0.0115 -0.0305 4.76993123271e-05
0.0115 -0.0295 7.08808190091e-05
0.0115 -0.0285 0.000133505631706
0.0115 -0.0275 0.000238213577489
0.0115 -0.0265 0.000430341702519
0.0115 -0.0255 0.00097258579373
0.0115 -0.0245 0.00263239007543
0.0115 -0.0235 0.00525751608775
0.0115 -0.0225 0.0060788834539
0.0115 -0.0215 0.00409559595239
0.0115 -0.0205 0.00186962778319
0.0115 -0.0195 0.000909498283038
0.0115 -0.0185 0.000922434934177
0.0115 -0.0175 0.0011795629658
0.0115 -0.0165 0.00249832058195
0.0115 -0.0155 0.00541461925609
0.0115 -0.0145 0.00769935172482
0.0115 -0.0135 0.0072622186243
0.0115 -0.0125 0.00459705805535
0.0115 -0.0115 0.00203796438397
0.0115 -0.0105 0.000794631623545
0.0115 -0.0095 0.000331871057345
0.0115 -0.0085 0.000138624623462
0.0115 -0.0075 7.32971359045e-05
0.0115 -0.0065 5.17588003388e-05
0.0115 -0.0055 5.34448086178e-05
0.0115 -0.0045 8.49132068991e-05
0.0115 -0.0035 0.000192296986709
0.0115 -0.0025 0.000656351631522
0.0115 -0.0015 0.00177451385542
0.0115 -0.0005 0.0021414827687
0.0115 0.0005 0.00115672105394
0.0115 0.0015 0.000365767093195
0.0115 0.0025 0.000128501896123
0.0115 0.0035 5.85924669835e-05
0.0115 0.0045 4.01438535964e-05
0.0115 0.0055 4.25745694788e-05
0.0115 0.0065 6.69394105103e-05
0.0115 0.0075 0.00015378667264
0.0115 0.0085 0.000406645118
0.0115 0.0095 0.00122814837675
0.0115 0.0105 0.00377152609219
0.0115 0.0115 0.0084988075295
0.0115 0.0125 0.0129822213249
0.0115 0.0135 0.0140549813749
0.0115 0.0145 0.0104500273356
0.0115 0.0155 0.00470081058205
0.0115 0.0165 0.0014798250269
0.0115 0.0175 0.000907115214836
0.0115 0.0185 0.000653663761075
0.0115 0.0195 0.000761490778913
0.0115 0.0205 0.00118711026875
0.0115 0.0215 0.00189903128465
0.0115 0.0225 0.00311745145653
0.0115 0.0235 0.00486091662805
0.0115 0.0245 0.00645507405869
0.0115 0.0255 0.00686912974801
0.0115 0.0265 0.00577654655991
0.0115 0.0275 0.00386903644787
0.0115 0.0285 0.00210956208451
0.0115 0.0295 0.000993947029388
0.0115 0.0305 0.000491033445678
0.0115 0.0315 0.000194194855403
0.0125 -0.0315 4.59932993479e-05
0.0125 -0.0305 9.89391004959e-05
0.0125 -0.0295 0.000155222552868
0.0125 -0.0285 0.000344102449696
0.0125 -0.0275 0.00068919089539
0.0125 -0.0265 0.00123702969238
0.0125 -0.0255 0.00255511174659
0.0125 -0.0245 0.00489529466631
0.0125 -0.0235 0.0064366948385
0.0125 -0.0225 0.00519566239879
0.0125 -0.0215 0.00268275660805
0.0125 -0.0205 0.00110434380325
0.0125 -0.0195 0.000534660801552
0.0125 -0.0185 0.000558581649773
0.0125 -0.0175 0.000751551055773
0.0125 -0.0165 0.00147408779484
0.0125 -0.0155 0.00390910106937
0.0125 -0.0145 0.00702585536526
0.0125 -0.0135 0.00801603178077
0.0125 -0.0125 0.00584871239756
0.0125 -0.0115 0.00275951432649
0.0125 -0.0105 0.000943967087374
0.0125 -0.0095 0.000310978140075
0.0125 -0.0085 0.000119764947077
0.0125 -0.0075 6.18256571796e-05
0.0125 -0.0065 3.97974904246e-05
0.0125 -0.0055 3.900734407e-05
0.0125 -0.0045 6.54254787121e-05
0.0125 -0.0035 0.000161338401965
0.0125 -0.0025 0.000573270329586
0.0125 -0.0015 0.00165465234437
0.0125 -0.0005 0.00232808067979
0.0125 0.0005 0.00154183876938
0.0125 0.0015 0.00052928695711
0.0125 0.0025 0.000159992724862
0.0125 0.0035 6.87746991671e-05
0.0125 0.0045 4.49695519304e-05
0.0125 0.0055 5.0674897854e-05
0.0125 0.0065 8.69049304348e-05
0.0125 0.0075 0.000201109144345
0.0125 0.0085 0.000500077127848
0.0125 0.0095 0.00147109389567
0.0125 0.0105 0.00432301565492
0.0125 0.0115 0.00922366717148
0.0125 0.0125 0.0134557713458
0.0125 0.0135 0.0137818991043
0.0125 0.0145 0.00942487147304
0.0125 0.0155 0.00385595090623
0.0125 0.0165 0.00107060653352
0.0125 0.0175 0.000547737773259
0.0125 0.0185 0.000341175730192
0.0125 0.0195 0.00031590365997
0.0125 0.0205 0.000437632019162
0.0125 0.0215 0.000671865877498
0.0125 0.0225 0.00119428800302
0.0125 0.0235 0.00232561734227
0.0125 0.0245 0.00408435264149
0.0125 0.0255 0.00593849454632
0.0125 0.0265 0.0069179611704
0.0125 0.0275 0.00632461096212
0.0125 0.0285 0.00450020047754
0.0125 0.0295 0.002515688755
0.0125 0.0305 0.00125355706602
0.0125 0.0315 0.000466426193959
0.0135 -0.0315 0.000103753701199
0.0135 -0.0305 0.000247588845095
0.0135 -0.0295 0.000427791289159
0.0135 -0.0285 0.000913186548884
0.0135 -0.0275 0.0018388492146
0.0135 -0.0265 0.0032736545764
0.0135 -0.0255 0.00520380791068
0.0135 -0.0245 0.00656798391223
0.0135 -0.0235 0.00575510870704
0.0135 -0.0225 0.00334303788842
0.0135 -0.0215 0.00143764201049
0.0135 -0.0205 0.000595115385462
0.0135 -0.0195 0.00031240690931
0.0135 -0.0185 0.000323309722968
0.0135 -0.0175 0.000503073214048
0.0135 -0.0165 0.000938833791056
0.0135 -0.0155 0.00267798465127
0.0135 -0.0145 0.00593447949018
0.0135 -0.0135 0.00818528018645
0.0135 -0.0125 0.00692631043536
0.0135 -0.0115 0.00361722611173
0.0135 -0.0105 0.00125917045321
0.0135 -0.0095 0.000399220315491
0.0135 -0.0085 0.000144135980336
0.0135 -0.0075 6.24367100024e-05
0.0135 -0.0065 3.57348411054e-05
0.0135 -0.0055 3.20745339765e-05
0.0135 -0.0045 5.19161165407e-05
0.0135 -0.0035 0.000130940827264
0.0135 -0.0025 0.000456255131277
0.0135 -0.0015 0.00139699683531
0.0135 -0.0005 0.00235105459385
0.0135 0.0005 0.00186384993083
0.0135 0.0015 0.000692510087919
0.0135 0.0025 0.00020507290921
0.0135 0.0035 9.20492597681e-05
0.0135 0.0045 5.90564030077e-05
0.0135 0.0055 6.70205716017e-05
0.0135 0.0065 0.000118429226943
0.0135 0.0075 0.000275492081411
0.0135 0.0085 0.000652554448441
0.0135 0.0095 0.00186760289662
0.0135 0.0105 0.0051709720733
0.0135 0.0115 0.0102446639065
0.0135 0.0125 0.013942426368
0.0135 0.0135 0.0131738973939
0.0135 0.0145 0.00814246386915
0.0135 0.0155 0.00303932067076
0.0135 0.0165 0.000836429729042
0.0135 0.0175 0.000396609771344
0.0135 0.0185 0.00022159233324
0.0135 0.0195 0.000164675089781
0.0135 0.0205 0.000183993642591
0.0135 0.0215 0.000255624911828
0.0135 0.0225 0.000442076749687
0.0135 0.0235 0.000884700718163
0.0135 0.0245 0.00175119381567
0.0135 0.0255 0.00325883735631
0.0135 0.0265 0.00524098985326
0.0135 0.0275 0.00666022667775
0.0135 0.0285 0.0064374299193
0.0135 0.0295 0.00469084309102
0.0135 0.0305 0.00273035370855
0.0135 0.0315 0.000987221819069
0.0145 -0.0315 0.000266060407795
0.0145 -0.0305 0.000619374782026
0.0145 -0.0295 0.00114268071481
0.0145 -0.0285 0.00232357231904
0.0145 -0.0275 0.00406620323332
0.0145 -0.0265 0.00582840945902
0.0145 -0.0255 0.00664342142632
0.0145 -0.0245 0.00569501551488
0.0145 -0.0235 0.00347585092236
0.0145 -0.0225 0.00154952890845
0.0145 -0.0215 0.000613528526846
0.0145 -0.0205 0.000278783763254
0.0145 -0.0195 0.000183850147298
0.0145 -0.0185 0.00021599772021
0.0145 -0.0175 0.000365335682574
0.0145 -0.0165 0.00064357592167
0.0145 -0.0155 0.00181769295989
0.0145 -0.0145 0.00479557185343
0.0145 -0.0135 0.00787022154895
0.0145 -0.0125 0.00769128628435
0.0145 -0.0115 0.00451204678657
0.0145 -0.0105 0.00169984313246
0.0145 -0.0095 0.000549479862482
0.0145 -0.0085 0.000191202696119
0.0145 -0.0075 7.12663699986e-05
0.0145 -0.0065 3.70985687671e-05
0.0145 -0.0055 2.97393377748e-05
0.0145 -0.0045 4.26230255435e-05
0.0145 -0.0035 9.99959241241e-05
0.0145 -0.0025 0.000303234732192
0.0145 -0.0015 0.0010084643584
0.0145 -0.0005 0.00217743964525
0.0145 0.0005 0.00217506447321
0.0145 0.0015 0.00100000724014
0.0145 0.0025 0.000315164976853
0.0145 0.0035 0.000133364285361
0.0145 0.0045 8.74134286256e-05