% Model:              Benchmark260518.mph
% Version:            COMSOL 6.2.0.339
% Date:               May 19 2026, 07:45
% Dimension:          2
% Nodes:              4096
% Expressions:        1
% Description:        速度大小
% Length unit:        m
% x                       y                        spf.U (m/s)
% mirrored_by_python_y_to_minus_y, coord_match_decimals=12
0.0005 -0.0315 1.40142295548e-06
0.0005 -0.0305 4.31168035816e-06
0.0005 -0.0295 1.11882662614e-05
0.0005 -0.0285 4.50563195923e-05
0.0005 -0.0275 0.000415433870141
0.0005 -0.0265 0.00189525438488
0.0005 -0.0255 0.00535239741072
0.0005 -0.0245 0.0104004778051
0.0005 -0.0235 0.015941889788
0.0005 -0.0225 0.0204157175889
0.0005 -0.0215 0.0227680132321
0.0005 -0.0205 0.0151917735887
0.0005 -0.0195 0.00396078391398
0.0005 -0.0185 0.000676871625589
0.0005 -0.0175 0.00108328195618
0.0005 -0.0165 0.00104312657018
0.0005 -0.0155 0.000654537497497
0.0005 -0.0145 0.000914568715713
0.0005 -0.0135 0.00200132332679
0.0005 -0.0125 0.00320581710419
0.0005 -0.0115 0.00429073638532
0.0005 -0.0105 0.0050760830958
0.0005 -0.0095 0.00544398377428
0.0005 -0.0085 0.00535137043881
0.0005 -0.0075 0.00481071801837
0.0005 -0.0065 0.00390575771639
0.0005 -0.0055 0.00281623430613
0.0005 -0.0045 0.00178324960661
0.0005 -0.0035 0.00103175299664
0.0005 -0.0025 0.000613794021565
0.0005 -0.0015 0.000364595321189
0.0005 -0.0005 0.000172871964568
0.0005 0.0005 6.32621513141e-05
0.0005 0.0015 2.52060649667e-05
0.0005 0.0025 1.24320355043e-05
0.0005 0.0035 8.46069373331e-06
0.0005 0.0045 7.01514794379e-06
0.0005 0.0055 6.26803896145e-06
0.0005 0.0065 5.83567944896e-06
0.0005 0.0075 5.59216666317e-06
0.0005 0.0085 5.45413950911e-06
0.0005 0.0095 5.3680002438e-06
0.0005 0.0105 5.31128568036e-06
0.0005 0.0115 5.27520517622e-06
0.0005 0.0125 5.2450022566e-06
0.0005 0.0135 5.21572222762e-06
0.0005 0.0145 5.18419263234e-06
0.0005 0.0155 5.14462268929e-06
0.0005 0.0165 5.09447265098e-06
0.0005 0.0175 5.03026172326e-06
0.0005 0.0185 4.95077389517e-06
0.0005 0.0195 4.86389408067e-06
0.0005 0.0205 4.76247352087e-06
0.0005 0.0215 4.65630303918e-06
0.0005 0.0225 4.55845110717e-06
0.0005 0.0235 4.448227367e-06
0.0005 0.0245 4.32585478603e-06
0.0005 0.0255 4.20650331328e-06
0.0005 0.0265 4.08073916943e-06
0.0005 0.0275 3.9023736486e-06
0.0005 0.0285 3.70305740939e-06
0.0005 0.0295 3.32275814546e-06
0.0005 0.0305 2.96302768582e-06
0.0005 0.0315 1.48020738454e-06
0.0015 -0.0315 2.87571138984e-06
0.0015 -0.0305 8.69558695877e-06
0.0015 -0.0295 2.15579607512e-05
0.0015 -0.0285 8.26364657395e-05
0.0015 -0.0275 0.000325542590261
0.0015 -0.0265 0.00120923814244
0.0015 -0.0255 0.00377331890519
0.0015 -0.0245 0.00842531192667
0.0015 -0.0235 0.0141740949853
0.0015 -0.0225 0.0193908808764
0.0015 -0.0215 0.0226834319974
0.0015 -0.0205 0.0202439728927
0.0015 -0.0195 0.0115194805989
0.0015 -0.0185 0.00388591026715
0.0015 -0.0175 0.00084655675168
0.0015 -0.0165 0.00103162271381
0.0015 -0.0155 0.00280744126588
0.0015 -0.0145 0.00505731900419
0.0015 -0.0135 0.00736121591071
0.0015 -0.0125 0.00944922346731
0.0015 -0.0115 0.011138296505
0.0015 -0.0105 0.0122815322777
0.0015 -0.0095 0.012806710712
0.0015 -0.0085 0.0126812416032
0.0015 -0.0075 0.0118756447575
0.0015 -0.0065 0.0103849446976
0.0015 -0.0055 0.00827191426163
0.0015 -0.0045 0.00578166388989
0.0015 -0.0035 0.00339467050377
0.0015 -0.0025 0.00167493475045
0.0015 -0.0015 0.000761432691167
0.0015 -0.0005 0.000315721634263
0.0015 0.0005 0.000110225756394
0.0015 0.0015 4.54955054613e-05
0.0015 0.0025 2.25778156435e-05
0.0015 0.0035 1.43837434073e-05
0.0015 0.0045 1.11709542498e-05
0.0015 0.0055 9.60797899148e-06
0.0015 0.0065 8.77051491872e-06
0.0015 0.0075 8.32936457362e-06
0.0015 0.0085 8.10406732802e-06
0.0015 0.0095 7.98661458761e-06
0.0015 0.0105 7.92483933498e-06
0.0015 0.0115 7.89514344586e-06
0.0015 0.0125 7.87594240522e-06
0.0015 0.0135 7.85754816806e-06
0.0015 0.0145 7.83356542919e-06
0.0015 0.0155 7.7960060765e-06
0.0015 0.0165 7.74067167429e-06
0.0015 0.0175 7.66404947682e-06
0.0015 0.0185 7.56695034798e-06
0.0015 0.0195 7.45950996724e-06
0.0015 0.0205 7.33950926558e-06
0.0015 0.0215 7.22075960199e-06
0.0015 0.0225 7.11867264512e-06
0.0015 0.0235 7.01610173455e-06
0.0015 0.0245 6.91490445556e-06
0.0015 0.0255 6.83161185196e-06
0.0015 0.0265 6.75777398847e-06
0.0015 0.0275 6.64514672565e-06
0.0015 0.0285 6.52012314453e-06
0.0015 0.0295 6.11219709412e-06
0.0015 0.0305 5.68891879439e-06
0.0015 0.0315 2.87654387775e-06
0.0025 -0.0315 3.13572146411e-06
0.0025 -0.0305 9.27524566037e-06
0.0025 -0.0295 2.27538604758e-05
0.0025 -0.0285 7.28009003933e-05
0.0025 -0.0275 0.000246956501905
0.0025 -0.0265 0.000785471627109
0.0025 -0.0255 0.0024566976542
0.0025 -0.0245 0.00617771883001
0.0025 -0.0235 0.0116262715813
0.0025 -0.0225 0.0172435347946
0.0025 -0.0215 0.0212734478177
0.0025 -0.0205 0.0214833193284
0.0025 -0.0195 0.0171311847883
0.0025 -0.0185 0.0112056175243
0.0025 -0.0175 0.00766225136467
0.0025 -0.0165 0.00760012277793
0.0025 -0.0155 0.00937769761619
0.0025 -0.0145 0.0114274025793
0.0025 -0.0135 0.0129945129479
0.0025 -0.0125 0.0138953940607
0.0025 -0.0115 0.014279850239
0.0025 -0.0105 0.014401040084
0.0025 -0.0095 0.0144272438852
0.0025 -0.0085 0.0143656679146
0.0025 -0.0075 0.0140948751093
0.0025 -0.0065 0.0134025254263
0.0025 -0.0055 0.0120284581994
0.0025 -0.0045 0.0097163687694
0.0025 -0.0035 0.00654724693628
0.0025 -0.0025 0.00337629228639
0.0025 -0.0015 0.00129830290558
0.0025 -0.0005 0.00041832701771
0.0025 0.0005 0.000132532223419
0.0025 0.0015 5.57310627376e-05
0.0025 0.0025 2.67462781956e-05
0.0025 0.0035 1.50972529558e-05
0.0025 0.0045 9.91929412087e-06
0.0025 0.0055 7.45812077221e-06
0.0025 0.0065 6.23344259624e-06
0.0025 0.0075 5.64776988344e-06
0.0025 0.0085 5.39447787674e-06
0.0025 0.0095 5.30604757588e-06
0.0025 0.0105 5.29670474873e-06
0.0025 0.0115 5.32356249339e-06
0.0025 0.0125 5.36487717879e-06
0.0025 0.0135 5.40721887253e-06
0.0025 0.0145 5.44145551638e-06
0.0025 0.0155 5.46140985383e-06
0.0025 0.0165 5.46378392015e-06
0.0025 0.0175 5.44968120256e-06
0.0025 0.0185 5.42506658253e-06
0.0025 0.0195 5.39827755185e-06
0.0025 0.0205 5.38065759711e-06
0.0025 0.0215 5.38241726784e-06
0.0025 0.0225 5.41026342087e-06
0.0025 0.0235 5.46933012951e-06
0.0025 0.0245 5.56198750094e-06
0.0025 0.0255 5.68718723168e-06
0.0025 0.0265 5.83968736373e-06
0.0025 0.0275 5.99121876474e-06
0.0025 0.0285 6.10932884048e-06
0.0025 0.0295 5.90942432269e-06
0.0025 0.0305 5.77298024457e-06
0.0025 0.0315 3.01416819626e-06
0.0035 -0.0315 3.29541275437e-06
0.0035 -0.0305 9.33423018562e-06
0.0035 -0.0295 2.21946584584e-05
0.0035 -0.0285 6.09554529598e-05
0.0035 -0.0275 0.000167392633113
0.0035 -0.0265 0.000490158036501
0.0035 -0.0255 0.00149643370577
0.0035 -0.0245 0.00411746229847
0.0035 -0.0235 0.00871005067388
0.0035 -0.0225 0.0141801943126
0.0035 -0.0215 0.0187163636206
0.0035 -0.0205 0.0204712140412
0.0035 -0.0195 0.0189716452954
0.0035 -0.0185 0.0158272412168
0.0035 -0.0175 0.0135629715475
0.0035 -0.0165 0.013460046544
0.0035 -0.0155 0.0144811902784
0.0035 -0.0145 0.015225860404
0.0035 -0.0135 0.0150688479272
0.0035 -0.0125 0.0141417714162
0.0035 -0.0115 0.0129702068222
0.0035 -0.0105 0.0120531802662
0.0035 -0.0095 0.0116203093515
0.0035 -0.0085 0.0116839288487
0.0035 -0.0075 0.0121262114221
0.0035 -0.0065 0.0126827583282
0.0035 -0.0055 0.0129214658158
0.0035 -0.0045 0.0122354908143
0.0035 -0.0035 0.00998283550515
0.0035 -0.0025 0.00623996533093
0.0035 -0.0015 0.0026923840422
0.0035 -0.0005 0.000865106027295
0.0035 0.0005 0.000283008177192
0.0035 0.0015 0.000103362330158
0.0035 0.0025 4.68654523125e-05
0.0035 0.0035 2.42381908976e-05
0.0035 0.0045 1.42136341619e-05
0.0035 0.0055 9.29454841651e-06
0.0035 0.0065 6.93822705985e-06
0.0035 0.0075 5.86432829631e-06
0.0035 0.0085 5.40540372047e-06
0.0035 0.0095 5.24439184691e-06
0.0035 0.0105 5.226045399e-06
0.0035 0.0115 5.27268876366e-06
0.0035 0.0125 5.3428141749e-06
0.0035 0.0135 5.41217364858e-06
0.0035 0.0145 5.46555369109e-06
0.0035 0.0155 5.49463050032e-06
0.0035 0.0165 5.4983456262e-06
0.0035 0.0175 5.48310214242e-06
0.0035 0.0185 5.46130334202e-06
0.0035 0.0195 5.44841175188e-06
0.0035 0.0205 5.45901043273e-06
0.0035 0.0215 5.50420000909e-06
0.0035 0.0225 5.59002320511e-06
0.0035 0.0235 5.71711513009e-06
0.0035 0.0245 5.88163812248e-06
0.0035 0.0255 6.07165813522e-06
0.0035 0.0265 6.26574570227e-06
0.0035 0.0275 6.40023213246e-06
0.0035 0.0285 6.42099199512e-06
0.0035 0.0295 6.03515609065e-06
0.0035 0.0305 6.00578510071e-06
0.0035 0.0315 3.2577927888e-06
0.0045 -0.0315 3.27367125336e-06
0.0045 -0.0305 8.64126793826e-06
0.0045 -0.0295 1.891546949e-05
0.0045 -0.0285 4.46074248684e-05
0.0045 -0.0275 0.000105135528225
0.0045 -0.0265 0.000290964701564
0.0045 -0.0255 0.000860708345445
0.0045 -0.0245 0.00250412203872
0.0045 -0.0235 0.00594879479153
0.0045 -0.0225 0.0107324979402
0.0045 -0.0215 0.0152367318924
0.0045 -0.0205 0.0176710401081
0.0045 -0.0195 0.0175009837391
0.0045 -0.0185 0.0159679306598
0.0045 -0.0175 0.0149479843788
0.0045 -0.0165 0.0150635584191
0.0045 -0.0155 0.0151456304906
0.0045 -0.0145 0.0141897777425
0.0045 -0.0135 0.0122325418229
0.0045 -0.0125 0.00996442185403
0.0045 -0.0115 0.00805437061198
0.0045 -0.0105 0.00683622115436
0.0045 -0.0095 0.00636431061152
0.0045 -0.0085 0.00663352597934
0.0045 -0.0075 0.00766284009921
0.0045 -0.0065 0.00938404015485
0.0045 -0.0055 0.0114089626357
0.0045 -0.0045 0.0129053826053
0.0045 -0.0035 0.0126590401332
0.0045 -0.0025 0.00968385542805
0.0045 -0.0015 0.00516895654016
0.0045 -0.0005 0.00196614372117
0.0045 0.0005 0.00069116025968
0.0045 0.0015 0.000247466974072
0.0045 0.0025 9.8862762525e-05
0.0045 0.0035 4.882379975e-05
0.0045 0.0045 2.46188028076e-05
0.0045 0.0055 1.36583939431e-05
0.0045 0.0065 8.9029038896e-06
0.0045 0.0075 6.75570899137e-06
0.0045 0.0085 5.80733767789e-06
0.0045 0.0095 5.43178116384e-06
0.0045 0.0105 5.33483438254e-06
0.0045 0.0115 5.36594035392e-06
0.0045 0.0125 5.44380912401e-06
0.0045 0.0135 5.52154525238e-06
0.0045 0.0145 5.57271239535e-06
0.0045 0.0155 5.58680100548e-06
0.0045 0.0165 5.56769377923e-06
0.0045 0.0175 5.53097821514e-06
0.0045 0.0185 5.49862175419e-06
0.0045 0.0195 5.49245164268e-06
0.0045 0.0205 5.52895249734e-06
0.0045 0.0215 5.61657658783e-06
0.0045 0.0225 5.75560718116e-06
0.0045 0.0235 5.93856384009e-06
0.0045 0.0245 6.14961185989e-06
0.0045 0.0255 6.36012203434e-06
0.0045 0.0265 6.5265130788e-06
0.0045 0.0275 6.56382310367e-06
0.0045 0.0285 6.43656917531e-06
0.0045 0.0295 5.94062430447e-06
0.0045 0.0305 6.09329221645e-06
0.0045 0.0315 3.41446105858e-06
0.0055 -0.0315 3.17017938928e-06
0.0055 -0.0305 7.72163124588e-06
0.0055 -0.0295 1.47506801146e-05
0.0055 -0.0285 3.08396464714e-05
0.0055 -0.0275 7.020245056e-05
0.0055 -0.0265 0.000178164816876
0.0055 -0.0255 0.000495442695201
0.0055 -0.0245 0.00145527704653
0.0055 -0.0235 0.00381429667705
0.0055 -0.0225 0.00762869659417
0.0055 -0.0215 0.0115534352871
0.0055 -0.0205 0.0138391293917
0.0055 -0.0195 0.0138546350151
0.0055 -0.0185 0.0127061493907
0.0055 -0.0175 0.0121028409797
0.0055 -0.0165 0.011970429339
0.0055 -0.0155 0.0109816886955
0.0055 -0.0145 0.00893716652688
0.0055 -0.0135 0.00658707062479
0.0055 -0.0125 0.00461953091322
0.0055 -0.0115 0.00329145255781
0.0055 -0.0105 0.0025715123171
0.0055 -0.0095 0.00235813909773
0.0055 -0.0085 0.00263015179219
0.0055 -0.0075 0.00353526199561
0.0055 -0.0065 0.00538422370365
0.0055 -0.0055 0.00831592641519
0.0055 -0.0045 0.0116436142412
0.0055 -0.0035 0.0137485746658
0.0055 -0.0025 0.0127741686374
0.0055 -0.0015 0.00865192070361
0.0055 -0.0005 0.00418947581854
0.0055 0.0005 0.00164695813033
0.0055 0.0015 0.000650834955702
0.0055 0.0025 0.00027602672523
0.0055 0.0035 0.000121706239375
0.0055 0.0045 4.93075534977e-05
0.0055 0.0055 2.39181337653e-05
0.0055 0.0065 1.36992106728e-05
0.0055 0.0075 9.24794052999e-06
0.0055 0.0085 7.18923920012e-06
0.0055 0.0095 6.28260607332e-06
0.0055 0.0105 5.93890834314e-06
0.0055 0.0115 5.86194301238e-06
0.0055 0.0125 5.88750825178e-06
0.0055 0.0135 5.92384104826e-06
0.0055 0.0145 5.92467667052e-06
0.0055 0.0155 5.87812771926e-06
0.0055 0.0165 5.7983144304e-06
0.0055 0.0175 5.71450911641e-06
0.0055 0.0185 5.65872085717e-06
0.0055 0.0195 5.65571912969e-06
0.0055 0.0205 5.71829621329e-06
0.0055 0.0215 5.84707229738e-06
0.0055 0.0225 6.03186060803e-06
0.0055 0.0235 6.25228791046e-06
0.0055 0.0245 6.47740305125e-06
0.0055 0.0255 6.66170263815e-06
0.0055 0.0265 6.74867561406e-06
0.0055 0.0275 6.66003024473e-06
0.0055 0.0285 6.41332112563e-06
0.0055 0.0295 5.86864839157e-06
0.0055 0.0305 6.18629340321e-06
0.0055 0.0315 3.54579059885e-06
0.0065 -0.0315 3.04458363087e-06
0.0065 -0.0305 6.86421002572e-06
0.0065 -0.0295 1.17278364771e-05
0.0065 -0.0285 2.38449330685e-05
0.0065 -0.0275 5.13460571119e-05
0.0065 -0.0265 0.000121633240422
0.0065 -0.0255 0.000328371961368
0.0065 -0.0245 0.000945949545436
0.0065 -0.0235 0.00261484530563
0.0065 -0.0225 0.00564072905749
0.0065 -0.0215 0.00885076623862
0.0065 -0.0205 0.0104243335407
0.0065 -0.0195 0.00964144967297
0.0065 -0.0185 0.0076557721712
0.0065 -0.0175 0.00658103220439
0.0065 -0.0165 0.00611156907662
0.0065 -0.0155 0.00500424035565
0.0065 -0.0145 0.00355522168233
0.0065 -0.0135 0.00233871764893
0.0065 -0.0125 0.0015157094311
0.0065 -0.0115 0.00102013758592
0.0065 -0.0105 0.0007744539207
0.0065 -0.0095 0.000729392476261
0.0065 -0.0085 0.000883727829827
0.0065 -0.0075 0.00136049293854
0.0065 -0.0065 0.00252460928867
0.0065 -0.0055 0.00496618316459
0.0065 -0.0045 0.00880888729289
0.0065 -0.0035 0.0127538813844
0.0065 -0.0025 0.014400285832
0.0065 -0.0015 0.0122954011676
0.0065 -0.0005 0.00778950909058
0.0065 0.0005 0.00377736505502
0.0065 0.0015 0.00161251750622
0.0065 0.0025 0.000714400293567
0.0065 0.0035 0.000309263820819
0.0065 0.0045 0.000117062192498
0.0065 0.0055 4.79126024057e-05
0.0065 0.0065 2.45147290432e-05
0.0065 0.0075 1.47374849475e-05
0.0065 0.0085 1.02636900022e-05
0.0065 0.0095 8.12661740442e-06
0.0065 0.0105 7.16396086916e-06
0.0065 0.0115 6.76723619927e-06
0.0065 0.0125 6.60596116085e-06
0.0065 0.0135 6.49782789023e-06
0.0065 0.0145 6.36109868747e-06
0.0065 0.0155 6.18410201722e-06
0.0065 0.0165 5.99749206007e-06
0.0065 0.0175 5.84567114038e-06
0.0065 0.0185 5.76493096626e-06
0.0065 0.0195 5.7738541624e-06
0.0065 0.0205 5.87346816449e-06
0.0065 0.0215 6.05044373453e-06
0.0065 0.0225 6.27965728871e-06
0.0065 0.0235 6.52532085817e-06
0.0065 0.0245 6.74188395201e-06
0.0065 0.0255 6.87408729427e-06
0.0065 0.0265 6.86945923356e-06
0.0065 0.0275 6.67579208901e-06
0.0065 0.0285 6.35777188863e-06
0.0065 0.0295 5.80533131548e-06
0.0065 0.0305 6.27473097883e-06
0.0065 0.0315 3.65854558295e-06
0.0075 -0.0315 2.93713294922e-06
0.0075 -0.0305 6.29326118339e-06
0.0075 -0.0295 9.9928535482e-06
0.0075 -0.0285 1.9360874796e-05
0.0075 -0.0275 3.94004945626e-05
0.0075 -0.0265 0.000102406749204
0.0075 -0.0255 0.000297979595732
0.0075 -0.0245 0.000871743486901
0.0075 -0.0235 0.00243603581594
0.0075 -0.0225 0.00528954327203
0.0075 -0.0215 0.00815317935891
0.0075 -0.0205 0.00906671047342
0.0075 -0.0195 0.00723767838584
0.0075 -0.0185 0.00398950730209
0.0075 -0.0175 0.00211996120401
0.0075 -0.0165 0.00175547848674
0.0075 -0.0155 0.00136909332454
0.0075 -0.0145 0.000994358261955
0.0075 -0.0135 0.000708905358467
0.0075 -0.0125 0.000480342912055
0.0075 -0.0115 0.000310158579166
0.0075 -0.0105 0.000229417934156
0.0075 -0.0095 0.000239223300072
0.0075 -0.0085 0.000330553197698
0.0075 -0.0075 0.000545093151054
0.0075 -0.0065 0.00108581144204
0.0075 -0.0055 0.00247815510138
0.0075 -0.0045 0.00543938417399
0.0075 -0.0035 0.00982488295372
0.0075 -0.0025 0.0136766736758
0.0075 -0.0015 0.0145604796706
0.0075 -0.0005 0.0119098214551
0.0075 0.0005 0.00751762281715
0.0075 0.0015 0.00379426572041
0.0075 0.0025 0.00169948768328
0.0075 0.0035 0.000741681263758
0.0075 0.0045 0.000303268211809
0.0075 0.0055 0.000115936860822
0.0075 0.0065 5.03335888835e-05
0.0075 0.0075 2.73750183914e-05
0.0075 0.0085 1.71473802732e-05
0.0075 0.0095 1.22049318382e-05
0.0075 0.0105 9.742409096e-06
0.0075 0.0115 8.53883677166e-06
0.0075 0.0125 7.88626830454e-06
0.0075 0.0135 7.41165693559e-06
0.0075 0.0145 6.96308246595e-06
0.0075 0.0155 6.53237429569e-06
0.0075 0.0165 6.17056641446e-06
0.0075 0.0175 5.9268210058e-06
0.0075 0.0185 5.82365914573e-06
0.0075 0.0195 5.85805978408e-06
0.0075 0.0205 6.00902540834e-06
0.0075 0.0215 6.24273778654e-06
0.0075 0.0225 6.51522419858e-06
0.0075 0.0235 6.77465536427e-06
0.0075 0.0245 6.96563456093e-06
0.0075 0.0255 7.03413111307e-06
0.0075 0.0265 6.94398515212e-06
0.0075 0.0275 6.67061683239e-06
0.0075 0.0285 6.31053482371e-06
0.0075 0.0295 5.76474456659e-06
0.0075 0.0305 6.36527419368e-06
0.0075 0.0315 3.75990605077e-06
0.0085 -0.0315 2.89848757231e-06
0.0085 -0.0305 6.04199127528e-06
0.0085 -0.0295 9.16882006993e-06
0.0085 -0.0285 1.76724355117e-05
0.0085 -0.0275 3.85405674001e-05
0.0085 -0.0265 0.000112198201893
0.0085 -0.0255 0.000349978899637
0.0085 -0.0245 0.00108484338696
0.0085 -0.0235 0.00302103507318
0.0085 -0.0225 0.00621608033077
0.0085 -0.0215 0.00893737388556
0.0085 -0.0205 0.00910148740029
0.0085 -0.0195 0.00631990401452
0.0085 -0.0185 0.00270384597162
0.0085 -0.0175 0.00074432586162
0.0085 -0.0165 0.000368616310472
0.0085 -0.0155 0.000298089396614
0.0085 -0.0145 0.000250580419761
0.0085 -0.0135 0.000199792609673
0.0085 -0.0125 0.000147179709263
0.0085 -0.0115 9.88589913229e-05
0.0085 -0.0105 7.43643664696e-05
0.0085 -0.0095 8.52536105685e-05
0.0085 -0.0085 0.000127353739104
0.0085 -0.0075 0.000211603659592
0.0085 -0.0065 0.000447205679945
0.0085 -0.0055 0.0010966594767
0.0085 -0.0045 0.00272405154541
0.0085 -0.0035 0.00603958820351
0.0085 -0.0025 0.0105600634158
0.0085 -0.0015 0.0140765017711
0.0085 -0.0005 0.0145401326768
0.0085 0.0005 0.0118205964846
0.0085 0.0015 0.00759290085174
0.0085 0.0025 0.00392389873858
0.0085 0.0035 0.00174934421317
0.0085 0.0045 0.000741877177332
0.0085 0.0055 0.000305585216557
0.0085 0.0065 0.00012427547873
0.0085 0.0075 5.85789443644e-05
0.0085 0.0085 3.36242570349e-05
0.0085 0.0095 2.16199475684e-05
0.0085 0.0105 1.55869182395e-05
0.0085 0.0115 1.24005145771e-05
0.0085 0.0125 1.0533674109e-05
0.0085 0.0135 9.16240046015e-06
0.0085 0.0145 8.00979087662e-06
0.0085 0.0155 7.07024876854e-06
0.0085 0.0165 6.39839084103e-06
0.0085 0.0175 6.00846402686e-06
0.0085 0.0185 5.87157395025e-06
0.0085 0.0195 5.938342937e-06
0.0085 0.0205 6.15121971989e-06
0.0085 0.0215 6.44691630333e-06
0.0085 0.0225 6.75793000568e-06
0.0085 0.0235 7.01780130615e-06
0.0085 0.0245 7.16876184427e-06
0.0085 0.0255 7.16762312243e-06
0.0085 0.0265 6.99919513987e-06
0.0085 0.0275 6.66186796205e-06
0.0085 0.0285 6.27336296138e-06
0.0085 0.0295 5.73735377939e-06
0.0085 0.0305 6.44673733699e-06
0.0085 0.0315 3.84563483312e-06
0.0095 -0.0315 2.94798695497e-06
0.0095 -0.0305 6.075292372e-06
0.0095 -0.0295 9.12089714053e-06
0.0095 -0.0285 1.81812462034e-05
0.0095 -0.0275 4.259089613e-05
0.0095 -0.0265 0.00013413909245
0.0095 -0.0255 0.000444070763574
0.0095 -0.0245 0.00145841589607
0.0095 -0.0235 0.0039789425465
0.0095 -0.0225 0.00754055756848
0.0095 -0.0215 0.00972965767653
0.0095 -0.0205 0.00860759280324
0.0095 -0.0195 0.00496162628114
0.0095 -0.0185 0.00174164499757
0.0095 -0.0175 0.00042635805583
0.0095 -0.0165 0.000132455976148
0.0095 -0.0155 7.87145289847e-05
0.0095 -0.0145 6.49533268609e-05
0.0095 -0.0135 5.777015099e-05
0.0095 -0.0125 4.99742843658e-05
0.0095 -0.0115 4.09850607703e-05
0.0095 -0.0105 3.57184136991e-05
0.0095 -0.0095 3.95471408505e-05
0.0095 -0.0085 5.30048695622e-05
0.0095 -0.0075 8.19009587701e-05
0.0095 -0.0065 0.000174362027387
0.0095 -0.0055 0.000456937675524
0.0095 -0.0045 0.00118134621313
0.0095 -0.0035 0.00293886201309
0.0095 -0.0025 0.00636638192812
0.0095 -0.0015 0.0107940900783
0.0095 -0.0005 0.0140780366773
0.0095 0.0005 0.0144391508129
0.0095 0.0015 0.0118011883729
0.0095 0.0025 0.00765378067787
0.0095 0.0035 0.00395654148247
0.0095 0.0045 0.00174462408342
0.0095 0.0055 0.000751698035358
0.0095 0.0065 0.000333402027777
0.0095 0.0075 0.000151266155244
0.0095 0.0085 7.66836526568e-05
0.0095 0.0095 4.53080458822e-05
0.0095 0.0105 2.97055756712e-05
0.0095 0.0115 2.17157321307e-05
0.0095 0.0125 1.68595902152e-05
0.0095 0.0135 1.32501866357e-05
0.0095 0.0145 1.03725380527e-05
0.0095 0.0155 8.27800127033e-06
0.0095 0.0165 6.95521259788e-06
0.0095 0.0175 6.26063180707e-06
0.0095 0.0185 6.02272035897e-06
0.0095 0.0195 6.09718476682e-06
0.0095 0.0205 6.36376494955e-06
0.0095 0.0215 6.71220300758e-06
0.0095 0.0225 7.04445035594e-06
0.0095 0.0235 7.28246205344e-06
0.0095 0.0245 7.3740812198e-06
0.0095 0.0255 7.29356403988e-06
0.0095 0.0265 7.04751157603e-06
0.0095 0.0275 6.6527511666e-06
0.0095 0.0285 6.24146736606e-06
0.0095 0.0295 5.71514813071e-06
0.0095 0.0305 6.51187398589e-06
0.0095 0.0315 3.91277686661e-06
0.0105 -0.0315 3.09421469973e-06
0.0105 -0.0305 6.37545656557e-06
0.0105 -0.0295 9.66095140541e-06
0.0105 -0.0285 1.98811379656e-05
0.0105 -0.0275 4.87368422592e-05
0.0105 -0.0265 0.000161707787694
0.0105 -0.0255 0.000559411689975
0.0105 -0.0245 0.00190619137651
0.0105 -0.0235 0.00501789318965
0.0105 -0.0225 0.00869195781655
0.0105 -0.0215 0.00988172218467
0.0105 -0.0205 0.00736490610085
0.0105 -0.0195 0.00348309048619
0.0105 -0.0185 0.00108793918188
0.0105 -0.0175 0.000292773985947
0.0105 -0.0165 8.42460101062e-05
0.0105 -0.0155 4.24830220176e-05
0.0105 -0.0145 3.11730970016e-05
0.0105 -0.0135 2.73466611638e-05
0.0105 -0.0125 2.47343142947e-05
0.0105 -0.0115 2.24059513147e-05
0.0105 -0.0105 2.14254738807e-05
0.0105 -0.0095 2.32058924967e-05
0.0105 -0.0085 2.90571866069e-05
0.0105 -0.0075 4.30178875547e-05
0.0105 -0.0065 7.76840829124e-05
0.0105 -0.0055 0.000182379072807
0.0105 -0.0045 0.000484150748286
0.0105 -0.0035 0.00123260898759
0.0105 -0.0025 0.00300765169506
0.0105 -0.0015 0.0063949601986
0.0105 -0.0005 0.0107091369156
0.0105 0.0005 0.0138927550012
0.0105 0.0015 0.0142254384543
0.0105 0.0025 0.0116041585805
0.0105 0.0035 0.00749098266214
0.0105 0.0045 0.00387076609866
0.0105 0.0055 0.00176839200213
0.0105 0.0065 0.000844488107394
0.0105 0.0075 0.000428482320843
0.0105 0.0085 0.000213742488071
0.0105 0.0095 0.000111721639979
0.0105 0.0105 6.87586424312e-05
0.0105 0.0115 4.74582905085e-05
0.0105 0.0125 3.42964281699e-05
0.0105 0.0135 2.39995717139e-05
0.0105 0.0145 1.63011027246e-05
0.0105 0.0155 1.12980830611e-05
0.0105 0.0165 8.46947170948e-06
0.0105 0.0175 7.05359185494e-06
0.0105 0.0185 6.4979750111e-06
0.0105 0.0195 6.47383622039e-06
0.0105 0.0205 6.73661964658e-06
0.0105 0.0215 7.09355861517e-06
0.0105 0.0225 7.40475875548e-06
0.0105 0.0235 7.58229950141e-06
0.0105 0.0245 7.58565156683e-06
0.0105 0.0255 7.41007990028e-06
0.0105 0.0265 7.08277027474e-06
0.0105 0.0275 6.63438681109e-06
0.0105 0.0285 6.20572888259e-06
0.0105 0.0295 5.69143977909e-06
0.0105 0.0305 6.56175958905e-06
0.0105 0.0315 3.96516184067e-06
0.0115 -0.0315 3.36589008089e-06
0.0115 -0.0305 6.99787368106e-06
0.0115 -0.0295 1.08173189813e-05
0.0115 -0.0285 2.27065808317e-05
0.0115 -0.0275 5.68540494e-05
0.0115 -0.0265 0.000193965875964
0.0115 -0.0255 0.00068803271136
0.0115 -0.0245 0.00237092269543
0.0115 -0.0235 0.00595997200693
0.0115 -0.0225 0.00947952170231
0.0115 -0.0215 0.00954847436832
0.0115 -0.0205 0.00607783232454
0.0115 -0.0195 0.00247070815429
0.0115 -0.0185 0.000766243154095
0.0115 -0.0175 0.000228544757497
0.0115 -0.0165 7.10724874671e-05
0.0115 -0.0155 3.41585941606e-05
0.0115 -0.0145 2.25669949211e-05
0.0115 -0.0135 1.85645320288e-05
0.0115 -0.0125 1.68013048978e-05
0.0115 -0.0115 1.58433567463e-05
0.0115 -0.0105 1.56223150161e-05
0.0115 -0.0095 1.66209218868e-05
0.0115 -0.0085 1.97537041638e-05
0.0115 -0.0075 2.69903617155e-05
0.0115 -0.0065 4.34146014225e-05
0.0115 -0.0055 8.19066667237e-05
0.0115 -0.0045 0.000191477954175
0.0115 -0.0035 0.000497108221657
0.0115 -0.0025 0.00123894517368
0.0115 -0.0015 0.00299191090775
0.0115 -0.0005 0.00635485430427
0.0115 0.0005 0.0106199181857
0.0115 0.0015 0.0136651399448
0.0115 0.0025 0.0137949571504
0.0115 0.0035 0.0110973904385
0.0115 0.0045 0.00718182307938
0.0115 0.0055 0.00392578492121
0.0115 0.0065 0.00208226637941
0.0115 0.0075 0.00118241918726
0.0115 0.0085 0.000659538171112
0.0115 0.0095 0.000337037598343
0.0115 0.0105 0.000186428333
0.0115 0.0115 0.00012826542709
0.0115 0.0125 8.93161745714e-05
0.0115 0.0135 5.56826212312e-05
0.0115 0.0145 3.1640668931e-05
0.0115 0.0155 1.87658361252e-05
0.0115 0.0165 1.24071349201e-05
0.0115 0.0175 9.15494398714e-06
0.0115 0.0185 7.70686780967e-06
0.0115 0.0195 7.2899312366e-06
0.0115 0.0205 7.38060655728e-06
0.0115 0.0215 7.6383385503e-06
0.0115 0.0225 7.84978547269e-06
0.0115 0.0235 7.9089431901e-06
0.0115 0.0245 7.78709488009e-06
0.0115 0.0255 7.49951865818e-06
0.0115 0.0265 7.0896824504e-06
0.0115 0.0275 6.59555997513e-06
0.0115 0.0285 6.15954168675e-06
0.0115 0.0295 5.66435147282e-06
0.0115 0.0305 6.60246206479e-06
0.0115 0.0315 4.00893754698e-06
0.0125 -0.0315 3.84953317969e-06
0.0125 -0.0305 8.17514075981e-06
0.0125 -0.0295 1.31280911264e-05
0.0125 -0.0285 2.81338213e-05
0.0125 -0.0275 7.01707368554e-05
0.0125 -0.0265 0.000237575734553
0.0125 -0.0255 0.000843764974238
0.0125 -0.0245 0.00284720006275
0.0125 -0.0235 0.00674120145381
0.0125 -0.0225 0.00990738975645
0.0125 -0.0215 0.0090194346427
0.0125 -0.0205 0.00509814360737
0.0125 -0.0195 0.00188249318995
0.0125 -0.0185 0.000595028000427
0.0125 -0.0175 0.000195457502855
0.0125 -0.0165 6.96072383384e-05
0.0125 -0.0155 3.42085550097e-05
0.0125 -0.0145 2.14924952345e-05
0.0125 -0.0135 1.66526703149e-05
0.0125 -0.0125 1.47071454427e-05
0.0125 -0.0115 1.38688208488e-05
0.0125 -0.0105 1.36191860342e-05
0.0125 -0.0095 1.40628565418e-05
0.0125 -0.0085 1.57167050835e-05
0.0125 -0.0075 1.97282087686e-05
0.0125 -0.0065 2.83789310183e-05
0.0125 -0.0055 4.6848071547e-05
0.0125 -0.0045 8.77169324093e-05
0.0125 -0.0035 0.000198898206192
0.0125 -0.0025 0.000504410271095
0.0125 -0.0015 0.00125227775479
0.0125 -0.0005 0.00306166895305
0.0125 0.0005 0.00651537807853
0.0125 0.0015 0.0106785810385
0.0125 0.0025 0.0132731622315
0.0125 0.0035 0.0129580349757
0.0125 0.0045 0.0103769679461
0.0125 0.0055 0.00719723783371
0.0125 0.0065 0.00475333827988
0.0125 0.0075 0.00319867694083
0.0125 0.0085 0.00206427528528
0.0125 0.0095 0.0011906163865
0.0125 0.0105 0.000695104747445
0.0125 0.0115 0.000470692552826
0.0125 0.0125 0.000301976934538
0.0125 0.0135 0.000157633506476
0.0125 0.0145 7.2715669e-05
0.0125 0.0155 3.95342838506e-05
0.0125 0.0165 2.24238689298e-05
0.0125 0.0175 1.41284198805e-05
0.0125 0.0185 1.03960654174e-05
0.0125 0.0195 8.85146845307e-06
0.0125 0.0205 8.40451625259e-06
0.0125 0.0215 8.36766480155e-06
0.0125 0.0225 8.36096389103e-06
0.0125 0.0235 8.22959829346e-06
0.0125 0.0245 7.94557807538e-06
0.0125 0.0255 7.53633586987e-06
0.0125 0.0265 7.05254079722e-06
0.0125 0.0275 6.52955057972e-06
0.0125 0.0285 6.10245394555e-06
0.0125 0.0295 5.63604739066e-06
0.0125 0.0305 6.64345723606e-06
0.0125 0.0315 4.05276917599e-06
0.0135 -0.0315 4.78612131392e-06
0.0135 -0.0305 1.05377518445e-05
0.0135 -0.0295 1.78953435271e-05
0.0135 -0.0285 4.00401384055e-05
0.0135 -0.0275 0.000102157765558
0.0135 -0.0265 0.000324182521468
0.0135 -0.0255 0.00108771941717
0.0135 -0.0245 0.00340146559933
0.0135 -0.0235 0.00738146654732
0.0135 -0.0225 0.01000450717
0.0135 -0.0215 0.00839760098873
0.0135 -0.0205 0.00438675504835
0.0135 -0.0195 0.00154208325994
0.0135 -0.0185 0.000498504158321
0.0135 -0.0175 0.00018518034148
0.0135 -0.0165 7.68149275135e-05
0.0135 -0.0155 3.91079687104e-05
0.0135 -0.0145 2.40005697962e-05
0.0135 -0.0135 1.78224567695e-05
0.0135 -0.0125 1.52570609526e-05
0.0135 -0.0115 1.41036647975e-05
0.0135 -0.0105 1.35656490081e-05
0.0135 -0.0095 1.35234839154e-05
0.0135 -0.0085 1.42368422554e-05
0.0135 -0.0075 1.63604621875e-05
0.0135 -0.0065 2.12243934453e-05
0.0135 -0.0055 3.13802130776e-05
0.0135 -0.0045 5.23369472756e-05
0.0135 -0.0035 9.7351171011e-05
0.0135 -0.0025 0.000215845287836
0.0135 -0.0015 0.000554744501377
0.0135 -0.0005 0.00139795814549
0.0135 0.0005 0.00340229323511
0.0135 0.0015 0.00694762370692
0.0135 0.0025 0.0105908321222
0.0135 0.0035 0.0122353868066
0.0135 0.0045 0.0116051493406
0.0135 0.0055 0.00993373574814
0.0135 0.0065 0.00837987490313
0.0135 0.0075 0.00709844954908
0.0135 0.0085 0.0056827499935
0.0135 0.0095 0.00403913395688
0.0135 0.0105 0.00256704995521
0.0135 0.0115 0.00156640820279
0.0135 0.0125 0.000919318447886
0.0135 0.0135 0.000475523999799
0.0135 0.0145 0.000222266802708
0.0135 0.0155 0.000105306757871
0.0135 0.0165 4.7568855592e-05
0.0135 0.0175 2.55136876744e-05
0.0135 0.0185 1.56663510498e-05
0.0135 0.0195 1.14781199939e-05
0.0135 0.0205 9.88096801462e-06
0.0135 0.0215 9.26497810526e-06
0.0135 0.0225 8.89262454491e-06
0.0135 0.0235 8.49619049966e-06
0.0135 0.0245 8.02388160633e-06
0.0135 0.0255 7.49936239208e-06
0.0135 0.0265 6.96529920848e-06
0.0135 0.0275 6.44049031087e-06
0.0135 0.0285 6.04240161296e-06
0.0135 0.0295 5.61343115222e-06
0.0135 0.0305 6.68223182742e-06
0.0135 0.0315 4.09154766299e-06
0.0145 -0.0315 6.83135747492e-06
0.0145 -0.0305 1.55702543131e-05
0.0145 -0.0295 2.8245475794e-05
0.0145 -0.0285 6.57362455375e-05
0.0145 -0.0275 0.000183732585241
0.0145 -0.0265 0.000531996672391
0.0145 -0.0255 0.00156019356565
0.0145 -0.0245 0.00417128692839
0.0145 -0.0235 0.00790914239473
0.0145 -0.0225 0.00972545355261
0.0145 -0.0215 0.00760894187961
0.0145 -0.0205 0.0038194696312
0.0145 -0.0195 0.00139496551587
0.0145 -0.0185 0.000515784731986
0.0145 -0.0175 0.000220973838904
0.0145 -0.0165 9.75579794536e-05
0.0145 -0.0155 4.98442433233e-05
0.0145 -0.0145 2.99995546576e-05
0.0145 -0.0135 2.1464003129e-05
0.0145 -0.0125 1.76000947734e-05
0.0145 -0.0115 1.56667290953e-05
0.0145 -0.0105 1.45868556023e-05
0.0145 -0.0095 1.40462898214e-05
0.0145 -0.0085 1.40943775442e-05
0.0145 -0.0075 1.50827198412e-05
0.0145 -0.0065 1.78158615119e-05
0.0145 -0.0055 2.39930520481e-05
0.0145 -0.0045 3.69601280065e-05
0.0145 -0.0035 6.46958890457e-05
0.0145 -0.0025 0.000127770685108