% Model:              Benchmark260518.mph
% Version:            COMSOL 6.2.0.339
% Date:               May 20 2026, 05:26
% Dimension:          2
% Nodes:              4096
% Expressions:        1
% Description:        速度大小
% Length unit:        m
% x                       y                        spf.U (m/s)
5.0E-4                    -0.0315                  1.515249756184307E-6
5.0E-4                    -0.0305                  3.0013908089648183E-6
5.0E-4                    -0.0295                  3.3091805143431104E-6
5.0E-4                    -0.0285                  3.6679534496987406E-6
5.0E-4                    -0.0275                  3.833649628453128E-6
5.0E-4                    -0.0265                  3.983331931417944E-6
5.0E-4                    -0.0255                  4.114680916026586E-6
5.0E-4                    -0.0245                  4.230760305330925E-6
5.0E-4                    -0.0235                  4.344745976885812E-6
5.0E-4                    -0.0225                  4.467059841295232E-6
5.0E-4                    -0.0215                  4.615177345551203E-6
5.0E-4                    -0.0205                  4.792887371114975E-6
5.0E-4                    -0.0195                  5.0080101900808206E-6
5.0E-4                    -0.0185                  5.318174769321631E-6
5.0E-4                    -0.0175                  5.725746716372567E-6
5.0E-4                    -0.0165                  6.3340534097889645E-6
5.0E-4                    -0.0155                  7.267610331410809E-6
5.0E-4                    -0.0145                  8.83110041053443E-6
5.0E-4                    -0.0135                  1.2043892684137881E-5
5.0E-4                    -0.0125                  2.179333441294273E-5
5.0E-4                    -0.0115                  5.329111112007548E-5
5.0E-4                    -0.0105                  1.5795334654952373E-4
5.0E-4                    -0.0095                  3.376862903153586E-4
5.0E-4                    -0.0085                  4.8334814322862984E-4
5.0E-4                    -0.0075                  5.170608262848569E-4
5.0E-4                    -0.0065                  5.0334094971645E-4
5.0E-4                    -0.0055                  8.313864416283103E-4
5.0E-4                    -0.0045                  0.0025193999383917656
5.0E-4                    -0.0035                  0.00866694070636918
5.0E-4                    -0.0025                  0.016011237843851573
5.0E-4                    -0.0015                  0.020303505216269967
5.0E-4                    -5.0E-4                  0.02356201974128499
5.0E-4                    5.0E-4                   0.025345219196677534
5.0E-4                    0.0015                   0.02547541090599972
5.0E-4                    0.0025                   0.02335533722976306
5.0E-4                    0.0035                   0.01349619051601494
5.0E-4                    0.0045                   0.002932187463759249
5.0E-4                    0.0055                   2.25332996239619E-4
5.0E-4                    0.0065                   3.8040742147335733E-4
5.0E-4                    0.0075                   2.3928243959058188E-4
5.0E-4                    0.0085                   2.1208005320329083E-4
5.0E-4                    0.0095                   1.481549924017368E-4
5.0E-4                    0.0105                   6.795795429098726E-5
5.0E-4                    0.0115                   2.8535108012414903E-5
5.0E-4                    0.0125                   1.3960808771157564E-5
5.0E-4                    0.0135                   9.119568919062299E-6
5.0E-4                    0.0145                   7.231935163231752E-6
5.0E-4                    0.0155                   6.225925826645003E-6
5.0E-4                    0.0165                   5.655548673469496E-6
5.0E-4                    0.0175                   5.2725279302997804E-6
5.0E-4                    0.0185                   5.021798742153745E-6
5.0E-4                    0.0195                   4.8356834846745516E-6
5.0E-4                    0.0205                   4.6885430995621875E-6
5.0E-4                    0.0215                   4.561244691226316E-6
5.0E-4                    0.0225                   4.443160344604E-6
5.0E-4                    0.0235                   4.3270365700467085E-6
5.0E-4                    0.0245                   4.209356593284634E-6
5.0E-4                    0.0255                   4.085104528552039E-6
5.0E-4                    0.0265                   3.940783027746446E-6
5.0E-4                    0.0275                   3.77463464550162E-6
5.0E-4                    0.0285                   3.5887222397601125E-6
5.0E-4                    0.0295                   3.211832326633995E-6
5.0E-4                    0.0305                   2.887256930821946E-6
5.0E-4                    0.0315                   1.4523131807867638E-6
0.0015                    -0.0315                  2.933119553764484E-6
0.0015                    -0.0305                  5.724620656755055E-6
0.0015                    -0.0295                  6.03234474004705E-6
0.0015                    -0.0285                  6.401518409812773E-6
0.0015                    -0.0275                  6.4993169777193155E-6
0.0015                    -0.0265                  6.6014316935620865E-6
0.0015                    -0.0255                  6.702579693774915E-6
0.0015                    -0.0245                  6.809725640202918E-6
0.0015                    -0.0235                  6.9358329489653E-6
0.0015                    -0.0225                  7.0966236754855044E-6
0.0015                    -0.0215                  7.315456689648116E-6
0.0015                    -0.0205                  7.605870595829802E-6
0.0015                    -0.0195                  7.991664086659182E-6
0.0015                    -0.0185                  8.547661360282745E-6
0.0015                    -0.0175                  9.31687541807513E-6
0.0015                    -0.0165                  1.0472762574278628E-5
0.0015                    -0.0155                  1.2318780862356907E-5
0.0015                    -0.0145                  1.5669167570243497E-5
0.0015                    -0.0135                  2.3143080462996812E-5
0.0015                    -0.0125                  4.425212853230091E-5
0.0015                    -0.0115                  1.0904698074226519E-4
0.0015                    -0.0105                  3.232550505242035E-4
0.0015                    -0.0095                  7.269808990018177E-4
0.0015                    -0.0085                  0.0012418814787840307
0.0015                    -0.0075                  0.0019776644640893295
0.0015                    -0.0065                  0.0031299911715343717
0.0015                    -0.0055                  0.0049735934043637735
0.0015                    -0.0045                  0.008110649855352633
0.0015                    -0.0035                  0.012114939670420644
0.0015                    -0.0025                  0.015490527225002758
0.0015                    -0.0015                  0.018131798885338685
0.0015                    -5.0E-4                  0.020627165621913596
0.0015                    5.0E-4                   0.022522103465638772
0.0015                    0.0015                   0.0234792915518635
0.0015                    0.0025                   0.022970799114265233
0.0015                    0.0035                   0.018167470382981502
0.0015                    0.0045                   0.009477366738489902
0.0015                    0.0055                   0.00280479397359735
0.0015                    0.0065                   6.555491109367382E-4
0.0015                    0.0075                   6.510986962647077E-4
0.0015                    0.0085                   4.456297443632773E-4
0.0015                    0.0095                   2.908240171670725E-4
0.0015                    0.0105                   1.3674660150281398E-4
0.0015                    0.0115                   5.740799240231103E-5
0.0015                    0.0125                   2.684365025655438E-5
0.0015                    0.0135                   1.610245512636699E-5
0.0015                    0.0145                   1.188582137218975E-5
0.0015                    0.0155                   9.850590711627192E-6
0.0015                    0.0165                   8.764267677171714E-6
0.0015                    0.0175                   8.109351685174133E-6
0.0015                    0.0185                   7.706719730657792E-6
0.0015                    0.0195                   7.435028413486938E-6
0.0015                    0.0205                   7.2385789889472065E-6
0.0015                    0.0215                   7.0843618007598265E-6
0.0015                    0.0225                   6.9550282290301765E-6
0.0015                    0.0235                   6.840748206773126E-6
0.0015                    0.0245                   6.737538811330581E-6
0.0015                    0.0255                   6.640296497540795E-6
0.0015                    0.0265                   6.538538935679801E-6
0.0015                    0.0275                   6.427448367778044E-6
0.0015                    0.0285                   6.308402792348101E-6
0.0015                    0.0295                   5.907984418422472E-6
0.0015                    0.0305                   5.539771068709859E-6
0.0015                    0.0315                   2.8181055559474484E-6
0.0025                    -0.0315                  3.1120865546450062E-6
0.0025                    -0.0305                  5.8142384385903795E-6
0.0025                    -0.0295                  5.750613813625004E-6
0.0025                    -0.0285                  5.912105344297714E-6
0.0025                    -0.0275                  5.818054100119251E-6
0.0025                    -0.0265                  5.726787972383978E-6
0.0025                    -0.0255                  5.6505733000311385E-6
0.0025                    -0.0245                  5.6161911788915315E-6
0.0025                    -0.0235                  5.631273675547689E-6
0.0025                    -0.0225                  5.710867714179064E-6
0.0025                    -0.0215                  5.872215451508797E-6
0.0025                    -0.0205                  6.138894614369934E-6
0.0025                    -0.0195                  6.544493850825115E-6
0.0025                    -0.0185                  7.137707925809051E-6
0.0025                    -0.0175                  8.018210910551087E-6
0.0025                    -0.0165                  9.402521805726445E-6
0.0025                    -0.0155                  1.1838956724473801E-5
0.0025                    -0.0145                  1.682997051160194E-5
0.0025                    -0.0135                  2.861562675733461E-5
0.0025                    -0.0125                  5.963333004343006E-5
0.0025                    -0.0115                  1.496466370061103E-4
0.0025                    -0.0105                  4.759214670918841E-4
0.0025                    -0.0095                  0.001251796426929529
0.0025                    -0.0085                  0.0027576465412006957
0.0025                    -0.0075                  0.005308541572507869
0.0025                    -0.0065                  0.008525104427912104
0.0025                    -0.0055                  0.011519746635993413
0.0025                    -0.0045                  0.013593298264102872
0.0025                    -0.0035                  0.014454426589965756
0.0025                    -0.0025                  0.014610315777777032
0.0025                    -0.0015                  0.015137220327499564
0.0025                    -5.0E-4                  0.016602427163586196
0.0025                    5.0E-4                   0.01864235135858585
0.0025                    0.0015                   0.02063535273418772
0.0025                    0.0025                   0.021872371025810338
0.0025                    0.0035                   0.020793768652908374
0.0025                    0.0045                   0.016338099736820922
0.0025                    0.0055                   0.01006668737773203
0.0025                    0.0065                   0.0047780149437996
0.0025                    0.0075                   0.0019242945763992905
0.0025                    0.0085                   8.513875676317391E-4
0.0025                    0.0095                   4.8143527617711655E-4
0.0025                    0.0105                   2.152563710913091E-4
0.0025                    0.0115                   7.972678480660383E-5
0.0025                    0.0125                   3.4084409726711354E-5
0.0025                    0.0135                   1.7684061313601096E-5
0.0025                    0.0145                   1.1021729575006562E-5
0.0025                    0.0155                   8.107505403081486E-6
0.0025                    0.0165                   6.7187090672644815E-6
0.0025                    0.0175                   6.019575218286818E-6
0.0025                    0.0185                   5.651791535413765E-6
0.0025                    0.0195                   5.457189147659325E-6
0.0025                    0.0205                   5.3588366334566885E-6
0.0025                    0.0215                   5.320608556191373E-6
0.0025                    0.0225                   5.325359239512546E-6
0.0025                    0.0235                   5.3652414027592184E-6
0.0025                    0.0245                   5.436675315148539E-6
0.0025                    0.0255                   5.535926307611878E-6
0.0025                    0.0265                   5.6612747191843125E-6
0.0025                    0.0275                   5.787362748403328E-6
0.0025                    0.0285                   5.890934685741402E-6
0.0025                    0.0295                   5.704815993829231E-6
0.0025                    0.0305                   5.62930260236132E-6
0.0025                    0.0315                   2.962039248844141E-6
0.0035                    -0.0315                  3.407171553991326E-6
0.0035                    -0.0305                  6.079890408639193E-6
0.0035                    -0.0295                  5.815726820339998E-6
0.0035                    -0.0285                  6.1374956971872875E-6
0.0035                    -0.0275                  6.1376770582693015E-6
0.0035                    -0.0265                  6.079968225125965E-6
0.0035                    -0.0255                  5.989301252023669E-6
0.0035                    -0.0245                  5.921007925294038E-6
0.0035                    -0.0235                  5.896898154633782E-6
0.0035                    -0.0225                  5.9401755297513495E-6
0.0035                    -0.0215                  6.076833272470211E-6
0.0035                    -0.0205                  6.340982809088025E-6
0.0035                    -0.0195                  6.78184682966986E-6
0.0035                    -0.0185                  7.486433890207533E-6
0.0035                    -0.0175                  8.636723117083739E-6
0.0035                    -0.0165                  1.0664372522285864E-5
0.0035                    -0.0155                  1.4625086910665576E-5
0.0035                    -0.0145                  2.3283828685363945E-5
0.0035                    -0.0135                  4.3643915309517865E-5
0.0035                    -0.0125                  9.679101865550471E-5
0.0035                    -0.0115                  2.4809709682990837E-4
0.0035                    -0.0105                  8.150864459476097E-4
0.0035                    -0.0095                  0.0026045682006653518
0.0035                    -0.0085                  0.006156108880129215
0.0035                    -0.0075                  0.01049990869298618
0.0035                    -0.0065                  0.014114662134627684
0.0035                    -0.0055                  0.016242036808107565
0.0035                    -0.0045                  0.016653177827728655
0.0035                    -0.0035                  0.015485808309809576
0.0035                    -0.0025                  0.013426488359082219
0.0035                    -0.0015                  0.011680584731229744
0.0035                    -5.0E-4                  0.011700886584458834
0.0035                    5.0E-4                   0.013830332660242953
0.0035                    0.0015                   0.01707569210801943
0.0035                    0.0025                   0.020218686467215884
0.0035                    0.0035                   0.02200791295964127
0.0035                    0.0045                   0.0212872853078016
0.0035                    0.0055                   0.017620834095949976
0.0035                    0.0065                   0.011937892040255147
0.0035                    0.0075                   0.006318758109360848
0.0035                    0.0085                   0.002695804574390774
0.0035                    0.0095                   0.001124462559364398
0.0035                    0.0105                   4.394480506187219E-4
0.0035                    0.0115                   1.411458165221986E-4
0.0035                    0.0125                   5.777225043099664E-5
0.0035                    0.0135                   2.7042670369034328E-5
0.0035                    0.0145                   1.4810301774132644E-5
0.0035                    0.0155                   9.564549117753821E-6
0.0035                    0.0165                   7.258162248180098E-6
0.0035                    0.0175                   6.198430873261754E-6
0.0035                    0.0185                   5.705302610934001E-6
0.0035                    0.0195                   5.48384152448147E-6
0.0035                    0.0205                   5.4053518468916055E-6
0.0035                    0.0215                   5.411464607432449E-6
0.0035                    0.0225                   5.474531123777414E-6
0.0035                    0.0235                   5.5798076750551015E-6
0.0035                    0.0245                   5.717451867668115E-6
0.0035                    0.0255                   5.875795519756333E-6
0.0035                    0.0265                   6.037858930510397E-6
0.0035                    0.0275                   6.1478276556099415E-6
0.0035                    0.0285                   6.1628209302029694E-6
0.0035                    0.0295                   5.8072515760847626E-6
0.0035                    0.0305                   5.858894010133722E-6
0.0035                    0.0315                   3.2080845905315094E-6
0.0045                    -0.0315                  3.5771366332786876E-6
0.0045                    -0.0305                  6.165188763302875E-6
0.0045                    -0.0295                  5.666168641457415E-6
0.0045                    -0.0285                  6.070020540277619E-6
0.0045                    -0.0275                  6.203446326341882E-6
0.0045                    -0.0265                  6.247552908951276E-6
0.0045                    -0.0255                  6.203585997084045E-6
0.0045                    -0.0245                  6.143427474360838E-6
0.0045                    -0.0235                  6.105965233272857E-6
0.0045                    -0.0225                  6.128041043768242E-6
0.0045                    -0.0215                  6.248970644220597E-6
0.0045                    -0.0205                  6.522457345518732E-6
0.0045                    -0.0195                  7.034359476774301E-6
0.0045                    -0.0185                  7.94867435066961E-6
0.0045                    -0.0175                  9.625170471450277E-6
0.0045                    -0.0165                  1.2903693845909569E-5
0.0045                    -0.0155                  1.9840106369267015E-5
0.0045                    -0.0145                  3.5578283416202E-5
0.0045                    -0.0135                  7.457374668691388E-5
0.0045                    -0.0125                  1.786973762159452E-4
0.0045                    -0.0115                  5.042672311280361E-4
0.0045                    -0.0105                  0.001631828665849331
0.0045                    -0.0095                  0.005242328514860089
0.0045                    -0.0085                  0.01089528655029974
0.0045                    -0.0075                  0.015146331405085936
0.0045                    -0.0065                  0.016678343462017464
0.0045                    -0.0055                  0.016370506855987153
0.0045                    -0.0045                  0.014978032580018895
0.0045                    -0.0035                  0.012925231381119005
0.0045                    -0.0025                  0.01040174572100013
0.0045                    -0.0015                  0.007810944057899879
0.0045                    -5.0E-4                  0.006623118423044333
0.0045                    5.0E-4                   0.008580414970464577
0.0045                    0.0015                   0.012696164080721776
0.0045                    0.0025                   0.017331886774290314
0.0045                    0.0035                   0.021228924858954838
0.0045                    0.0045                   0.023318693310004433
0.0045                    0.0055                   0.022707042106451227
0.0045                    0.0065                   0.019070759774316014
0.0045                    0.0075                   0.01312345549085088
0.0045                    0.0085                   0.00692547792302331
0.0045                    0.0095                   0.0027694336458053675
0.0045                    0.0105                   9.295778758445268E-4
0.0045                    0.0115                   3.0439037749954066E-4
0.0045                    0.0125                   1.1272057557707555E-4
0.0045                    0.0135                   4.733061810749066E-5
0.0045                    0.0145                   2.2377964666079638E-5
0.0045                    0.0155                   1.2522423655346462E-5
0.0045                    0.0165                   8.388633493474429E-6
0.0045                    0.0175                   6.611765689766014E-6
0.0045                    0.0185                   5.841185791922155E-6
0.0045                    0.0195                   5.527939313192081E-6
0.0045                    0.0205                   5.440375850416672E-6
0.0045                    0.0215                   5.476229657908935E-6
0.0045                    0.0225                   5.58582519718795E-6
0.0045                    0.0235                   5.740511522889577E-6
0.0045                    0.0245                   5.918744563129982E-6
0.0045                    0.0255                   6.094681542294816E-6
0.0045                    0.0265                   6.231948875849558E-6
0.0045                    0.0275                   6.255160265226256E-6
0.0045                    0.0285                   6.140017746754512E-6
0.0045                    0.0295                   5.695198634175222E-6
0.0045                    0.0305                   5.944967082620944E-6
0.0045                    0.0315                   3.3670198396514985E-6
0.0055                    -0.0315                  3.738953414859941E-6
0.0055                    -0.0305                  6.268758843768243E-6
0.0055                    -0.0295                  5.528125885397174E-6
0.0055                    -0.0285                  5.946247459751946E-6
0.0055                    -0.0275                  6.169895578148554E-6
0.0055                    -0.0265                  6.326914210935962E-6
0.0055                    -0.0255                  6.365767938418463E-6
0.0055                    -0.0245                  6.349404832303172E-6
0.0055                    -0.0235                  6.324618943096114E-6
0.0055                    -0.0225                  6.342069362437073E-6
0.0055                    -0.0215                  6.460508436191666E-6
0.0055                    -0.0205                  6.769171450565208E-6
0.0055                    -0.0195                  7.426592106588867E-6
0.0055                    -0.0185                  8.754967093708119E-6
0.0055                    -0.0175                  1.1455905916706081E-5
0.0055                    -0.0165                  1.7190837927391508E-5
0.0055                    -0.0155                  2.9866922273843577E-5
0.0055                    -0.0145                  6.068883929366308E-5
0.0055                    -0.0135                  1.4029653388939844E-4
0.0055                    -0.0125                  4.0174360636914633E-4
0.0055                    -0.0115                  0.0011474189436428076
0.0055                    -0.0105                  0.003555969932590926
0.0055                    -0.0095                  0.009292091679674373
0.0055                    -0.0085                  0.015441803956971568
0.0055                    -0.0075                  0.01721809549965544
0.0055                    -0.0065                  0.014989774873274141
0.0055                    -0.0055                  0.011591748098970801
0.0055                    -0.0045                  0.008776101477156737
0.0055                    -0.0035                  0.0068185209689812735
0.0055                    -0.0025                  0.005258674844215577
0.0055                    -0.0015                  0.0037843094696269233
0.0055                    -5.0E-4                  0.0028241981685367982
0.0055                    5.0E-4                   0.004098104694487768
0.0055                    0.0015                   0.007402545632131248
0.0055                    0.0025                   0.011805450316900983
0.0055                    0.0035                   0.016641255642122682
0.0055                    0.0045                   0.02094315457673263
0.0055                    0.0055                   0.02353815835436115
0.0055                    0.0065                   0.02336155515358341
0.0055                    0.0075                   0.019773543546315765
0.0055                    0.0085                   0.013219130917743781
0.0055                    0.0095                   0.006335184062494269
0.0055                    0.0105                   0.0022172905608276615
0.0055                    0.0115                   7.642694144914896E-4
0.0055                    0.0125                   2.696113022739913E-4
0.0055                    0.0135                   9.26148753986116E-5
0.0055                    0.0145                   3.8422291357520886E-5
0.0055                    0.0155                   1.843150249356492E-5
0.0055                    0.0165                   1.0719724101197436E-5
0.0055                    0.0175                   7.5470349174271175E-6
0.0055                    0.0185                   6.237771642817665E-6
0.0055                    0.0195                   5.7265947638953326E-6
0.0055                    0.0205                   5.585176870536045E-6
0.0055                    0.0215                   5.628125955027994E-6
0.0055                    0.0225                   5.7660720436045E-6
0.0055                    0.0235                   5.948112074639922E-6
0.0055                    0.0245                   6.136621743308407E-6
0.0055                    0.0255                   6.290570679788672E-6
0.0055                    0.0265                   6.362083589398787E-6
0.0055                    0.0275                   6.281579256147295E-6
0.0055                    0.0285                   6.0734456590692524E-6
0.0055                    0.0295                   5.604999876045812E-6
0.0055                    0.0305                   6.053521572645329E-6
0.0055                    0.0315                   3.51847400694828E-6
0.0065                    -0.0315                  3.88096961767318E-6
0.0065                    -0.0305                  6.367414836856147E-6
0.0065                    -0.0295                  5.396213694696504E-6
0.0065                    -0.0285                  5.778011948612307E-6
0.0065                    -0.0275                  6.031159053966208E-6
0.0065                    -0.0265                  6.264764272158504E-6
0.0065                    -0.0255                  6.3838355915873875E-6
0.0065                    -0.0245                  6.428025862264277E-6
0.0065                    -0.0235                  6.438705032744747E-6
0.0065                    -0.0225                  6.476318650248419E-6
0.0065                    -0.0215                  6.626042506467977E-6
0.0065                    -0.0205                  7.037032854803224E-6
0.0065                    -0.0195                  8.002899471787814E-6
0.0065                    -0.0185                  1.0136066912151864E-5
0.0065                    -0.0175                  1.480133881348156E-5
0.0065                    -0.0165                  2.51212591927522E-5
0.0065                    -0.0155                  4.944249176631717E-5
0.0065                    -0.0145                  1.1154189187080039E-4
0.0065                    -0.0135                  3.0484185346512814E-4
0.0065                    -0.0125                  8.958208269912752E-4
0.0065                    -0.0115                  0.0025056298315238477
0.0065                    -0.0105                  0.006864661939748876
0.0065                    -0.0095                  0.013814207408647127
0.0065                    -0.0085                  0.018100616666537315
0.0065                    -0.0075                  0.0160563390431165
0.0065                    -0.0065                  0.010515335020313097
0.0065                    -0.0055                  0.005826875829826164