% Model:              Benchmark260518.mph
% Version:            COMSOL 6.2.0.339
% Date:               May 20 2026, 05:39
% Dimension:          2
% Nodes:              4096
% Expressions:        1
% Description:        速度大小
% Length unit:        m
% x                       y                        spf.U (m/s)
5.0E-4                    -0.0315                  1.409318218644603E-6
5.0E-4                    -0.0305                  2.7685326570506094E-6
5.0E-4                    -0.0295                  2.8653096851260662E-6
5.0E-4                    -0.0285                  3.0000749635588844E-6
5.0E-4                    -0.0275                  3.1256050367497146E-6
5.0E-4                    -0.0265                  3.2994591498510325E-6
5.0E-4                    -0.0255                  3.4202932654105413E-6
5.0E-4                    -0.0245                  3.5052831192968613E-6
5.0E-4                    -0.0235                  3.519804950317707E-6
5.0E-4                    -0.0225                  3.5268653755635017E-6
5.0E-4                    -0.0215                  3.743304922364049E-6
5.0E-4                    -0.0205                  4.004943315387961E-6
5.0E-4                    -0.0195                  4.4449151008380965E-6
5.0E-4                    -0.0185                  5.1303374303326835E-6
5.0E-4                    -0.0175                  5.8392642363451545E-6
5.0E-4                    -0.0165                  6.711621701953395E-6
5.0E-4                    -0.0155                  8.122280101146963E-6
5.0E-4                    -0.0145                  1.0899131554546611E-5
5.0E-4                    -0.0135                  1.8734655013248868E-5
5.0E-4                    -0.0125                  4.237821532627732E-5
5.0E-4                    -0.0115                  1.1736434391903568E-4
5.0E-4                    -0.0105                  2.3339164533752382E-4
5.0E-4                    -0.0095                  3.199857549469605E-4
5.0E-4                    -0.0085                  3.946990587806556E-4
5.0E-4                    -0.0075                  6.49138159880407E-4
5.0E-4                    -0.0065                  0.0012626245745792823
5.0E-4                    -0.0055                  0.002165263348576961
5.0E-4                    -0.0045                  0.0031414889470869766
5.0E-4                    -0.0035                  0.003948417465944572
5.0E-4                    -0.0025                  0.004383375554440615
5.0E-4                    -0.0015                  0.004336811438985456
5.0E-4                    -5.0E-4                  0.0038224557969681124
5.0E-4                    5.0E-4                   0.0029460557680179235
5.0E-4                    0.0015                   0.0018908569956901503
5.0E-4                    0.0025                   8.796364804775152E-4
5.0E-4                    0.0035                   5.616255866670938E-4
5.0E-4                    0.0045                   9.354786925033045E-4
5.0E-4                    0.0055                   8.505478942030889E-4
5.0E-4                    0.0065                   0.001031173278321628
5.0E-4                    0.0075                   0.006631679478590347
5.0E-4                    0.0085                   0.0223448212961427
5.0E-4                    0.0095                   0.03307990820743437
5.0E-4                    0.0105                   0.030423649897386922
5.0E-4                    0.0115                   0.024883759725313096
5.0E-4                    0.0125                   0.0178284284886912
5.0E-4                    0.0135                   0.011802724337206102
5.0E-4                    0.0145                   0.007507170745997791
5.0E-4                    0.0155                   0.006179056703656876
5.0E-4                    0.0165                   0.0069930087822008226
5.0E-4                    0.0175                   0.007982812647127342
5.0E-4                    0.0185                   0.008332036950360206
5.0E-4                    0.0195                   0.007852002539981966
5.0E-4                    0.0205                   0.006518656780172467
5.0E-4                    0.0215                   0.004549502485318018
5.0E-4                    0.0225                   0.002805382912979397
5.0E-4                    0.0235                   0.0012853721389912058
5.0E-4                    0.0245                   2.7291803118156203E-4
5.0E-4                    0.0255                   8.182498073186224E-5
5.0E-4                    0.0265                   3.119226353368451E-5
5.0E-4                    0.0275                   1.3931565869778892E-5
5.0E-4                    0.0285                   7.965736767352001E-6
5.0E-4                    0.0295                   5.609001232400977E-6
5.0E-4                    0.0305                   4.6611146838078265E-6
5.0E-4                    0.0315                   2.301433032849811E-6
0.0015                    -0.0315                  2.7641200297358116E-6
0.0015                    -0.0305                  5.451388905215794E-6
0.0015                    -0.0295                  5.6635331021977975E-6
0.0015                    -0.0285                  5.850081121308645E-6
0.0015                    -0.0275                  5.932019477185302E-6
0.0015                    -0.0265                  6.0775704188925475E-6
0.0015                    -0.0255                  6.175849053166591E-6
0.0015                    -0.0245                  6.235005894724184E-6
0.0015                    -0.0235                  6.225527018980812E-6
0.0015                    -0.0225                  6.225323131118731E-6
0.0015                    -0.0215                  6.441762028798554E-6
0.0015                    -0.0205                  6.7465493917600205E-6
0.0015                    -0.0195                  7.278402142192626E-6
0.0015                    -0.0185                  8.123099099054019E-6
0.0015                    -0.0175                  9.133273838520888E-6
0.0015                    -0.0165                  1.0599052808122219E-5
0.0015                    -0.0155                  1.3346330652343268E-5
0.0015                    -0.0145                  1.9588452765060703E-5
0.0015                    -0.0135                  3.629422830945294E-5
0.0015                    -0.0125                  8.14637440594332E-5
0.0015                    -0.0115                  2.1702267173241756E-4
0.0015                    -0.0105                  4.607457904307853E-4
0.0015                    -0.0095                  8.090231805745299E-4
0.0015                    -0.0085                  0.0015565675380393351
0.0015                    -0.0075                  0.0031697944994455167
0.0015                    -0.0065                  0.00559925089218553
0.0015                    -0.0055                  0.008395581055364006
0.0015                    -0.0045                  0.0110468057180032
0.0015                    -0.0035                  0.01310283283709891
0.0015                    -0.0025                  0.014296679726086113
0.0015                    -0.0015                  0.014533326870157015
0.0015                    -5.0E-4                  0.013851050760654243
0.0015                    5.0E-4                   0.01238012595392044
0.0015                    0.0015                   0.010351019487436011
0.0015                    0.0025                   0.00804394861435034
0.0015                    0.0035                   0.005818408564328829
0.0015                    0.0045                   0.0043584132609015905
0.0015                    0.0055                   0.004859800485794862
0.0015                    0.0065                   0.009027035405368455
0.0015                    0.0075                   0.018823403971531694
0.0015                    0.0085                   0.029299234040488467
0.0015                    0.0095                   0.0318648078541919
0.0015                    0.0105                   0.027856610469889184
0.0015                    0.0115                   0.021393842389848178
0.0015                    0.0125                   0.014377247562676455
0.0015                    0.0135                   0.009013769570752884
0.0015                    0.0145                   0.006527720194846625
0.0015                    0.0155                   0.00743616183034686
0.0015                    0.0165                   0.008953522766745044
0.0015                    0.0175                   0.009734561571205145
0.0015                    0.0185                   0.009738113943909277
0.0015                    0.0195                   0.009186530265748507
0.0015                    0.0205                   0.008218498184778218
0.0015                    0.0215                   0.006801119652352767
0.0015                    0.0225                   0.004626040395238254
0.0015                    0.0235                   0.0021539287205467783
0.0015                    0.0245                   6.959060492755737E-4
0.0015                    0.0255                   2.078323557703481E-4
0.0015                    0.0265                   7.057418421364925E-5
0.0015                    0.0275                   3.0130271435227865E-5
0.0015                    0.0285                   1.662473784969431E-5
0.0015                    0.0295                   1.128485453562301E-5
0.0015                    0.0305                   9.217191389035222E-6
0.0015                    0.0315                   4.532239248232551E-6
0.0025                    -0.0315                  2.847007867563139E-6
0.0025                    -0.0305                  5.637031178090741E-6
0.0025                    -0.0295                  6.025485959805033E-6
0.0025                    -0.0285                  6.32638386621519E-6
0.0025                    -0.0275                  6.2973355651542676E-6
0.0025                    -0.0265                  6.246150863735558E-6
0.0025                    -0.0255                  6.184305221707816E-6
0.0025                    -0.0245                  6.11695630724219E-6
0.0025                    -0.0235                  6.046225582414647E-6
0.0025                    -0.0225                  5.988721651088463E-6
0.0025                    -0.0215                  5.952384450280244E-6
0.0025                    -0.0205                  5.986182140195435E-6
0.0025                    -0.0195                  6.129780918294344E-6
0.0025                    -0.0185                  6.46091386340016E-6
0.0025                    -0.0175                  7.1632207753344086E-6
0.0025                    -0.0165                  8.664721566167057E-6
0.0025                    -0.0155                  1.2154970042421842E-5
0.0025                    -0.0145                  2.1052198378754458E-5
0.0025                    -0.0135                  4.560043698147432E-5
0.0025                    -0.0125                  1.1487667062453727E-4
0.0025                    -0.0115                  3.1035926147121405E-4
0.0025                    -0.0105                  7.676223663672677E-4
0.0025                    -0.0095                  0.0019032974485029635
0.0025                    -0.0085                  0.004477558134767744
0.0025                    -0.0075                  0.008494615407064888
0.0025                    -0.0065                  0.012965102553526767
0.0025                    -0.0055                  0.016981323060516338
0.0025                    -0.0045                  0.02010887021664853
0.0025                    -0.0035                  0.022296785524681704
0.0025                    -0.0025                  0.023678259478048348
0.0025                    -0.0015                  0.02438060960454628
0.0025                    -5.0E-4                  0.024454280605975993
0.0025                    5.0E-4                   0.023875798044571787
0.0025                    0.0015                   0.022609102010526013
0.0025                    0.0025                   0.020799937357959975
0.0025                    0.0035                   0.018893077010480624
0.0025                    0.0045                   0.0176432074743784
0.0025                    0.0055                   0.01820662147935092
0.0025                    0.0065                   0.021693990219257428
0.0025                    0.0075                   0.026923322753580458
0.0025                    0.0085                   0.030286103683037944
0.0025                    0.0095                   0.02900762199055761
0.0025                    0.0105                   0.023849968004279083
0.0025                    0.0115                   0.016858959680907087
0.0025                    0.0125                   0.01020145263981328
0.0025                    0.0135                   0.0061427750220183356
0.0025                    0.0145                   0.006155945238416259
0.0025                    0.0155                   0.007685234355417897
0.0025                    0.0165                   0.008362630108303607
0.0025                    0.0175                   0.008248944090426357
0.0025                    0.0185                   0.008000864672427697
0.0025                    0.0195                   0.008129534495285043
0.0025                    0.0205                   0.008734883726597876
0.0025                    0.0215                   0.009011514309625945
0.0025                    0.0225                   0.0072481234949686515
0.0025                    0.0235                   0.003780482997749696
0.0025                    0.0245                   0.00128895863377289
0.0025                    0.0255                   3.9087882302700505E-4
0.0025                    0.0265                   1.1657132262727627E-4
0.0025                    0.0275                   4.6237732369446634E-5
0.0025                    0.0285                   2.2381126804276685E-5
0.0025                    0.0295                   1.340437610707524E-5
0.0025                    0.0305                   1.0198480878597328E-5
0.0025                    0.0315                   5.020254211092601E-6
0.0035                    -0.0315                  2.9507171702141035E-6
0.0035                    -0.0305                  5.770078805582445E-6
0.0035                    -0.0295                  6.279932635996476E-6
0.0035                    -0.0285                  6.865583846352936E-6
0.0035                    -0.0275                  6.985419306998566E-6
0.0035                    -0.0265                  6.98958842988867E-6
0.0035                    -0.0255                  6.945606288777929E-6
0.0035                    -0.0245                  6.898679112341491E-6
0.0035                    -0.0235                  6.8456305710458255E-6
0.0035                    -0.0225                  6.783018164275086E-6
0.0035                    -0.0215                  6.727329996429336E-6
0.0035                    -0.0205                  6.722464664586239E-6
0.0035                    -0.0195                  6.861549066708842E-6
0.0035                    -0.0185                  7.304840663054017E-6
0.0035                    -0.0175                  8.353373559648866E-6
0.0035                    -0.0165                  1.0714827385181089E-5
0.0035                    -0.0155                  1.6218673273888795E-5
0.0035                    -0.0145                  2.9872270277219406E-5
0.0035                    -0.0135                  6.991982624842278E-5
0.0035                    -0.0125                  2.136632400870664E-4
0.0035                    -0.0115                  6.273288239536508E-4
0.0035                    -0.0105                  0.00176336367323175
0.0035                    -0.0095                  0.004664597465357746
0.0035                    -0.0085                  0.009671873825292634
0.0035                    -0.0075                  0.015373801844550618
0.0035                    -0.0065                  0.02012661427744865
0.0035                    -0.0055                  0.02335928773044478
0.0035                    -0.0045                  0.02533877516263087
0.0035                    -0.0035                  0.026530389742294932
0.0035                    -0.0025                  0.027312284467428127
0.0035                    -0.0015                  0.02795993498324426
0.0035                    -5.0E-4                  0.02860963336944818
0.0035                    5.0E-4                   0.02915416778318601
0.0035                    0.0015                   0.029312055663625554
0.0035                    0.0025                   0.028857024660754984
0.0035                    0.0035                   0.02791644749972447
0.0035                    0.0045                   0.027050101971031925
0.0035                    0.0055                   0.02693391279648376
0.0035                    0.0065                   0.027778600042536794
0.0035                    0.0075                   0.028718745585133112
0.0035                    0.0085                   0.02808639662180997
0.0035                    0.0095                   0.024538216510990588
0.0035                    0.0105                   0.018526747583408696
0.0035                    0.0115                   0.011630633412184238
0.0035                    0.0125                   0.0059328867322435115
0.0035                    0.0135                   0.004032646501065662
0.0035                    0.0145                   0.004967769907738107
0.0035                    0.0155                   0.0053159575308547174
0.0035                    0.0165                   0.004869175559049519
0.0035                    0.0175                   0.004320280755723931
0.0035                    0.0185                   0.004266529945014922
0.0035                    0.0195                   0.005213802375202411
0.0035                    0.0205                   0.007397710185278861
0.0035                    0.0215                   0.009723902898604551
0.0035                    0.0225                   0.009532980668890155
0.0035                    0.0235                   0.006078803365215701
0.0035                    0.0245                   0.0024656722346593205
0.0035                    0.0255                   7.731260632975742E-4
0.0035                    0.0265                   2.3628079709138558E-4
0.0035                    0.0275                   7.708823989942632E-5
0.0035                    0.0285                   3.2646378935131644E-5
0.0035                    0.0295                   1.7127044983173084E-5
0.0035                    0.0305                   1.1973788323437567E-5
0.0035                    0.0315                   5.904121057198646E-6
0.0045                    -0.0315                  3.007929387531914E-6
0.0045                    -0.0305                  5.756642240954958E-6
0.0045                    -0.0295                  6.1948913719265625E-6
0.0045                    -0.0285                  6.924312716213071E-6
0.0045                    -0.0275                  7.210948924702228E-6
0.0045                    -0.0265                  7.335067724529884E-6
0.0045                    -0.0255                  7.376618056813761E-6
0.0045                    -0.0245                  7.4178009751747854E-6
0.0045                    -0.0235                  7.47145305853138E-6
0.0045                    -0.0225                  7.529742238939191E-6
0.0045                    -0.0215                  7.600818831474108E-6
0.0045                    -0.0205                  7.75512531402284E-6
0.0045                    -0.0195                  8.158547313466636E-6
0.0045                    -0.0185                  9.099828767596946E-6
0.0045                    -0.0175                  1.1082204704790282E-5
0.0045                    -0.0165                  1.5213339990107182E-5
0.0045                    -0.0155                  2.426166079118586E-5
0.0045                    -0.0145                  4.70734005005943E-5
0.0045                    -0.0135                  1.1151073956910345E-4
0.0045                    -0.0125                  3.759638213954255E-4
0.0045                    -0.0115                  0.0012218645730650939
0.0045                    -0.0105                  0.003775909397878856
0.0045                    -0.0095                  0.009063973421492505
0.0045                    -0.0085                  0.0156660934445045
0.0045                    -0.0075                  0.020936191170338667
0.0045                    -0.0065                  0.023835444764573742
0.0045                    -0.0055                  0.024803447165867812
0.0045                    -0.0045                  0.024512731416650085
0.0045                    -0.0035                  0.023575659399066876
0.0045                    -0.0025                  0.022735229854377946
0.0045                    -0.0015                  0.022606183971225297
0.0045                    -5.0E-4                  0.023407960223095995
0.0045                    5.0E-4                   0.024958228282746266
0.0045                    0.0015                   0.02676909149597491
0.0045                    0.0025                   0.028181440964100943
0.0045                    0.0035                   0.028691611083169925
0.0045                    0.0045                   0.028369338297366795
0.0045                    0.0055                   0.02766759401838867
0.0045                    0.0065                   0.026852669178719944
0.0045                    0.0075                   0.02557665401975782
0.0045                    0.0085                   0.022937125200215305
0.0045                    0.0095                   0.018327733766830164
0.0045                    0.0105                   0.012385368959844326
0.0045                    0.0115                   0.006550605193585232
0.0045                    0.0125                   0.0027500955451152864
0.0045                    0.0135                   0.0024237294462380573
0.0045                    0.0145                   0.002597932286169722
0.0045                    0.0155                   0.002189672862192927
0.0045                    0.0165                   0.0016937460305904112
0.0045                    0.0175                   0.0014557984319916828
0.0045                    0.0185                   0.0016244607922879903
0.0045                    0.0195                   0.0025756691831411715
0.0045                    0.0205                   0.005002836966031371
0.0045                    0.0215                   0.008640901948963747
0.0045                    0.0225                   0.010677593242153277
0.0045                    0.0235                   0.008528611765698262
0.0045                    0.0245                   0.0042558474153598855
0.0045                    0.0255                   0.0014432198537647444
0.0045                    0.0265                   4.2882054939175486E-4
0.0045                    0.0275                   1.2281290411619852E-4
0.0045                    0.0285                   4.7684406707925834E-5
0.0045                    0.0295                   2.1797430695606046E-5
0.0045                    0.0305                   1.4398907685441237E-5
0.0045                    0.0315                   7.21548804334874E-6
0.0055                    -0.0315                  3.064748382607245E-6
0.0055                    -0.0305                  5.768941750739727E-6
0.0055                    -0.0295                  6.102746318767423E-6
0.0055                    -0.0285                  6.8681292383982375E-6
0.0055                    -0.0275                  7.253217733770133E-6
0.0055                    -0.0265                  7.4940205227290305E-6
0.0055                    -0.0255                  7.653708917765031E-6
0.0055                    -0.0245                  7.847886257568772E-6
0.0055                    -0.0235                  8.129528986850578E-6
0.0055                    -0.0225                  8.512710895076322E-6
0.0055                    -0.0215                  9.020203596667513E-6
0.0055                    -0.0205                  9.777720651265704E-6
0.0055                    -0.0195                  1.1110980770853265E-5
0.0055                    -0.0185                  1.3639975355581699E-5
0.0055                    -0.0175                  1.8231798306711957E-5
0.0055                    -0.0165                  2.649202504851195E-5
0.0055                    -0.0155                  4.368067580354155E-5
0.0055                    -0.0145                  8.639045816696822E-5
0.0055                    -0.0135                  2.2787199576522298E-4
0.0055                    -0.0125                  7.231806333449045E-4
0.0055                    -0.0115                  0.0024003891018329767
0.0055                    -0.0105                  0.006988893427395441
0.0055                    -0.0095                  0.014227178548991975
0.0055                    -0.0085                  0.020624911386366348
0.0055                    -0.0075                  0.023780262416788593
0.0055                    -0.0065                  0.023964276944231654
0.0055                    -0.0055                  0.022013850579860977
0.0055                    -0.0045                  0.01877265748036092
0.0055                    -0.0035                  0.01545686479096368
0.0055                    -0.0025                  0.013119296200780669
0.0055                    -0.0015                  0.012166440470432372
0.0055                    -5.0E-4                  0.012532336062319219
0.0055                    5.0E-4                   0.014024202213870086
0.0055                    0.0015                   0.016321162393213413
0.0055                    0.0025                   0.0188825335737587
0.0055                    0.0035                   0.020955253933382947
0.0055                    0.0045                   0.02189417312633517
0.0055                    0.0055                   0.02160211244406504
0.0055                    0.0065                   0.020387945148801788
0.0055                    0.0075                   0.018365158093385105
0.0055                    0.0085                   0.01532621366337912
0.0055                    0.0095                   0.011216846421448498
0.0055                    0.0105                   0.006680580760112519
0.0055                    0.0115                   0.0029709171524731305
0.0055                    0.0125                   0.0012396744914116796
0.0055                    0.0135                   0.0010380339003447983
0.0055                    0.0145                   8.850960624497666E-4
0.0055                    0.0155                   6.717600283426581E-4
0.0055                    0.0165                   5.20581687757367E-4
0.0055                    0.0175                   4.906260385228815E-4
0.0055                    0.0185                   6.104669047748749E-4
0.0055                    0.0195                   0.0011431342152153324
0.0055                    0.0205                   0.0028031023698849218
0.0055                    0.0215                   0.006385563584234229
0.0055                    0.0225                   0.01022212004714117
0.0055                    0.0235                   0.01034545830196102
0.0055                    0.0245                   0.006392221919375891
0.0055                    0.0255                   0.002477083402645668
0.0055                    0.0265                   7.435735799611683E-4
0.0055                    0.0275                   2.1724726444883783E-4
0.0055                    0.0285                   6.932769643284691E-5
0.0055                    0.0295                   2.7849965861607793E-5
0.0055                    0.0305                   1.761455349689949E-5
0.0055                    0.0315                   8.984988023700514E-6
0.0065                    -0.0315                  3.1196507738983805E-6
0.0065                    -0.0305                  5.799437768579131E-6
0.0065                    -0.0295                  6.0359404747600835E-6
0.0065                    -0.0285                  6.791609548902644E-6
0.0065                    -0.0275                  7.211806559939199E-6
0.0065                    -0.0265                  7.524729309789103E-6
0.0065                    -0.0255                  7.798600347232615E-6
0.0065                    -0.0245                  8.204913122349692E-6
0.0065                    -0.0235                  8.888101602559122E-6
0.0065                    -0.0225                  9.956287562366533E-6
0.0065                    -0.0215                  1.1523392254607081E-5
0.0065                    -0.0205                  1.3889628638410582E-5
0.0065                    -0.0195                  1.7838551134689865E-5
0.0065                    -0.0185                  2.4827980732253466E-5
0.0065                    -0.0175                  3.7656950289280005E-5
0.0065                    -0.0165                  5.9008760921669696E-5
0.0065                    -0.0155                  9.481240347144164E-5
0.0065                    -0.0145                  1.9587671396190684E-4
0.0065                    -0.0135                  5.148000741530289E-4
0.0065                    -0.0125                  0.0014370037092755496
0.0065                    -0.0115                  0.0044751396560113905
0.0065                    -0.0105                  0.011103822616784779
0.0065                    -0.0095                  0.018940049141890358
0.0065                    -0.0085                  0.023654537203365272
0.0065                    -0.0075                  0.024139009748646932
0.0065                    -0.0065                  0.02133785507249103
0.0065                    -0.0055                  0.016348260417824334