% Model:              Benchmark260518.mph
% Version:            COMSOL 6.2.0.339
% Date:               May 21 2026, 14:28
% Dimension:          2
% Nodes:              4096
% Expressions:        1
% Description:        速度大小
% Length unit:        m
% x                       y                        spf.U (m/s)
% mirrored_by_python_y_to_minus_y, coord_match_decimals=12
0.0005 -0.0315 3.0602296277e-06
0.0005 -0.0305 4.58157002054e-06
0.0005 -0.0295 3.12015465903e-06
0.0005 -0.0285 3.22579790619e-06
0.0005 -0.0275 3.85840681518e-06
0.0005 -0.0265 6.12764222712e-06
0.0005 -0.0255 1.37789686296e-05
0.0005 -0.0245 4.20785137875e-05
0.0005 -0.0235 0.000210442588796
0.0005 -0.0225 0.00114528728183
0.0005 -0.0215 0.00416328474071
0.0005 -0.0205 0.00948827260787
0.0005 -0.0195 0.0156666075846
0.0005 -0.0185 0.0205734257834
0.0005 -0.0175 0.0230021951777
0.0005 -0.0165 0.0150754888407
0.0005 -0.0155 0.0035368251125
0.0005 -0.0145 0.000831386865992
0.0005 -0.0135 0.00108485564033
0.0005 -0.0125 0.000778364312347
0.0005 -0.0115 0.000821136352895
0.0005 -0.0105 0.00155880173362
0.0005 -0.0095 0.00215523497331
0.0005 -0.0085 0.00227223531232
0.0005 -0.0075 0.00186001965412
0.0005 -0.0065 0.00119353398767
0.0005 -0.0055 0.00063788604197
0.0005 -0.0045 0.000292133297986
0.0005 -0.0035 0.000110752032935
0.0005 -0.0025 4.48602374013e-05
0.0005 -0.0015 2.18595800528e-05
0.0005 -0.0005 1.40492770988e-05
0.0005 0.0005 1.09604020408e-05
0.0005 0.0015 9.40202955428e-06
0.0005 0.0025 8.49772742243e-06
0.0005 0.0035 7.90912076331e-06
0.0005 0.0045 7.5411332878e-06
0.0005 0.0055 7.24519071732e-06
0.0005 0.0065 7.01770022417e-06
0.0005 0.0075 6.83972878937e-06
0.0005 0.0085 6.65124307496e-06
0.0005 0.0095 6.46884114818e-06
0.0005 0.0105 6.27949984824e-06
0.0005 0.0115 6.11559888119e-06
0.0005 0.0125 5.99745093488e-06
0.0005 0.0135 5.86606482468e-06
0.0005 0.0145 5.76450207578e-06
0.0005 0.0155 5.69547101134e-06
0.0005 0.0165 5.61789251171e-06
0.0005 0.0175 5.53347043052e-06
0.0005 0.0185 5.44272050491e-06
0.0005 0.0195 5.34313456968e-06
0.0005 0.0205 5.23547116169e-06
0.0005 0.0215 5.12172706326e-06
0.0005 0.0225 5.0027724687e-06
0.0005 0.0235 4.87904272234e-06
0.0005 0.0245 4.74825483473e-06
0.0005 0.0255 4.60246109645e-06
0.0005 0.0265 4.43649670721e-06
0.0005 0.0275 4.23028659988e-06
0.0005 0.0285 4.01765966936e-06
0.0005 0.0295 3.61244567304e-06
0.0005 0.0305 3.22855731158e-06
0.0005 0.0315 1.61294216053e-06
0.0015 -0.0315 2.10320882323e-06
0.0015 -0.0305 3.61299791905e-06
0.0015 -0.0295 3.07683950875e-06
0.0015 -0.0285 3.17744703382e-06
0.0015 -0.0275 3.76149917813e-06
0.0015 -0.0265 5.88535102112e-06
0.0015 -0.0255 1.32868198526e-05
0.0015 -0.0245 4.15730196835e-05
0.0015 -0.0235 0.000195103561201
0.0015 -0.0225 0.000751488033409
0.0015 -0.0215 0.00264279828845
0.0015 -0.0205 0.00713814201151
0.0015 -0.0195 0.0136197453339
0.0015 -0.0185 0.0195953347311
0.0015 -0.0175 0.0231284770941
0.0015 -0.0165 0.0200298331409
0.0015 -0.0155 0.010317356337
0.0015 -0.0145 0.00259855821941
0.0015 -0.0135 0.000231365809775
0.0015 -0.0125 0.00210855781503
0.0015 -0.0115 0.00409104769911
0.0015 -0.0105 0.00552475906121
0.0015 -0.0095 0.00622604879911
0.0015 -0.0085 0.00610330389788
0.0015 -0.0075 0.00502929446699
0.0015 -0.0065 0.00322895108036
0.0015 -0.0055 0.00153167969154
0.0015 -0.0045 0.000592266639181
0.0015 -0.0035 0.000220415194807
0.0015 -0.0025 9.02642922381e-05
0.0015 -0.0015 4.34673783316e-05
0.0015 -0.0005 2.62913012303e-05
0.0015 0.0005 1.90707220679e-05
0.0015 0.0015 1.55583267263e-05
0.0015 0.0025 1.36215156467e-05
0.0015 0.0035 1.24666668522e-05
0.0015 0.0045 1.17829080723e-05
0.0015 0.0055 1.13035060214e-05
0.0015 0.0065 1.0935910879e-05
0.0015 0.0075 1.06183751764e-05
0.0015 0.0085 1.02854665849e-05
0.0015 0.0095 9.95844274935e-06
0.0015 0.0105 9.64058086131e-06
0.0015 0.0115 9.37241516925e-06
0.0015 0.0125 9.17412744007e-06
0.0015 0.0135 8.98897178364e-06
0.0015 0.0145 8.84985006599e-06
0.0015 0.0155 8.75341332324e-06
0.0015 0.0165 8.65336994441e-06
0.0015 0.0175 8.5444154291e-06
0.0015 0.0185 8.4260807154e-06
0.0015 0.0195 8.29748039268e-06
0.0015 0.0205 8.16221877974e-06
0.0015 0.0215 8.02574713254e-06
0.0015 0.0225 7.8922846057e-06
0.0015 0.0235 7.76491846832e-06
0.0015 0.0245 7.64345457652e-06
0.0015 0.0255 7.52155345184e-06
0.0015 0.0265 7.39555172571e-06
0.0015 0.0275 7.24439121053e-06
0.0015 0.0285 7.10082478936e-06
0.0015 0.0295 6.66004845224e-06
0.0015 0.0305 6.21908270282e-06
0.0015 0.0315 3.15044098478e-06
0.0025 -0.0315 1.93723847906e-06
0.0025 -0.0305 3.2639313042e-06
0.0025 -0.0295 2.83795420247e-06
0.0025 -0.0285 3.09639627143e-06
0.0025 -0.0275 3.66111805428e-06
0.0025 -0.0265 5.64757502566e-06
0.0025 -0.0255 1.24928091335e-05
0.0025 -0.0245 3.69498291074e-05
0.0025 -0.0235 0.000149039820586
0.0025 -0.0225 0.000532118138796
0.0025 -0.0215 0.00168217636421
0.0025 -0.0205 0.00491205955117
0.0025 -0.0195 0.0107847297898
0.0025 -0.0185 0.0173452131955
0.0025 -0.0175 0.0218635160408
0.0025 -0.0165 0.0215067671789
0.0025 -0.0155 0.0156384107557
0.0025 -0.0145 0.00849181668273
0.0025 -0.0135 0.00547355302304
0.0025 -0.0125 0.00706862699383
0.0025 -0.0115 0.00886233467726
0.0025 -0.0105 0.00929401708643
0.0025 -0.0095 0.00887892709844
0.0025 -0.0085 0.00828827442794
0.0025 -0.0075 0.00742677513112
0.0025 -0.0065 0.00556354998044
0.0025 -0.0055 0.00292716947971
0.0025 -0.0045 0.00106963898216
0.0025 -0.0035 0.000370662315764
0.0025 -0.0025 0.000139964277803
0.0025 -0.0015 6.50024031462e-05
0.0025 -0.0005 3.50084701746e-05
0.0025 0.0005 2.19902029575e-05
0.0025 0.0015 1.56175446305e-05
0.0025 0.0025 1.22382179952e-05
0.0025 0.0035 1.04017914897e-05
0.0025 0.0045 9.42270699271e-06
0.0025 0.0055 8.87399630778e-06
0.0025 0.0065 8.47656486767e-06
0.0025 0.0075 8.1045334007e-06
0.0025 0.0085 7.736031409e-06
0.0025 0.0095 7.38732890522e-06
0.0025 0.0105 7.08683768739e-06
0.0025 0.0115 6.85101614988e-06
0.0025 0.0125 6.68005046474e-06
0.0025 0.0135 6.56852493147e-06
0.0025 0.0145 6.49773477753e-06
0.0025 0.0155 6.44942474537e-06
0.0025 0.0165 6.40798394917e-06
0.0025 0.0175 6.36194499878e-06
0.0025 0.0185 6.31033565915e-06
0.0025 0.0195 6.25850395467e-06
0.0025 0.0205 6.21467704949e-06
0.0025 0.0215 6.18761066482e-06
0.0025 0.0225 6.18483761027e-06
0.0025 0.0235 6.21154209712e-06
0.0025 0.0245 6.27046539146e-06
0.0025 0.0255 6.36048130141e-06
0.0025 0.0265 6.47836400882e-06
0.0025 0.0275 6.5977280217e-06
0.0025 0.0285 6.69288947238e-06
0.0025 0.0295 6.4558941133e-06
0.0025 0.0305 6.3414040416e-06
0.0025 0.0315 3.3275868592e-06
0.0035 -0.0315 1.95991399362e-06
0.0035 -0.0305 3.22913265683e-06
0.0035 -0.0295 2.70176882244e-06
0.0035 -0.0285 2.96503206761e-06
0.0035 -0.0275 3.52215329345e-06
0.0035 -0.0265 5.31115683989e-06
0.0035 -0.0255 1.10169069501e-05
0.0035 -0.0245 2.97886005312e-05
0.0035 -0.0235 0.000107694410222
0.0035 -0.0225 0.000360746321935
0.0035 -0.0215 0.00107651083954
0.0035 -0.0205 0.00320774740943
0.0035 -0.0195 0.00789830703681
0.0035 -0.0185 0.0142695597209
0.0035 -0.0175 0.0194830967545
0.0035 -0.0165 0.0208584901748
0.0035 -0.0155 0.017774109844
0.0035 -0.0145 0.0125884197609
0.0035 -0.0135 0.00982677326644
0.0035 -0.0125 0.0106467212829
0.0035 -0.0115 0.0110803165037
0.0035 -0.0105 0.00992541684015
0.0035 -0.0095 0.00857493124972
0.0035 -0.0085 0.00828000572333
0.0035 -0.0075 0.00875200994684
0.0035 -0.0065 0.00815365462795
0.0035 -0.0055 0.0054502543063
0.0035 -0.0045 0.00247114831964
0.0035 -0.0035 0.000912359481344
0.0035 -0.0025 0.000340826707546
0.0035 -0.0015 0.000138364949223
0.0035 -0.0005 6.95207369042e-05
0.0035 0.0005 3.98309317029e-05
0.0035 0.0015 2.53813740196e-05
0.0035 0.0025 1.74563933271e-05
0.0035 0.0035 1.31843187375e-05
0.0035 0.0045 1.10179155049e-05
0.0035 0.0055 9.8526321658e-06
0.0035 0.0065 9.07492498758e-06
0.0035 0.0075 8.44170432421e-06
0.0035 0.0085 7.89840417759e-06
0.0035 0.0095 7.45009388332e-06
0.0035 0.0105 7.10621605655e-06
0.0035 0.0115 6.86761128762e-06
0.0035 0.0125 6.72270975894e-06
0.0035 0.0135 6.64724167134e-06
0.0035 0.0145 6.61166081313e-06
0.0035 0.0155 6.58802770385e-06
0.0035 0.0165 6.55807827243e-06
0.0035 0.0175 6.51674479629e-06
0.0035 0.0185 6.46952267345e-06
0.0035 0.0195 6.42809017473e-06
0.0035 0.0205 6.4054007072e-06
0.0035 0.0215 6.41218363801e-06
0.0035 0.0225 6.45521371753e-06
0.0035 0.0235 6.53659170328e-06
0.0035 0.0245 6.65357029727e-06
0.0035 0.0255 6.79528136509e-06
0.0035 0.0265 6.94280343007e-06
0.0035 0.0275 7.03213511901e-06
0.0035 0.0285 7.01447713425e-06
0.0035 0.0295 6.57320076478e-06
0.0035 0.0305 6.57280066663e-06
0.0035 0.0315 3.57808113883e-06
0.0045 -0.0315 1.99082329881e-06
0.0045 -0.0305 3.25560446509e-06
0.0045 -0.0295 2.66183140605e-06
0.0045 -0.0285 2.86850474496e-06
0.0045 -0.0275 3.34531992746e-06
0.0045 -0.0265 4.83561709949e-06
0.0045 -0.0255 9.19760467626e-06
0.0045 -0.0245 2.27702460042e-05
0.0045 -0.0235 7.47037189679e-05
0.0045 -0.0225 0.000234353005087
0.0045 -0.0215 0.00067910430136
0.0045 -0.0205 0.00202249532294
0.0045 -0.0195 0.00546636681552
0.0045 -0.0185 0.0110553639483
0.0045 -0.0175 0.0164261301128
0.0045 -0.0165 0.0186740266161
0.0045 -0.0155 0.0169390362586
0.0045 -0.0145 0.0128978008744
0.0045 -0.0135 0.0103305395763
0.0045 -0.0125 0.0102266493541
0.0045 -0.0115 0.00907131329734
0.0045 -0.0105 0.00679029796168
0.0045 -0.0095 0.00545565699342
0.0045 -0.0085 0.0060958083736
0.0045 -0.0075 0.00817192593277
0.0045 -0.0065 0.0095849974323
0.0045 -0.0055 0.00829041213018
0.0045 -0.0045 0.00503941492258
0.0045 -0.0035 0.00229954667508
0.0045 -0.0025 0.000927590322035
0.0045 -0.0015 0.000367021741071
0.0045 -0.0005 0.000163153038144
0.0045 0.0005 9.11081777074e-05
0.0045 0.0015 5.21417007844e-05
0.0045 0.0025 3.0252983909e-05
0.0045 0.0035 1.95013814001e-05
0.0045 0.0045 1.44372930299e-05
0.0045 0.0055 1.18399882567e-05
0.0045 0.0065 1.02242939982e-05
0.0045 0.0075 9.06953836765e-06
0.0045 0.0085 8.21458479717e-06
0.0045 0.0095 7.59802321914e-06
0.0045 0.0105 7.18522654766e-06
0.0045 0.0115 6.94442319239e-06
0.0045 0.0125 6.8336306825e-06
0.0045 0.0135 6.80059227765e-06
0.0045 0.0145 6.79435482364e-06
0.0045 0.0155 6.77950909342e-06
0.0045 0.0165 6.74207583679e-06
0.0045 0.0175 6.68657602267e-06
0.0045 0.0185 6.62881329179e-06
0.0045 0.0195 6.58775607347e-06
0.0045 0.0205 6.57935502862e-06
0.0045 0.0215 6.61321537635e-06
0.0045 0.0225 6.69157580695e-06
0.0045 0.0235 6.80903154507e-06
0.0045 0.0245 6.95214505103e-06
0.0045 0.0255 7.09464848737e-06
0.0045 0.0265 7.19568119309e-06
0.0045 0.0275 7.16948282735e-06
0.0045 0.0285 6.98981935122e-06
0.0045 0.0295 6.43601292449e-06
0.0045 0.0305 6.64867513531e-06
0.0045 0.0315 3.74068356844e-06
0.0055 -0.0315 2.01998891728e-06
0.0055 -0.0305 3.2868599712e-06
0.0055 -0.0295 2.65203194649e-06
0.0055 -0.0285 2.80942637473e-06
0.0055 -0.0275 3.17020503576e-06
0.0055 -0.0265 4.35043140265e-06
0.0055 -0.0255 7.61439907358e-06
0.0055 -0.0245 1.71750574977e-05
0.0055 -0.0235 4.72750087074e-05
0.0055 -0.0225 0.000144162538134
0.0055 -0.0215 0.00043261665628
0.0055 -0.0205 0.00129993144871
0.0055 -0.0195 0.00376383477382
0.0055 -0.0185 0.00839467979865
0.0055 -0.0175 0.0134366612577
0.0055 -0.0165 0.0159207635093
0.0055 -0.0155 0.0145799672883
0.0055 -0.0145 0.0106617052548
0.0055 -0.0135 0.00760577711592
0.0055 -0.0125 0.00654818805528
0.0055 -0.0115 0.00469831837798
0.0055 -0.0105 0.00286465858739
0.0055 -0.0095 0.00235310623453
0.0055 -0.0085 0.00336218848332
0.0055 -0.0075 0.00591175510251
0.0055 -0.0065 0.00889604008846
0.0055 -0.0055 0.0100259635095
0.0055 -0.0045 0.00828474814206
0.0055 -0.0035 0.00511606049825
0.0055 -0.0025 0.00249533795855
0.0055 -0.0015 0.00108428199289
0.0055 -0.0005 0.000508756873349
0.0055 0.0005 0.000263350616791
0.0055 0.0015 0.000124672670123
0.0055 0.0025 5.97529814286e-05
0.0055 0.0035 3.31079531278e-05
0.0055 0.0045 2.2041419321e-05
0.0055 0.0055 1.63827068026e-05
0.0055 0.0065 1.29206174878e-05
0.0055 0.0075 1.06433302397e-05
0.0055 0.0085 9.12670333093e-06
0.0055 0.0095 8.14247740624e-06
0.0055 0.0105 7.5616481983e-06
0.0055 0.0115 7.28134553037e-06
0.0055 0.0125 7.19040474713e-06
0.0055 0.0135 7.18147453347e-06
0.0055 0.0145 7.1764644327e-06
0.0055 0.0155 7.13773830731e-06
0.0055 0.0165 7.06276141091e-06
0.0055 0.0175 6.97100809859e-06
0.0055 0.0185 6.8896859964e-06
0.0055 0.0195 6.84276683616e-06
0.0055 0.0205 6.84505240716e-06
0.0055 0.0215 6.90040415059e-06
0.0055 0.0225 7.00215752101e-06
0.0055 0.0235 7.1335925243e-06
0.0055 0.0245 7.26770263325e-06
0.0055 0.0255 7.36267111813e-06
0.0055 0.0265 7.36623847184e-06
0.0055 0.0275 7.20141351216e-06
0.0055 0.0285 6.90176628936e-06
0.0055 0.0295 6.31347820274e-06
0.0055 0.0305 6.76525787196e-06
0.0055 0.0315 3.91314312636e-06
0.0065 -0.0315 2.04769803324e-06
0.0065 -0.0305 3.31951587217e-06
0.0065 -0.0295 2.65169235084e-06
0.0065 -0.0285 2.77167122369e-06
0.0065 -0.0275 3.04192366424e-06
0.0065 -0.0265 3.99439196497e-06
0.0065 -0.0255 6.55208602707e-06
0.0065 -0.0245 1.34029958582e-05
0.0065 -0.0235 3.16380163882e-05
0.0065 -0.0225 9.98868258968e-05
0.0065 -0.0215 0.000316585770316
0.0065 -0.0205 0.000960158863281
0.0065 -0.0195 0.00289135088418
0.0065 -0.0185 0.00685770154956
0.0065 -0.0175 0.0114367724748
0.0065 -0.0165 0.0137224336159
0.0065 -0.0155 0.0122662127812
0.0065 -0.0145 0.00792737612522
0.0065 -0.0135 0.00407958878249
0.0065 -0.0125 0.00275927618095
0.0065 -0.0115 0.00158351074997
0.0065 -0.0105 0.000900670782068
0.0065 -0.0095 0.000929438932818
0.0065 -0.0085 0.00156925085046
0.0065 -0.0075 0.00330579149104
0.0065 -0.0065 0.00630611412405
0.0065 -0.0055 0.00928256852043
0.0065 -0.0045 0.010296908343
0.0065 -0.0035 0.00871048727852
0.0065 -0.0025 0.00568838583745
0.0065 -0.0015 0.00299854878103
0.0065 -0.0005 0.00144954622586
0.0065 0.0005 0.000701301563959
0.0065 0.0015 0.00030166225327
0.0065 0.0025 0.000121271259673
0.0065 0.0035 6.32777172975e-05
0.0065 0.0045 3.98903990715e-05
0.0065 0.0055 2.70363726309e-05
0.0065 0.0065 1.92087186021e-05
0.0065 0.0075 1.43804775792e-05
0.0065 0.0085 1.13090361827e-05
0.0065 0.0095 9.39282261934e-06
0.0065 0.0105 8.33643208144e-06
0.0065 0.0115 7.86507090579e-06
0.0065 0.0125 7.70378979754e-06
0.0065 0.0135 7.64545382037e-06
0.0065 0.0145 7.57674458868e-06
0.0065 0.0155 7.46191273471e-06
0.0065 0.0165 7.31484511271e-06
0.0065 0.0175 7.17045851954e-06
0.0065 0.0185 7.06316345672e-06
0.0065 0.0195 7.01548665508e-06
0.0065 0.0205 7.0347363783e-06
0.0065 0.0215 7.11386199324e-06
0.0065 0.0225 7.23362930612e-06
0.0065 0.0235 7.36423379493e-06
0.0065 0.0245 7.46656250885e-06
0.0065 0.0255 7.49142744011e-06
0.0065 0.0265 7.39305811069e-06
0.0065 0.0275 7.12280251912e-06
0.0065 0.0285 6.76550088827e-06
0.0065 0.0295 6.19452731598e-06
0.0065 0.0305 6.86718908022e-06
0.0065 0.0315 4.05749300531e-06
0.0075 -0.0315 2.06734854693e-06
0.0075 -0.0305 3.34547454322e-06
0.0075 -0.0295 2.65970240866e-06
0.0075 -0.0285 2.76033413405e-06
0.0075 -0.0275 2.98975602523e-06
0.0075 -0.0265 3.83662538893e-06
0.0075 -0.0255 6.07766011322e-06
0.0075 -0.0245 1.20790505246e-05
0.0075 -0.0235 2.92207374696e-05
0.0075 -0.0225 9.58506547245e-05
0.0075 -0.0215 0.000307392942213
0.0075 -0.0205 0.000944058541724
0.0075 -0.0195 0.00285991984612
0.0075 -0.0185 0.00672430823568
0.0075 -0.0175 0.0110054858941
0.0075 -0.0165 0.0128933277223
0.0075 -0.0155 0.0110187243702
0.0075 -0.0145 0.00628540740087
0.0075 -0.0135 0.00218614766039
0.0075 -0.0125 0.000984186926326
0.0075 -0.0115 0.000568776936605
0.0075 -0.0105 0.000338087089823
0.0075 -0.0095 0.000388444416379
0.0075 -0.0085 0.000695533941502
0.0075 -0.0075 0.00151079992437
0.0075 -0.0065 0.00333190096287
0.0075 -0.0055 0.00625227514386
0.0075 -0.0045 0.00921750050032
0.0075 -0.0035 0.0105173790734
0.0075 -0.0025 0.00930457466151
0.0075 -0.0015 0.00642919908853
0.0075 -0.0005 0.00356012362039
0.0075 0.0005 0.00165250896214
0.0075 0.0015 0.000658027801057
0.0075 0.0025 0.000260516967131
0.0075 0.0035 0.000146473484447
0.0075 0.0045 8.93598321005e-05
0.0075 0.0055 5.42397378511e-05
0.0075 0.0065 3.50189670032e-05
0.0075 0.0075 2.40498635559e-05
0.0075 0.0085 1.68996007095e-05
0.0075 0.0095 1.24641614584e-05
0.0075 0.0105 1.01059341409e-05
0.0075 0.0115 9.01112874709e-06
0.0075 0.0125 8.5180998071e-06
0.0075 0.0135 8.23807310076e-06
0.0075 0.0145 7.9873070479e-06
0.0075 0.0155 7.72164798961e-06
0.0075 0.0165 7.46580087704e-06
0.0075 0.0175 7.26031474505e-06
0.0075 0.0185 7.13489271594e-06
0.0075 0.0195 7.10021836935e-06
0.0075 0.0205 7.1485050464e-06
0.0075 0.0215 7.25689392455e-06
0.0075 0.0225 7.39134337294e-06
0.0075 0.0235 7.51016869135e-06
0.0075 0.0245 7.56825901603e-06
0.0075 0.0255 7.52050822669e-06
0.0075 0.0265 7.33916080713e-06
0.0075 0.0275 7.00325625861e-06
0.0075 0.0285 6.62901905809e-06
0.0075 0.0295 6.09564916749e-06
0.0075 0.0305 6.94173131601e-06
0.0075 0.0315 4.16113369883e-06
0.0085 -0.0315 2.07935141889e-06
0.0085 -0.0305 3.36595802224e-06
0.0085 -0.0295 2.67997749e-06
0.0085 -0.0285 2.78532866667e-06
0.0085 -0.0275 3.02851211021e-06
0.0085 -0.0265 3.90958919859e-06
0.0085 -0.0255 6.26181343903e-06
0.0085 -0.0245 1.27525593726e-05
0.0085 -0.0235 3.20428076976e-05
0.0085 -0.0225 0.00011093221924
0.0085 -0.0215 0.000375359623641
0.0085 -0.0205 0.00120993139953
0.0085 -0.0195 0.00357618627373
0.0085 -0.0185 0.00779071963881
0.0085 -0.0175 0.0118320169192
0.0085 -0.0165 0.0129802663687
0.0085 -0.0155 0.0101977127717
0.0085 -0.0145 0.00520026146344
0.0085 -0.0135 0.00157155795951
0.0085 -0.0125 0.00049338330813
0.0085 -0.0115 0.000277574055153
0.0085 -0.0105 0.000169311713057
0.0085 -0.0095 0.00017339628581
0.0085 -0.0085 0.000295581138984
0.0085 -0.0075 0.000626277178707
0.0085 -0.0065 0.00136999340466
0.0085 -0.0055 0.00296807167305
0.0085 -0.0045 0.00570026828822
0.0085 -0.0035 0.00875260048833
0.0085 -0.0025 0.0104447487218
0.0085 -0.0015 0.00968428934121
0.0085 -0.0005 0.00695680102221
0.0085 0.0005 0.0038242155759
0.0085 0.0015 0.00167775799514
0.0085 0.0025 0.000773469001642
0.0085 0.0035 0.000452562132331
0.0085 0.0045 0.000244880948747
0.0085 0.0055 0.000127319965225
0.0085 0.0065 8.13935864775e-05
0.0085 0.0075 5.21113317793e-05
0.0085 0.0085 3.13812976954e-05
0.0085 0.0095 1.98194586102e-05
0.0085 0.0105 1.40979555638e-05
0.0085 0.0115 1.12905222527e-05
0.0085 0.0125 9.89941945853e-06
0.0085 0.0135 9.06962410914e-06
0.0085 0.0145 8.43797048648e-06
0.0085 0.0155 7.91481482719e-06
0.0085 0.0165 7.5079193931e-06
0.0085 0.0175 7.23751623674e-06
0.0085 0.0185 7.10821303861e-06
0.0085 0.0195 7.10509254138e-06
0.0085 0.0205 7.19680451842e-06
0.0085 0.0215 7.34013967908e-06
0.0085 0.0225 7.48580817775e-06
0.0085 0.0235 7.58470847974e-06
0.0085 0.0245 7.59427388928e-06
0.0085 0.0255 7.48216752726e-06
0.0085 0.0265 7.24078247609e-06
0.0085 0.0275 6.86901882022e-06
0.0085 0.0285 6.50110032252e-06
0.0085 0.0295 6.0142984159e-06
0.0085 0.0305 7.00959593765e-06
0.0085 0.0315 4.24860133529e-06
0.0095 -0.0315 2.09269682914e-06
0.0095 -0.0305 3.39160132812e-06
0.0095 -0.0295 2.71600749588e-06
0.0095 -0.0285 2.8488885474e-06
0.0095 -0.0275 3.1592312827e-06
0.0095 -0.0265 4.222904902e-06
0.0095 -0.0255 7.14254690122e-06
0.0095 -0.0245 1.55947298644e-05
0.0095 -0.0235 4.04343292643e-05
0.0095 -0.0225 0.000144748375997
0.0095 -0.0215 0.000518565037548
0.0095 -0.0205 0.00174857172993
0.0095 -0.0195 0.00486040868103
0.0095 -0.0185 0.00949957630028
0.0095 -0.0175 0.0129904892991
0.0095 -0.0165 0.0127896410873
0.0095 -0.0155 0.00874425812779
0.0095 -0.0145 0.00383616617952
0.0095 -0.0135 0.00109117263729
0.0095 -0.0125 0.000311119871219
0.0095 -0.0115 0.000142066673306
0.0095 -0.0105 9.07604830858e-05
0.0095 -0.0095 8.66903345736e-05
0.0095 -0.0085 0.000127878423534
0.0095 -0.0075 0.000246029478688
0.0095 -0.0065 0.000485965474878
0.0095 -0.0055 0.00106745119622
0.0095 -0.0045 0.00247747189624
0.0095 -0.0035 0.00502937348623
0.0095 -0.0025 0.00814406607243
0.0095 -0.0015 0.0102388777298
0.0095 -0.0005 0.00993305659386
0.0095 0.0005 0.00738717249767
0.0095 0.0015 0.00434505821409
0.0095 0.0025 0.00233250608724
0.0095 0.0035 0.00131552016709
0.0095 0.0045 0.000730554052234
0.0095 0.0055 0.000409801355187
0.0095 0.0065 0.000257783019786
0.0095 0.0075 0.000143928410426
0.0095 0.0085 6.97772245978e-05
0.0095 0.0095 3.77360339448e-05
0.0095 0.0105 2.2726040727e-05
0.0095 0.0115 1.58764927779e-05
0.0095 0.0125 1.24960406002e-05
0.0095 0.0135 1.0492851858e-05
0.0095 0.0145 9.11985202023e-06
0.0095 0.0155 8.15077922029e-06
0.0095 0.0165 7.51318483638e-06
0.0095 0.0175 7.15814177185e-06
0.0095 0.0185 7.03198639566e-06
0.0095 0.0195 7.07456168099e-06
0.0095 0.0205 7.21929224397e-06
0.0095 0.0215 7.39713993343e-06
0.0095 0.0225 7.54530783647e-06
0.0095 0.0235 7.6145384244e-06
0.0095 0.0245 7.57300103924e-06
0.0095 0.0255 7.40525283471e-06
0.0095 0.0265 7.12135273014e-06
0.0095 0.0275 6.73291430872e-06
0.0095 0.0285 6.38523487542e-06
0.0095 0.0295 5.94786485661e-06
0.0095 0.0305 7.09543113924e-06
0.0095 0.0315 4.3484822459e-06
0.0105 -0.0315 2.10933854987e-06
0.0105 -0.0305 3.42663362017e-06
0.0105 -0.0295 2.77115133964e-06
0.0105 -0.0285 2.94987421479e-06
0.0105 -0.0275 3.37625933068e-06
0.0105 -0.0265 4.7515232577e-06
0.0105 -0.0255 8.6882495619e-06
0.0105 -0.0245 2.10967277514e-05
0.0105 -0.0235 6.51627560435e-05
0.0105 -0.0225 0.000224609033222
0.0105 -0.0215 0.000768867484389
0.0105 -0.0205 0.00255754848319
0.0105 -0.0195 0.00649748464344
0.0105 -0.0185 0.0112837119087
0.0105 -0.0175 0.0136688142737
0.0105 -0.0165 0.0116899806144
0.0105 -0.0155 0.00670839784738
0.0105 -0.0145 0.002489062591
0.0105 -0.0135 0.000707964894109
0.0105 -0.0125 0.000215242321356
0.0105 -0.0115 8.84288225737e-05
0.0105 -0.0105 5.3546490627e-05
0.0105 -0.0095 4.72879047676e-05
0.0105 -0.0085 6.17705017649e-05
0.0105 -0.0075 9.7966273599e-05
0.0105 -0.0065 0.000167387361956
0.0105 -0.0055 0.000364294488886
0.0105 -0.0045 0.00089686251798
0.0105 -0.0035 0.00214353870848
0.0105 -0.0025 0.00452946241087
0.0105 -0.0015 0.00770728521545
0.0105 -0.0005 0.0100959594342
0.0105 0.0005 0.0102043089513
0.0105 0.0015 0.00825413876316
0.0105 0.0025 0.0057246786066
0.0105 0.0035 0.00364965666724
0.0105 0.0045 0.00219877077695
0.0105 0.0055 0.00129728646123
0.0105 0.0065 0.000771676843281
0.0105 0.0075 0.00041665757269
0.0105 0.0085 0.00018646080335
0.0105 0.0095 7.9030711214e-05
0.0105 0.0105 4.08074391565e-05
0.0105 0.0115 2.56304832136e-05
0.0105 0.0125 1.80286152523e-05
0.0105 0.0135 1.35131481628e-05
0.0105 0.0145 1.05919853738e-05
0.0105 0.0155 8.7440795843e-06
0.0105 0.0165 7.67369336038e-06
0.0105 0.0175 7.14982642333e-06
0.0105 0.0185 6.99835985885e-06
0.0105 0.0195 7.0792100217e-06
0.0105 0.0205 7.2684374461e-06
0.0105 0.0215 7.46393223407e-06
0.0105 0.0225 7.59407739333e-06
0.0105 0.0235 7.61786053745e-06
0.0105 0.0245 7.51993706985e-06
0.0105 0.0255 7.30216950444e-06
0.0105 0.0265 6.98819780374e-06
0.0105 0.0275 6.59681095706e-06
0.0105 0.0285 6.27875953497e-06
0.0105 0.0295 5.89478079336e-06
0.0105 0.0305 7.17043227044e-06
0.0105 0.0315 4.4310836101e-06
0.0115 -0.0315 2.12833107536e-06
0.0115 -0.0305 3.47383315297e-06
0.0115 -0.0295 2.85320428445e-06
0.0115 -0.0285 3.09750413023e-06
0.0115 -0.0275 3.68919377592e-06
0.0115 -0.0265 5.48148348397e-06
0.0115 -0.0255 1.07508522293e-05
0.0115 -0.0245 2.78475313851e-05
0.0115 -0.0235 9.94525212315e-05
0.0115 -0.0225 0.000342357521618
0.0115 -0.0215 0.00113365149786
0.0115 -0.0205 0.00358579358336
0.0115 -0.0195 0.00822599161563
0.0115 -0.0185 0.0127014972331
0.0115 -0.0175 0.0135317223711
0.0115 -0.0165 0.00988951267705
0.0115 -0.0155 0.00473881268316
0.0115 -0.0145 0.00152851691539
0.0115 -0.0135 0.000432918906332
0.0115 -0.0125 0.000134776241492
0.0115 -0.0115 5.92141423525e-05
0.0115 -0.0105 3.51705364969e-05
0.0115 -0.0095 2.90624158239e-05
0.0115 -0.0085 3.33661198497e-05
0.0115 -0.0075 4.69636788994e-05
0.0115 -0.0065 7.57479831007e-05
0.0115 -0.0055 0.000140300380461
0.0115 -0.0045 0.000322541007787
0.0115 -0.0035 0.000801365894775
0.0115 -0.0025 0.00193010615799
0.0115 -0.0015 0.00415666285395
0.0115 -0.0005 0.00718622512645
0.0115 0.0005 0.00963542724924
0.0115 0.0015 0.0103794039637
0.0115 0.0025 0.00948684711081
0.0115 0.0035 0.00767249361512
0.0115 0.0045 0.00558218926259
0.0115 0.0055 0.00362989594355
0.0115 0.0065 0.00209959058017
0.0115 0.0075 0.00106739264664
0.0115 0.0085 0.000449416853595
0.0115 0.0095 0.000169118244368
0.0115 0.0105 8.34147694402e-05
0.0115 0.0115 4.87776781904e-05
0.0115 0.0125 3.13264044671e-05
0.0115 0.0135 2.0689543163e-05
0.0115 0.0145 1.4142176384e-05
0.0115 0.0155 1.03982262254e-05
0.0115 0.0165 8.3985937308e-06
0.0115 0.0175 7.45421104221e-06
0.0115 0.0185 7.16046098744e-06
0.0115 0.0195 7.21703677122e-06
0.0115 0.0205 7.40094754013e-06
0.0115 0.0215 7.56861220823e-06
0.0115 0.0225 7.64399726435e-06
0.0115 0.0235 7.59960133516e-06
0.0115 0.0245 7.43772202771e-06
0.0115 0.0255 7.17438410486e-06
0.0115 0.0265 6.84149986687e-06
0.0115 0.0275 6.45957238432e-06
0.0115 0.0285 6.17995782441e-06
0.0115 0.0295 5.85261083295e-06
0.0115 0.0305 7.24906515107e-06
0.0115 0.0315 4.51274272653e-06
0.0125 -0.0315 2.15963858413e-06
0.0125 -0.0305 3.54796464988e-06
0.0125 -0.0295 2.97895783174e-06
0.0125 -0.0285 3.32586273461e-06
0.0125 -0.0275 4.15795754994e-06
0.0125 -0.0265 6.54207262519e-06
0.0125 -0.0255 1.33710584535e-05
0.0125 -0.0245 3.47793752912e-05
0.0125 -0.0235 0.000128938183283
0.0125 -0.0225 0.000464646045168
0.0125 -0.0215 0.00158829309058
0.0125 -0.0205 0.00473838368221
0.0125 -0.0195 0.00980114450607
0.0125 -0.0185 0.0135316835131
0.0125 -0.0175 0.0127132602337
0.0125 -0.0165 0.00796839028364
0.0125 -0.0155 0.00326221134665
0.0125 -0.0145 0.000981373754439
0.0125 -0.0135 0.000271325915513
0.0125 -0.0125 8.25022712931e-05
0.0125 -0.0115 4.08741634066e-05
0.0125 -0.0105 2.5567617601e-05
0.0125 -0.0095 2.0445811966e-05
0.0125 -0.0085 2.12925063135e-05
0.0125 -0.0075 2.71377219037e-05
0.0125 -0.0065 3.97330704146e-05
0.0125 -0.0055 6.62094982048e-05
0.0125 -0.0045 0.000125193445505
0.0125 -0.0035 0.000289186250501
0.0125 -0.0025 0.000718549146009
0.0125 -0.0015 0.00170418728243
0.0125 -0.0005 0.00357088440554
0.0125 0.0005 0.00610475393353
0.0125 0.0015 0.00848454692056
0.0125 0.0025 0.00999686149233
0.0125 0.0035 0.0103246674079
0.0125 0.0045 0.00941719040184
0.0125 0.0055 0.00747318026482
0.0125 0.0065 0.00499271959494
0.0125 0.0075 0.00267574136279
0.0125 0.0085 0.00113391665654
0.0125 0.0095 0.000435000559951
0.0125 0.0105 0.000197293895173
0.0125 0.0115 0.000114690128688
0.0125 0.0125 6.79388447237e-05
0.0125 0.0135 3.81495545146e-05
0.0125 0.0145 2.25696062196e-05
0.0125 0.0155 1.46909623445e-05
0.0125 0.0165 1.0501389699e-05
0.0125 0.0175 8.50568154323e-06
0.0125 0.0185 7.75613575746e-06
0.0125 0.0195 7.60417564109e-06
0.0125 0.0205 7.66268142713e-06
0.0125 0.0215 7.72087018388e-06
0.0125 0.0225 7.68999740811e-06
0.0125 0.0235 7.55175180805e-06
0.0125 0.0245 7.32022739645e-06
0.0125 0.0255 7.01871121822e-06
0.0125 0.0265 6.68060958507e-06
0.0125 0.0275 6.32212127244e-06
0.0125 0.0285 6.09093686595e-06
0.0125 0.0295 5.82397349384e-06
0.0125 0.0305 7.34972318353e-06
0.0125 0.0315 4.61116459738e-06
0.0135 -0.0315 2.20274319572e-06
0.0135 -0.0305 3.65892734761e-06
0.0135 -0.0295 3.18052071569e-06
0.0135 -0.0285 3.7063924041e-06
0.0135 -0.0275 4.93423268821e-06
0.0135 -0.0265 8.28643646562e-06
0.0135 -0.0255 1.77937015076e-05
0.0135 -0.0245 4.58109440413e-05
0.0135 -0.0235 0.000166131037157
0.0135 -0.0225 0.000612931628782
0.0135 -0.0215 0.0021359483704
0.0135 -0.0205 0.00592243113307
0.0135 -0.0195 0.0110726347226
0.0135 -0.0185 0.013788057426
0.0135 -0.0175 0.0115465826787
0.0135 -0.0165 0.00634008137047
0.0135 -0.0155 0.00231366696158
0.0135 -0.0145 0.000695328786568
0.0135 -0.0135 0.000200180931425
0.0135 -0.0125 6.40171093985e-05
0.0135 -0.0115 3.22964233082e-05
0.0135 -0.0105 2.06952790974e-05
0.0135 -0.0095 1.63560294037e-05
0.0135 -0.0085 1.59256793581e-05
0.0135 -0.0075 1.83408679324e-05
0.0135 -0.0065 2.41009003206e-05
0.0135 -0.0055 3.56139992579e-05
0.0135 -0.0045 5.94254479927e-05
0.0135 -0.0035 0.000111658106428
0.0135 -0.0025 0.000254255758561
0.0135 -0.0015 0.000614465646381
0.0135 -0.0005 0.00136326648735
0.0135 0.0005 0.00265970462313
0.0135 0.0015 0.00448508031415
0.0135 0.0025 0.00661084698773
0.0135 0.0035 0.00864486852561
0.0135 0.0045 0.0100419615321
0.0135 0.0055 0.010203565392
0.0135 0.0065 0.00871989856526
0.0135 0.0075 0.00589478786433
0.0135 0.0085 0.00303038865898
0.0135 0.0095 0.001298360851
0.0135 0.0105 0.000617573262465
0.0135 0.0115 0.000350987126847
0.0135 0.0125 0.000177641481401
0.0135 0.0135 8.2331273317e-05
0.0135 0.0145 4.5161703268e-05
0.0135 0.0155 2.54863568199e-05
0.0135 0.0165 1.56347156291e-05
0.0135 0.0175 1.11029770837e-05
0.0135 0.0185 9.11470072606e-06
0.0135 0.0195 8.35715358672e-06
0.0135 0.0205 8.08012512457e-06
0.0135 0.0215 7.91244716428e-06
0.0135 0.0225 7.71587897228e-06
0.0135 0.0235 7.46122109743e-06
0.0135 0.0245 7.1608582708e-06
0.0135 0.0255 6.83510561792e-06
0.0135 0.0265 6.51041886155e-06
0.0135 0.0275 6.19216448577e-06
0.0135 0.0285 6.01969714546e-06
0.0135 0.0295 5.81646471102e-06
0.0135 0.0305 7.46111587616e-06
0.0135 0.0315 4.71112752314e-06
0.0145 -0.0315 2.27420329359e-06
0.0145 -0.0305 3.83732314585e-06
0.0145 -0.0295 3.50671333047e-06
0.0145 -0.0285 4.36242200952e-06
0.0145 -0.0275 6.33006349853e-06
0.0145 -0.0265 1.14288906291e-05
0.0145 -0.0255 2.60930967923e-05
0.0145 -0.0245 7.59032608402e-05
0.0145 -0.0235 0.000251124095179
0.0145 -0.0225 0.000844274252805
0.0145 -0.0215 0.00279864929819
0.0145 -0.0205 0.00707079801269
0.0145 -0.0195 0.0119743681944
0.0145 -0.0185 0.0135850326865
0.0145 -0.0175 0.0103111868103
0.0145 -0.0165 0.00511257886947
0.0145 -0.0155 0.00174343186514
0.0145 -0.0145 0.000534509104416
0.0145 -0.0135 0.000165482340705
0.0145 -0.0125 5.84995147455e-05
0.0145 -0.0115 2.98979456917e-05
0.0145 -0.0105 1.88766116785e-05
0.0145 -0.0095 1.45672991721e-05
0.0145 -0.0085 1.34631377666e-05
0.0145 -0.0075 1.42357252374e-05
0.0145 -0.0065 1.67250892629e-05
0.0145 -0.0055 2.18731664352e-05