% Model:              Benchmark260518.mph
% Version:            COMSOL 6.2.0.339
% Date:               May 20 2026, 06:22
% Dimension:          2
% Nodes:              4096
% Expressions:        1
% Description:        速度大小
% Length unit:        m
% x                       y                        spf.U (m/s)
% mirrored_by_python_y_to_minus_y, coord_match_decimals=12
0.0005 -0.0315 2.98703045406e-06
0.0005 -0.0305 8.47707232182e-06
0.0005 -0.0295 2.05051897756e-05
0.0005 -0.0285 6.61568191421e-05
0.0005 -0.0275 0.000195145631921
0.0005 -0.0265 0.000501211677214
0.0005 -0.0255 0.00115706488314
0.0005 -0.0245 0.00215486415068
0.0005 -0.0235 0.00310484832573
0.0005 -0.0225 0.00353088350152
0.0005 -0.0215 0.00324074053066
0.0005 -0.0205 0.00241822990038
0.0005 -0.0195 0.0014243133816
0.0005 -0.0185 0.00138720700242
0.0005 -0.0175 0.0196626890837
0.0005 -0.0165 0.0413867509133
0.0005 -0.0155 0.0450842511098
0.0005 -0.0145 0.0252330847367
0.0005 -0.0135 0.00332945458083
0.0005 -0.0125 0.00267220374269
0.0005 -0.0115 0.00305474312301
0.0005 -0.0105 0.00294307281282
0.0005 -0.0095 0.00221249000684
0.0005 -0.0085 0.00120803551596
0.0005 -0.0075 0.00127957076603
0.0005 -0.0065 0.00237168236181
0.0005 -0.0055 0.00341839097126
0.0005 -0.0045 0.00413765243247
0.0005 -0.0035 0.00440081556761
0.0005 -0.0025 0.00418537417939
0.0005 -0.0015 0.00357558221125
0.0005 -0.0005 0.00274496387707
0.0005 0.0005 0.00190338745379
0.0005 0.0015 0.00125253148656
0.0005 0.0025 0.000979038959158
0.0005 0.0035 0.00126394169326
0.0005 0.0045 0.00204107348492
0.0005 0.0055 0.00300615983591
0.0005 0.0065 0.00387672724221
0.0005 0.0075 0.00447656826746
0.0005 0.0085 0.0047498195152
0.0005 0.0095 0.00472226833883
0.0005 0.0105 0.00438867873506
0.0005 0.0115 0.00369804271296
0.0005 0.0125 0.00268202171228
0.0005 0.0135 0.00160574278109
0.0005 0.0145 0.000812081185033
0.0005 0.0155 0.000336578173841
0.0005 0.0165 0.000109069400557
0.0005 0.0175 4.47154458742e-05
0.0005 0.0185 2.50971110658e-05
0.0005 0.0195 1.83695642074e-05
0.0005 0.0205 1.46714982698e-05
0.0005 0.0215 1.23607558639e-05
0.0005 0.0225 1.07947449263e-05
0.0005 0.0235 9.70561138078e-06
0.0005 0.0245 8.92137195899e-06
0.0005 0.0255 8.3027395933e-06
0.0005 0.0265 7.78445433072e-06
0.0005 0.0275 7.28135807767e-06
0.0005 0.0285 6.80968552712e-06
0.0005 0.0295 6.07917689832e-06
0.0005 0.0305 5.46773866116e-06
0.0005 0.0315 2.74379318538e-06
0.0015 -0.0315 7.10500309238e-06
0.0015 -0.0305 2.12140134735e-05
0.0015 -0.0295 5.21541083061e-05
0.0015 -0.0285 0.000176053503259
0.0015 -0.0275 0.00056331152859
0.0015 -0.0265 0.00163334857715
0.0015 -0.0255 0.003725890677
0.0015 -0.0245 0.00630160832389
0.0015 -0.0235 0.00838654914861
0.0015 -0.0225 0.00951620638464
0.0015 -0.0215 0.00975085687222
0.0015 -0.0205 0.00916092122749
0.0015 -0.0195 0.00747906820861
0.0015 -0.0185 0.00665449132036
0.0015 -0.0175 0.0198824641247
0.0015 -0.0165 0.0365596229415
0.0015 -0.0155 0.0413081089103
0.0015 -0.0145 0.0298970291898
0.0015 -0.0135 0.0109034510734
0.0015 -0.0125 0.00182111650279
0.0015 -0.0115 0.00172108749973
0.0015 -0.0105 0.00126487221422
0.0015 -0.0095 0.00291102526747
0.0015 -0.0085 0.00568997246199
0.0015 -0.0075 0.00843184667477
0.0015 -0.0065 0.0106789428847
0.0015 -0.0055 0.0122957108347
0.0015 -0.0045 0.0132061160655
0.0015 -0.0035 0.0133326147803
0.0015 -0.0025 0.0126461345484
0.0015 -0.0015 0.0112153146263
0.0015 -0.0005 0.00923579650035
0.0015 0.0005 0.00703809896143
0.0015 0.0015 0.00504555773848
0.0015 0.0025 0.00375572317516
0.0015 0.0035 0.00376273619929
0.0015 0.0045 0.00490410912342
0.0015 0.0055 0.00612961494401
0.0015 0.0065 0.00695028518413
0.0015 0.0075 0.00740965665516
0.0015 0.0085 0.00761502468589
0.0015 0.0095 0.00763137521233
0.0015 0.0105 0.00740622074814
0.0015 0.0115 0.00674600492139
0.0015 0.0125 0.00541071119106
0.0015 0.0135 0.00347252517834
0.0015 0.0145 0.00171536843354
0.0015 0.0155 0.000689648163375
0.0015 0.0165 0.000230782997675
0.0015 0.0175 9.50328117358e-05
0.0015 0.0185 5.0809411337e-05
0.0015 0.0195 3.43404113359e-05
0.0015 0.0205 2.60232316285e-05
0.0015 0.0215 2.11245257999e-05
0.0015 0.0225 1.79976885408e-05
0.0015 0.0235 1.59382873786e-05
0.0015 0.0245 1.45527073138e-05
0.0015 0.0255 1.3567523008e-05
0.0015 0.0265 1.28378373374e-05
0.0015 0.0275 1.22344061478e-05
0.0015 0.0285 1.17660495591e-05
0.0015 0.0295 1.09545676798e-05
0.0015 0.0305 1.03725607353e-05
0.0015 0.0315 5.31492850936e-06
0.0025 -0.0315 1.13793686131e-05
0.0025 -0.0305 3.60044575814e-05
0.0025 -0.0295 0.000109456739506
0.0025 -0.0285 0.000367659853666
0.0025 -0.0275 0.00121136859103
0.0025 -0.0265 0.00341907932805
0.0025 -0.0255 0.00667148461756
0.0025 -0.0245 0.00935255528861
0.0025 -0.0235 0.0108389531074
0.0025 -0.0225 0.0118166941694
0.0025 -0.0215 0.0130337012374
0.0025 -0.0205 0.0144686163258
0.0025 -0.0195 0.0147837571486
0.0025 -0.0185 0.0130963511058
0.0025 -0.0175 0.016951645908
0.0025 -0.0165 0.0285939314344
0.0025 -0.0155 0.0350101455564
0.0025 -0.0145 0.0310813059517
0.0025 -0.0135 0.0204581559237
0.0025 -0.0125 0.0124471795811
0.0025 -0.0115 0.0105309371901
0.0025 -0.0105 0.0123487298658
0.0025 -0.0095 0.0152333866459
0.0025 -0.0085 0.0178538171616
0.0025 -0.0075 0.019636476412
0.0025 -0.0065 0.0205248664888
0.0025 -0.0055 0.0207492062661
0.0025 -0.0045 0.0205280709971
0.0025 -0.0035 0.0199616613043
0.0025 -0.0025 0.01901870937
0.0025 -0.0015 0.0175923759254
0.0025 -0.0005 0.0155810957684
0.0025 0.0005 0.0129856091647
0.0025 0.0015 0.01004705367
0.0025 0.0025 0.00732410465126
0.0025 0.0035 0.0057537688709
0.0025 0.0045 0.00567029589379
0.0025 0.0055 0.00548989863646
0.0025 0.0065 0.00469923810448
0.0025 0.0075 0.00405038867036
0.0025 0.0085 0.00381114680611
0.0025 0.0095 0.00390610881164
0.0025 0.0105 0.00430343953862
0.0025 0.0115 0.00496059288551
0.0025 0.0125 0.00538739719359
0.0025 0.0135 0.00455285873274
0.0025 0.0145 0.00257535380846
0.0025 0.0155 0.000991624334412
0.0025 0.0165 0.000334013816322
0.0025 0.0175 0.000140991769848
0.0025 0.0185 7.27889478807e-05
0.0025 0.0195 4.3332829083e-05
0.0025 0.0205 2.89656704467e-05
0.0025 0.0215 2.12542092097e-05
0.0025 0.0225 1.67981459525e-05
0.0025 0.0235 1.41709191943e-05
0.0025 0.0245 1.25971562307e-05
0.0025 0.0255 1.1641750461e-05
0.0025 0.0265 1.10805032054e-05
0.0025 0.0275 1.07674421946e-05
0.0025 0.0285 1.06523293273e-05
0.0025 0.0295 1.02420103074e-05
0.0025 0.0305 1.05049366787e-05
0.0025 0.0315 5.69032289385e-06
0.0035 -0.0315 2.10223526219e-05
0.0035 -0.0305 6.4534053704e-05
0.0035 -0.0295 0.00021919772051
0.0035 -0.0285 0.000740284421454
0.0035 -0.0275 0.00237396906669
0.0035 -0.0265 0.00576610204071
0.0035 -0.0255 0.00922431720037
0.0035 -0.0245 0.0105316108552
0.0035 -0.0235 0.0100039419375
0.0035 -0.0225 0.00930251982693
0.0035 -0.0215 0.00970579549561
0.0035 -0.0205 0.0115114795755
0.0035 -0.0195 0.0135808468762
0.0035 -0.0185 0.0134565528877
0.0035 -0.0175 0.0121852647158
0.0035 -0.0165 0.0185429551904
0.0035 -0.0155 0.0266454883958
0.0035 -0.0145 0.0288276879022
0.0035 -0.0135 0.026394079928
0.0035 -0.0125 0.023777238887
0.0035 -0.0115 0.0231393462551
0.0035 -0.0105 0.0240652464879
0.0035 -0.0095 0.0251881091389
0.0035 -0.0085 0.0255922291671
0.0035 -0.0075 0.025095948947
0.0035 -0.0065 0.0240333879046
0.0035 -0.0055 0.0228557440541
0.0035 -0.0045 0.0218813442737
0.0035 -0.0035 0.0211898565872
0.0035 -0.0025 0.0206091541543
0.0035 -0.0015 0.0198339677565
0.0035 -0.0005 0.0185755667856
0.0035 0.0005 0.0165672234498
0.0035 0.0015 0.0136490595254
0.0035 0.0025 0.0100285023475
0.0035 0.0035 0.00664440506877
0.0035 0.0045 0.00477287764826
0.0035 0.0055 0.00352295883552
0.0035 0.0065 0.00218241059725
0.0035 0.0075 0.00145074823276
0.0035 0.0085 0.00124127471815
0.0035 0.0095 0.00133401998695
0.0035 0.0105 0.00180795598178
0.0035 0.0115 0.00292050235289
0.0035 0.0125 0.00458459268744
0.0035 0.0135 0.00546121957128
0.0035 0.0145 0.00406172362864
0.0035 0.0155 0.00175307556702
0.0035 0.0165 0.000589027909454
0.0035 0.0175 0.000278397458461
0.0035 0.0185 0.000136994693033
0.0035 0.0195 7.4459626663e-05
0.0035 0.0205 4.44312421319e-05
0.0035 0.0215 2.86842711113e-05
0.0035 0.0225 2.03936541773e-05
0.0035 0.0235 1.60474845263e-05
0.0035 0.0245 1.36695132147e-05
0.0035 0.0255 1.23137537224e-05
0.0035 0.0265 1.15400700985e-05
0.0035 0.0275 1.1073662702e-05
0.0035 0.0285 1.08047889072e-05
0.0035 0.0295 1.01938990474e-05
0.0035 0.0305 1.09917092422e-05
0.0035 0.0315 6.27860036534e-06
0.0045 -0.0315 4.3229770149e-05
0.0045 -0.0305 0.000139406605724
0.0045 -0.0295 0.000434242365455
0.0045 -0.0285 0.00140315096586
0.0045 -0.0275 0.00401874681382
0.0045 -0.0265 0.0080599294499
0.0045 -0.0255 0.0106980774856
0.0045 -0.0245 0.0100761267675
0.0045 -0.0235 0.00748666814007
0.0045 -0.0225 0.00520906207303
0.0045 -0.0215 0.00444909363145
0.0045 -0.0205 0.00498891222055
0.0045 -0.0195 0.00630872029438
0.0045 -0.0185 0.00731178701632
0.0045 -0.0175 0.00662479653939
0.0045 -0.0165 0.00890540491074
0.0045 -0.0155 0.016975141912
0.0045 -0.0145 0.0229808933461
0.0045 -0.0135 0.0256264933041
0.0045 -0.0125 0.0268047304525
0.0045 -0.0115 0.0274472880769
0.0045 -0.0105 0.0274175309867
0.0045 -0.0095 0.0263249904901
0.0045 -0.0085 0.0242071964822
0.0045 -0.0075 0.0215815834953
0.0045 -0.0065 0.0190795748658
0.0045 -0.0055 0.0171993961097
0.0045 -0.0045 0.016219913186
0.0045 -0.0035 0.0161623764567
0.0045 -0.0025 0.0167775148005
0.0045 -0.0015 0.0175439441334
0.0045 -0.0005 0.017790940481
0.0045 0.0005 0.0170193601842
0.0045 0.0015 0.0149302979171
0.0045 0.0025 0.0113519485706
0.0045 0.0035 0.00684212755696
0.0045 0.0045 0.00329641635584
0.0045 0.0055 0.0016454223088
0.0045 0.0065 0.000778852480117
0.0045 0.0075 0.000449841057726
0.0045 0.0085 0.00039240705963
0.0045 0.0095 0.000455023946437
0.0045 0.0105 0.000744929397423
0.0045 0.0115 0.00149354961846
0.0045 0.0125 0.00297542752186
0.0045 0.0135 0.00497833110553
0.0045 0.0145 0.00542255130588
0.0045 0.0155 0.00345798039621
0.0045 0.0165 0.0015362981233
0.0045 0.0175 0.000689262898753
0.0045 0.0185 0.000299552075535
0.0045 0.0195 0.000153404403631
0.0045 0.0205 7.96764590692e-05
0.0045 0.0215 4.43525145326e-05
0.0045 0.0225 2.78696279254e-05
0.0045 0.0235 1.97667990523e-05
0.0045 0.0245 1.55365764982e-05
0.0045 0.0255 1.31858959099e-05
0.0045 0.0265 1.18383844598e-05
0.0045 0.0275 1.0999786064e-05
0.0045 0.0285 1.04890995756e-05
0.0045 0.0295 9.81524616768e-06
0.0045 0.0305 1.1216438739e-05
0.0045 0.0315 6.67888247295e-06
0.0055 -0.0315 0.000112744670713
0.0055 -0.0305 0.000336506608726
0.0055 -0.0295 0.000895623772684
0.0055 -0.0285 0.00258324917823
0.0055 -0.0275 0.00603906844042
0.0055 -0.0265 0.00981669061721
0.0055 -0.0255 0.0109060229677
0.0055 -0.0245 0.00854734096121
0.0055 -0.0235 0.00500122921133
0.0055 -0.0225 0.00266107568781
0.0055 -0.0215 0.00190089709779
0.0055 -0.0205 0.00167967688053
0.0055 -0.0195 0.00158320258288
0.0055 -0.0185 0.00182713454642
0.0055 -0.0175 0.00224712886164
0.0055 -0.0165 0.00316591202539
0.0055 -0.0155 0.00788494956657
0.0055 -0.0145 0.013578039913
0.0055 -0.0135 0.0176806166725
0.0055 -0.0125 0.0199759549208
0.0055 -0.0115 0.0205532988527
0.0055 -0.0105 0.0195090742932
0.0055 -0.0095 0.017247128434
0.0055 -0.0085 0.0144149371252
0.0055 -0.0075 0.011683083164
0.0055 -0.0065 0.00953000787872
0.0055 -0.0055 0.0081819611217
0.0055 -0.0045 0.00773072155226
0.0055 -0.0035 0.00826071402207
0.0055 -0.0025 0.00983221591985
0.0055 -0.0015 0.0121954662516
0.0055 -0.0005 0.0144741766004
0.0055 0.0005 0.0155695486522
0.0055 0.0015 0.0148776407116
0.0055 0.0025 0.0121565627203
0.0055 0.0035 0.00752325838498
0.0055 0.0045 0.00302505753013
0.0055 0.0055 0.000894330788159
0.0055 0.0065 0.00035149525064
0.0055 0.0075 0.000178025697225
0.0055 0.0085 0.000147354640459
0.0055 0.0095 0.000176728464197
0.0055 0.0105 0.000317414419468
0.0055 0.0115 0.000651413526915
0.0055 0.0125 0.00134100580734
0.0055 0.0135 0.00312872095085
0.0055 0.0145 0.00533495315428
0.0055 0.0155 0.0054369748785
0.0055 0.0165 0.00356683270419
0.0055 0.0175 0.00177543815324
0.0055 0.0185 0.000802466527987
0.0055 0.0195 0.000373022033472
0.0055 0.0205 0.000156331284571
0.0055 0.0215 7.68283539397e-05
0.0055 0.0225 4.31431383522e-05
0.0055 0.0235 2.74998314473e-05
0.0055 0.0245 1.93633077539e-05
0.0055 0.0255 1.48754222472e-05
0.0055 0.0265 1.23529022995e-05
0.0055 0.0275 1.09120617399e-05
0.0055 0.0285 1.0170348569e-05
0.0055 0.0295 9.531653048e-06
0.0055 0.0305 1.15680109007e-05
0.0055 0.0315 7.12954001891e-06
0.0065 -0.0315 0.000257575452421
0.0065 -0.0305 0.000747050011028
0.0065 -0.0295 0.0018442051417
0.0065 -0.0285 0.00444267404129
0.0065 -0.0275 0.00814383012272
0.0065 -0.0265 0.010672858229
0.0065 -0.0255 0.00991760634324
0.0065 -0.0245 0.00653860336687
0.0065 -0.0235 0.00323144566354
0.0065 -0.0225 0.00152943084195
0.0065 -0.0215 0.000998995408723
0.0065 -0.0205 0.000745980934375
0.0065 -0.0195 0.000548745145629
0.0065 -0.0185 0.000581051573053
0.0065 -0.0175 0.000946948788062
0.0065 -0.0165 0.00152924883747
0.0065 -0.0155 0.00268105732547
0.0065 -0.0145 0.00494948266446
0.0065 -0.0135 0.00727707942626
0.0065 -0.0125 0.00874192784694
0.0065 -0.0115 0.0089466404252
0.0065 -0.0105 0.00803005019037
0.0065 -0.0095 0.00653600325263
0.0065 -0.0085 0.00501168468397
0.0065 -0.0075 0.00378245346173
0.0065 -0.0065 0.00295931098061
0.0065 -0.0055 0.0025172941706
0.0065 -0.0045 0.0024364131069
0.0065 -0.0035 0.00284147034765
0.0065 -0.0025 0.00412424770934
0.0065 -0.0015 0.00678710448111
0.0065 -0.0005 0.0104853243963
0.0065 0.0005 0.0136279059305
0.0065 0.0015 0.0146976668047
0.0065 0.0025 0.0131642918162
0.0065 0.0035 0.0087806086665
0.0065 0.0045 0.00368738397255
0.0065 0.0055 0.000975905623472
0.0065 0.0065 0.000285406196061
0.0065 0.0075 0.000123182989795
0.0065 0.0085 8.68072441174e-05
0.0065 0.0095 9.46517480314e-05
0.0065 0.0105 0.000145864194694
0.0065 0.0115 0.000260070500689
0.0065 0.0125 0.0005123893334
0.0065 0.0135 0.00148931825458
0.0065 0.0145 0.00367371410367
0.0065 0.0155 0.00566220185683
0.0065 0.0165 0.00553618922733
0.0065 0.0175 0.00374147949131
0.0065 0.0185 0.00197934722949
0.0065 0.0195 0.000895892987121
0.0065 0.0205 0.000352878560251
0.0065 0.0215 0.000147605147625
0.0065 0.0225 7.5382256742e-05
0.0065 0.0235 4.3678815278e-05
0.0065 0.0245 2.74311053552e-05
0.0065 0.0255 1.82856643359e-05
0.0065 0.0265 1.34513401625e-05
0.0065 0.0275 1.10259222871e-05
0.0065 0.0285 9.97890929979e-06
0.0065 0.0295 9.38663602582e-06
0.0065 0.0305 1.20052704239e-05
0.0065 0.0315 7.59338993139e-06
0.0075 -0.0315 0.000505133644686
0.0075 -0.0305 0.0015682178644
0.0075 -0.0295 0.00355074555174
0.0075 -0.0285 0.00679360984569
0.0075 -0.0275 0.00976487764096
0.0075 -0.0265 0.0103444585576
0.0075 -0.0255 0.00794679871217
0.0075 -0.0245 0.00444681782959
0.0075 -0.0235 0.00213381071417
0.0075 -0.0225 0.00113311592352
0.0075 -0.0215 0.000648987645881
0.0075 -0.0205 0.000422092021035
0.0075 -0.0195 0.000315313947623
0.0075 -0.0185 0.000358396927246
0.0075 -0.0175 0.000636689460693
0.0075 -0.0165 0.00105720857605
0.0075 -0.0155 0.00130633724998
0.0075 -0.0145 0.00143071826342
0.0075 -0.0135 0.00178507154178
0.0075 -0.0125 0.00218514764264
0.0075 -0.0115 0.00231474962087
0.0075 -0.0105 0.00214255171206
0.0075 -0.0095 0.0017984150102
0.0075 -0.0085 0.00142249924525
0.0075 -0.0075 0.00110009264403
0.0075 -0.0065 0.000864915584387
0.0075 -0.0055 0.000731219110412
0.0075 -0.0045 0.000683682800866
0.0075 -0.0035 0.000765309567417
0.0075 -0.0025 0.00136189511803
0.0075 -0.0015 0.00349967059313
0.0075 -0.0005 0.00765216772343
0.0075 0.0005 0.0123281627376
0.0075 0.0015 0.0149649980296
0.0075 0.0025 0.0142757150246
0.0075 0.0035 0.00978653618024
0.0075 0.0045 0.00411759737097
0.0075 0.0055 0.00109323884669
0.0075 0.0065 0.00028941923858
0.0075 0.0075 0.000111511700253
0.0075 0.0085 6.86872212852e-05
0.0075 0.0095 6.20315274375e-05
0.0075 0.0105 7.93537870942e-05
0.0075 0.0115 0.000127991329821
0.0075 0.0125 0.000263215527715
0.0075 0.0135 0.000688636030071
0.0075 0.0145 0.001877613712
0.0075 0.0155 0.00398504441642
0.0075 0.0165 0.00571196033842
0.0075 0.0175 0.00557901861396
0.0075 0.0185 0.00392507933403
0.0075 0.0195 0.00208223657707
0.0075 0.0205 0.000881579877023
0.0075 0.0215 0.000344159952078
0.0075 0.0225 0.000153787526091
0.0075 0.0235 8.30063315736e-05
0.0075 0.0245 4.48098324507e-05
0.0075 0.0255 2.51102742999e-05
0.0075 0.0265 1.59288935037e-05
0.0075 0.0275 1.17448211185e-05
0.0075 0.0285 1.01265119015e-05
0.0075 0.0295 9.46366453883e-06
0.0075 0.0305 1.25742458955e-05
0.0075 0.0315 8.10549251391e-06
0.0085 -0.0315 0.000976138979548
0.0085 -0.0305 0.00303334012902
0.0085 -0.0295 0.00584887672311
0.0085 -0.0285 0.00889202683404
0.0085 -0.0275 0.0102264730134
0.0085 -0.0265 0.00874080663819
0.0085 -0.0255 0.00540314184167
0.0085 -0.0245 0.00262129032779
0.0085 -0.0235 0.00165197005108
0.0085 -0.0225 0.00129424424237
0.0085 -0.0215 0.00075508376678
0.0085 -0.0205 0.000390931972413
0.0085 -0.0195 0.000286211341788
0.0085 -0.0185 0.000283172019316
0.0085 -0.0175 0.000392562793587
0.0085 -0.0165 0.000616605373912
0.0085 -0.0155 0.000734655098802
0.0085 -0.0145 0.000652830170801
0.0085 -0.0135 0.000562512100594
0.0085 -0.0125 0.00053131436048
0.0085 -0.0115 0.0005206162696
0.0085 -0.0105 0.000491304494313
0.0085 -0.0095 0.00043443640807
0.0085 -0.0085 0.000362335729328
0.0085 -0.0075 0.0002924113198
0.0085 -0.0065 0.00024501393999
0.0085 -0.0055 0.000240356679114
0.0085 -0.0045 0.00025506068875
0.0085 -0.0035 0.000284065632659
0.0085 -0.0025 0.000601459875753
0.0085 -0.0015 0.00226681603256
0.0085 -0.0005 0.00638609124542
0.0085 0.0005 0.0119197406658
0.0085 0.0015 0.0155432614891
0.0085 0.0025 0.0150813679148
0.0085 0.0035 0.0101192162847
0.0085 0.0045 0.00412020783883
0.0085 0.0055 0.00111270217965
0.0085 0.0065 0.000298096425718
0.0085 0.0075 0.000110726894736
0.0085 0.0085 6.356478708e-05
0.0085 0.0095 4.89490369682e-05
0.0085 0.0105 5.26824436327e-05
0.0085 0.0115 7.6861302927e-05
0.0085 0.0125 0.000141872101648
0.0085 0.0135 0.000310510859788
0.0085 0.0145 0.000838187727963
0.0085 0.0155 0.00210039345492
0.0085 0.0165 0.00407078200488
0.0085 0.0175 0.00568989416633
0.0085 0.0185 0.0056709332286
0.0085 0.0195 0.00407338771659
0.0085 0.0205 0.00215957862215
0.0085 0.0215 0.000933006491264
0.0085 0.0225 0.000414835582434
0.0085 0.0235 0.000195326741246
0.0085 0.0245 8.20352200936e-05
0.0085 0.0255 3.88162931786e-05
0.0085 0.0265 2.08258012581e-05
0.0085 0.0275 1.35382265985e-05
0.0085 0.0285 1.08190145794e-05
0.0085 0.0295 9.82949794222e-06
0.0085 0.0305 1.32824654466e-05
0.0085 0.0315 8.66103993163e-06
0.0095 -0.0315 0.00176687016378
0.0095 -0.0305 0.00501759875253
0.0095 -0.0295 0.00801062468939
0.0095 -0.0285 0.00987642191176
0.0095 -0.0275 0.00918334967541
0.0095 -0.0265 0.00622459271228
0.0095 -0.0255 0.00302432668824
0.0095 -0.0245 0.00142321063407
0.0095 -0.0235 0.00134159786177
0.0095 -0.0225 0.00147957426295
0.0095 -0.0215 0.00121078141249
0.0095 -0.0205 0.000715147472511
0.0095 -0.0195 0.000437074468286
0.0095 -0.0185 0.000337897143572
0.0095 -0.0175 0.000296849659764
0.0095 -0.0165 0.000310877926594
0.0095 -0.0155 0.00031956100993
0.0095 -0.0145 0.000280021178543
0.0095 -0.0135 0.000223933993112
0.0095 -0.0125 0.000179047437123
0.0095 -0.0115 0.000147640790008
0.0095 -0.0105 0.000124790566495
0.0095 -0.0095 0.00010614811307
0.0095 -0.0085 8.97789303105e-05
0.0095 -0.0075 7.64529966584e-05
0.0095 -0.0065 7.07150607857e-05
0.0095 -0.0055 8.27856682945e-05
0.0095 -0.0045 0.000117084950154
0.0095 -0.0035 0.000206839527439
0.0095 -0.0025 0.000544491384159
0.0095 -0.0015 0.00203721393019
0.0095 -0.0005 0.00610847953566
0.0095 0.0005 0.0120501347919
0.0095 0.0015 0.0161294076496
0.0095 0.0025 0.0154179955996
0.0095 0.0035 0.009874674401
0.0095 0.0045 0.0038588963884
0.0095 0.0055 0.00106504131233
0.0095 0.0065 0.000295309506092
0.0095 0.0075 0.000110754121957
0.0095 0.0085 6.17681653922e-05
0.0095 0.0095 4.32394726798e-05
0.0095 0.0105 4.05184192706e-05
0.0095 0.0115 5.16593011207e-05
0.0095 0.0125 8.38616140843e-05
0.0095 0.0135 0.000166485569267
0.0095 0.0145 0.000392266893293
0.0095 0.0155 0.000933943629468
0.0095 0.0165 0.0021228710985
0.0095 0.0175 0.00402459265857
0.0095 0.0185 0.00568354540846
0.0095 0.0195 0.00577339249959
0.0095 0.0205 0.00422557363524
0.0095 0.0215 0.00232558292654
0.0095 0.0225 0.00108494392106
0.0095 0.0235 0.000468759529702
0.0095 0.0245 0.000175721341176
0.0095 0.0255 6.52438867473e-05
0.0095 0.0265 2.99889369434e-05
0.0095 0.0275 1.71974229555e-05
0.0095 0.0285 1.23185081233e-05
0.0095 0.0295 1.05555485572e-05
0.0095 0.0305 1.41393172536e-05
0.0095 0.0315 9.25708954003e-06
0.0105 -0.0315 0.0027897801506
0.0105 -0.0305 0.0070785270611
0.0105 -0.0295 0.00939412884379
0.0105 -0.0285 0.00949626226412
0.0105 -0.0275 0.00704977400145
0.0105 -0.0265 0.00370445122173
0.0105 -0.0255 0.00149232673196
0.0105 -0.0245 0.000822671109139
0.0105 -0.0235 0.000844224697592
0.0105 -0.0225 0.00115329529924
0.0105 -0.0215 0.00154165242168
0.0105 -0.0205 0.00145706345068
0.0105 -0.0195 0.000996013082075
0.0105 -0.0185 0.000600855199777
0.0105 -0.0175 0.000320925090427
0.0105 -0.0165 0.000207636847732
0.0105 -0.0155 0.000164262912636
0.0105 -0.0145 0.000137499810292
0.0105 -0.0135 0.000112797918558
0.0105 -0.0125 9.02659130165e-05
0.0105 -0.0115 7.1416953204e-05
0.0105 -0.0105 5.63557109785e-05
0.0105 -0.0095 4.47312912065e-05
0.0105 -0.0085 3.63239459909e-05
0.0105 -0.0075 3.14143217783e-05
0.0105 -0.0065 3.12743866915e-05
0.0105 -0.0055 3.87481620559e-05
0.0105 -0.0045 6.76026494841e-05
0.0105 -0.0035 0.000177389522685
0.0105 -0.0025 0.000572533908786
0.0105 -0.0015 0.00209865580143
0.0105 -0.0005 0.00624825233847
0.0105 0.0005 0.0124054258965
0.0105 0.0015 0.0165806064946
0.0105 0.0025 0.0153653196708
0.0105 0.0035 0.00934157462738
0.0105 0.0045 0.00352001985668
0.0105 0.0055 0.000989353270133
0.0105 0.0065 0.000283550717377
0.0105 0.0075 0.000109078250876
0.0105 0.0085 6.02627702526e-05
0.0105 0.0095 4.01963439424e-05
0.0105 0.0105 3.42567629056e-05
0.0105 0.0115 3.84067177808e-05
0.0105 0.0125 5.47596477406e-05
0.0105 0.0135 9.29159008938e-05
0.0105 0.0145 0.000173706298642
0.0105 0.0155 0.00037330901587
0.0105 0.0165 0.000882881125492
0.0105 0.0175 0.00204861690674
0.0105 0.0185 0.00394002778052
0.0105 0.0195 0.00563867647476
0.0105 0.0205 0.00581440079203
0.0105 0.0215 0.00433672147363
0.0105 0.0225 0.0023955669079
0.0105 0.0235 0.00102656077047
0.0105 0.0245 0.000358588289648
0.0105 0.0255 0.000115767880127
0.0105 0.0265 4.86130115154e-05
0.0105 0.0275 2.38734007927e-05
0.0105 0.0285 1.49287797261e-05
0.0105 0.0295 1.17164143328e-05
0.0105 0.0305 1.51447372064e-05
0.0105 0.0315 9.88108556207e-06
0.0115 -0.0315 0.00386110841105
0.0115 -0.0305 0.00886804217485
0.0115 -0.0295 0.00993623814304
0.0115 -0.0285 0.00825617256794
0.0115 -0.0275 0.00481526058161
0.0115 -0.0265 0.00198664784008
0.0115 -0.0255 0.000848276616447
0.0115 -0.0245 0.000578619254426
0.0115 -0.0235 0.000483572430054
0.0115 -0.0225 0.00068556137447
0.0115 -0.0215 0.00145771545697
0.0115 -0.0205 0.0021647476463
0.0115 -0.0195 0.00181687796537
0.0115 -0.0185 0.000949409816972
0.0115 -0.0175 0.000409015897212
0.0115 -0.0165 0.000206343024691
0.0115 -0.0155 0.000121950234696
0.0115 -0.0145 8.65839368081e-05
0.0115 -0.0135 6.83943862626e-05
0.0115 -0.0125 5.5534181363e-05
0.0115 -0.0115 4.47997939385e-05
0.0115 -0.0105 3.56479945733e-05
0.0115 -0.0095 2.81500205114e-05
0.0115 -0.0085 2.26498512785e-05
0.0115 -0.0075 1.97592523434e-05
0.0115 -0.0065 2.04021987308e-05
0.0115 -0.0055 2.73902305174e-05
0.0115 -0.0045 5.09439198891e-05
0.0115 -0.0035 0.000158296514053
0.0115 -0.0025 0.000588086076653
0.0115 -0.0015 0.00219466084049
0.0115 -0.0005 0.00648209653059
0.0115 0.0005 0.0127916188503
0.0115 0.0015 0.0168850210385
0.0115 0.0025 0.015134336982
0.0115 0.0035 0.00880248903308
0.0115 0.0045 0.00323104772077
0.0115 0.0055 0.000915296783956
0.0115 0.0065 0.000268278950816
0.0115 0.0075 0.000105739554837
0.0115 0.0085 5.87442509717e-05
0.0115 0.0095 3.85536879661e-05
0.0115 0.0105 3.12172201394e-05
0.0115 0.0115 3.20099481254e-05
0.0115 0.0125 3.94699969917e-05
0.0115 0.0135 5.62402160277e-05
0.0115 0.0145 9.00786740759e-05
0.0115 0.0155 0.00015928370184
0.0115 0.0165 0.000339873977486
0.0115 0.0175 0.000829082749106
0.0115 0.0185 0.00196465019866
0.0115 0.0195 0.00382803592629
0.0115 0.0205 0.00555269183779
0.0115 0.0215 0.0057655648631
0.0115 0.0225 0.00417224512113
0.0115 0.0235 0.00206686334041
0.0115 0.0245 0.000749467301731
0.0115 0.0255 0.000246068425662
0.0115 0.0265 8.37060281595e-05
0.0115 0.0275 3.48486887088e-05
0.0115 0.0285 1.90518643377e-05
0.0115 0.0295 1.34506370272e-05
0.0115 0.0305 1.63621909612e-05
0.0115 0.0315 1.0566882664e-05
0.0125 -0.0315 0.00480483128575
0.0125 -0.0305 0.0102569423435
0.0125 -0.0295 0.00995693960064
0.0125 -0.0285 0.00688455250466
0.0125 -0.0275 0.00321148778709
0.0125 -0.0265 0.00113882727352
0.0125 -0.0255 0.000606637451489
0.0125 -0.0245 0.000441275037079
0.0125 -0.0235 0.000347693039483
0.0125 -0.0225 0.000485687846
0.0125 -0.0215 0.00123858660896
0.0125 -0.0205 0.00244294345439
0.0125 -0.0195 0.0025148630018
0.0125 -0.0185 0.00137481328132
0.0125 -0.0175 0.000559352750524
0.0125 -0.0165 0.000240367700229
0.0125 -0.0155 0.00011768177419
0.0125 -0.0145 7.17599700441e-05
0.0125 -0.0135 5.23909550698e-05
0.0125 -0.0125 4.21554264178e-05
0.0125 -0.0115 3.48629000451e-05
0.0125 -0.0105 2.86823191621e-05
0.0125 -0.0095 2.34354507105e-05
0.0125 -0.0085 1.9534229526e-05
0.0125 -0.0075 1.76587132724e-05
0.0125 -0.0065 1.88643557645e-05
0.0125 -0.0055 2.61931445742e-05
0.0125 -0.0045 5.07065084069e-05
0.0125 -0.0035 0.000162117993784
0.0125 -0.0025 0.00060205445093
0.0125 -0.0015 0.002241334107
0.0125 -0.0005 0.00663030117055
0.0125 0.0005 0.0130684374207
0.0125 0.0015 0.0170757540303
0.0125 0.0025 0.0149325836255
0.0125 0.0035 0.00844403968311
0.0125 0.0045 0.00306074424052
0.0125 0.0055 0.000865392121205
0.0125 0.0065 0.000255467486394
0.0125 0.0075 0.000103287232339
0.0125 0.0085 5.91875570708e-05
0.0125 0.0095 3.88657547095e-05
0.0125 0.0105 3.04408221981e-05
0.0125 0.0115 3.00580362507e-05
0.0125 0.0125 3.2709417268e-05
0.0125 0.0135 3.86075448119e-05
0.0125 0.0145 5.32090631051e-05
0.0125 0.0155 8.26687536849e-05
0.0125 0.0165 0.000145265883987
0.0125 0.0175 0.000318194546459
0.0125 0.0185 0.000796656509526
0.0125 0.0195 0.00192611491173
0.0125 0.0205 0.00385274560372
0.0125 0.0215 0.0056551861156
0.0125 0.0225 0.00562413949809
0.0125 0.0235 0.00357380700391
0.0125 0.0245 0.00147021495173
0.0125 0.0255 0.000465364957482
0.0125 0.0265 0.000136502017695
0.0125 0.0275 5.2267608326e-05
0.0125 0.0285 2.56844214291e-05
0.0125 0.0295 1.6162749048e-05
0.0125 0.0305 1.79977384934e-05
0.0125 0.0315 1.14053583564e-05
0.0135 -0.0315 0.00549672927631
0.0135 -0.0305 0.0112284105668
0.0135 -0.0295 0.00979865948517
0.0135 -0.0285 0.0058254614367
0.0135 -0.0275 0.00230801915266
0.0135 -0.0265 0.000825972792809
0.0135 -0.0255 0.00050966124053
0.0135 -0.0245 0.000334933666702
0.0135 -0.0235 0.000274530390543
0.0135 -0.0225 0.000410783992031
0.0135 -0.0215 0.00107486630194
0.0135 -0.0205 0.00243531372396
0.0135 -0.0195 0.00301471387064
0.0135 -0.0185 0.00188636480655
0.0135 -0.0175 0.000706309536476
0.0135 -0.0165 0.000262690763392
0.0135 -0.0155 0.000124081914029
0.0135 -0.0145 7.10351757789e-05
0.0135 -0.0135 4.90130993762e-05
0.0135 -0.0125 3.92979038183e-05
0.0135 -0.0115 3.3301710805e-05
0.0135 -0.0105 2.80145524657e-05
0.0135 -0.0095 2.35580773968e-05
0.0135 -0.0085 2.03739313379e-05
0.0135 -0.0075 1.92239330884e-05
0.0135 -0.0065 2.14432683667e-05
0.0135 -0.0055 3.04794888259e-05
0.0135 -0.0045 5.78247639431e-05
0.0135 -0.0035 0.000173046610105
0.0135 -0.0025 0.000609657925767
0.0135 -0.0015 0.00222042575532
0.0135 -0.0005 0.0066117743944
0.0135 0.0005 0.0131438816678
0.0135 0.0015 0.0171703080158
0.0135 0.0025 0.0148736391156
0.0135 0.0035 0.00834463745338
0.0135 0.0045 0.00303987555251
0.0135 0.0055 0.00086473128316
0.0135 0.0065 0.000260136921429
0.0135 0.0075 0.000111371927686
0.0135 0.0085 6.63484965323e-05
0.0135 0.0095 4.2212882063e-05
0.0135 0.0105 3.09807025689e-05
0.0135 0.0115 2.85073417504e-05
0.0135 0.0125 2.84931550933e-05
0.0135 0.0135 2.9694465715e-05
0.0135 0.0145 3.581416302e-05
0.0135 0.0155 4.91241782771e-05
0.0135 0.0165 7.59082664933e-05
0.0135 0.0175 0.000136393356515
0.0135 0.0185 0.000313141438901
0.0135 0.0195 0.00082237605874
0.0135 0.0205 0.00209300352477
0.0135 0.0215 0.00429986523386
0.0135 0.0225 0.00599082300517
0.0135 0.0235 0.0051079032163
0.0135 0.0245 0.00253423910888
0.0135 0.0255 0.000776336130816
0.0135 0.0265 0.00022151446966
0.0135 0.0275 8.39092485883e-05
0.0135 0.0285 3.75249665346e-05
0.0135 0.0295 2.09137986812e-05
0.0135 0.0305 2.05070412531e-05
0.0135 0.0315 1.25788739601e-05
0.0145 -0.0315 0.00591682815786
0.0145 -0.0305 0.0118256030518
0.0145 -0.0295 0.00965072230984
0.0145 -0.0285 0.00516140331428
0.0145 -0.0275 0.00186012319058
0.0145 -0.0265 0.000759183530977
0.0145 -0.0255 0.00052357191254
0.0145 -0.0245 0.000310173102461
0.0145 -0.0235 0.000243877098759
0.0145 -0.0225 0.00037681715798
0.0145 -0.0215 0.000966661955897
0.0145 -0.0205 0.00231596104425
0.0145 -0.0195 0.00333034983539
0.0145 -0.0185 0.00236286423958
0.0145 -0.0175 0.00085266996831
0.0145 -0.0165 0.000289489447235
0.0145 -0.0155 0.00013877596028
0.0145 -0.0145 7.62029350216e-05
0.0145 -0.0135 5.07947123337e-05
0.0145 -0.0125 4.19282655278e-05
0.0145 -0.0115 3.73352776694e-05
0.0145 -0.0105 3.14578975214e-05
0.0145 -0.0095 2.62908085903e-05
0.0145 -0.0085 2.32379598258e-05
0.0145 -0.0075 2.2905735831e-05
0.0145 -0.0065 2.68627474058e-05
0.0145 -0.0055 3.92165531317e-05
0.0145 -0.0045 7.15352886256e-05
0.0145 -0.0035 0.000188213902198
0.0145 -0.0025 0.000606245122093
0.0145 -0.0015 0.00213751239231
0.0145 -0.0005 0.00641784828173
0.0145 0.0005 0.0129809052984
0.0145 0.0015 0.0171581313583
0.0145 0.0025 0.0149696167722
0.0145 0.0035 0.00850243239764
0.0145 0.0045 0.00317198585207