% Model:              Benchmark260518.mph
% Version:            COMSOL 6.2.0.339
% Date:               May 19 2026, 02:24
% Dimension:          2
% Nodes:              4096
% Expressions:        1
% Description:        速度大小
% Length unit:        m
% x                       y                        spf.U (m/s)
5.0E-4                    -0.0315                  1.672642570976785E-6
5.0E-4                    -0.0305                  3.3829013678553023E-6
5.0E-4                    -0.0295                  3.840450154105983E-6
5.0E-4                    -0.0285                  4.313730686950306E-6
5.0E-4                    -0.0275                  4.585028368038186E-6
5.0E-4                    -0.0265                  4.842970830772985E-6
5.0E-4                    -0.0255                  5.048896084530955E-6
5.0E-4                    -0.0245                  5.2198093870412495E-6
5.0E-4                    -0.0235                  5.364068082433289E-6
5.0E-4                    -0.0225                  5.485688389470746E-6
5.0E-4                    -0.0215                  5.601607472058254E-6
5.0E-4                    -0.0205                  5.724774042187407E-6
5.0E-4                    -0.0195                  5.863898946009614E-6
5.0E-4                    -0.0185                  6.055126895260097E-6
5.0E-4                    -0.0175                  6.3331831587516425E-6
5.0E-4                    -0.0165                  6.800079142497405E-6
5.0E-4                    -0.0155                  7.69665014744576E-6
5.0E-4                    -0.0145                  9.237323325664493E-6
5.0E-4                    -0.0135                  1.3687689147640442E-5
5.0E-4                    -0.0125                  2.8627987599022634E-5
5.0E-4                    -0.0115                  7.34698711257757E-5
5.0E-4                    -0.0105                  2.035546669644344E-4
5.0E-4                    -0.0095                  4.256484937717253E-4
5.0E-4                    -0.0085                  6.699146855547449E-4
5.0E-4                    -0.0075                  0.001086336205274602
5.0E-4                    -0.0065                  0.002012080923882413
5.0E-4                    -0.0055                  0.0033351314904464984
5.0E-4                    -0.0045                  0.00457138572588265
5.0E-4                    -0.0035                  0.005232706609778827
5.0E-4                    -0.0025                  0.005059424712293528
5.0E-4                    -0.0015                  0.004145392907474967
5.0E-4                    -5.0E-4                  0.002774847472882667
5.0E-4                    5.0E-4                   0.0017283455545186125
5.0E-4                    0.0015                   0.0028908364857934492
5.0E-4                    0.0025                   0.004361945994690852
5.0E-4                    0.0035                   0.004575566935176504
5.0E-4                    0.0045                   0.0038209633271594147
5.0E-4                    0.0055                   0.0039518782678859
5.0E-4                    0.0065                   0.03384831964280713
5.0E-4                    0.0075                   0.062229735515118116
5.0E-4                    0.0085                   0.055008568137154844
5.0E-4                    0.0095                   0.023904340234456162
5.0E-4                    0.0105                   0.0017023307313840615
5.0E-4                    0.0115                   0.0017138144087499928
5.0E-4                    0.0125                   0.0011473491657515132
5.0E-4                    0.0135                   5.193540378437603E-4
5.0E-4                    0.0145                   1.4970302536233295E-4
5.0E-4                    0.0155                   6.834828857084738E-5
5.0E-4                    0.0165                   3.7855049746985044E-5
5.0E-4                    0.0175                   2.074117941770435E-5
5.0E-4                    0.0185                   1.1588301270382012E-5
5.0E-4                    0.0195                   7.364026901715604E-6
5.0E-4                    0.0205                   5.766142762136703E-6
5.0E-4                    0.0215                   5.099068393516792E-6
5.0E-4                    0.0225                   4.612989443721343E-6
5.0E-4                    0.0235                   4.250351098490352E-6
5.0E-4                    0.0245                   3.973640605497811E-6
5.0E-4                    0.0255                   3.7304049577999087E-6
5.0E-4                    0.0265                   3.515083590074566E-6
5.0E-4                    0.0275                   3.298512713820684E-6
5.0E-4                    0.0285                   3.067848969718282E-6
5.0E-4                    0.0295                   2.7321424691061E-6
5.0E-4                    0.0305                   2.426724308012797E-6
5.0E-4                    0.0315                   1.1972299415666068E-6
0.0015                    -0.0315                  3.262870699910326E-6
0.0015                    -0.0305                  6.50857734681812E-6
0.0015                    -0.0295                  7.077638671222795E-6
0.0015                    -0.0285                  7.620320815924551E-6
0.0015                    -0.0275                  7.844278294365886E-6
0.0015                    -0.0265                  8.068582814672872E-6
0.0015                    -0.0255                  8.252346357278372E-6
0.0015                    -0.0245                  8.408019525294555E-6
0.0015                    -0.0235                  8.5364502847246E-6
0.0015                    -0.0225                  8.639824296653592E-6
0.0015                    -0.0215                  8.737585996119116E-6
0.0015                    -0.0205                  8.851467114236413E-6
0.0015                    -0.0195                  9.005550838786948E-6
0.0015                    -0.0185                  9.257702472071968E-6
0.0015                    -0.0175                  9.689313072286164E-6
0.0015                    -0.0165                  1.0505125919210772E-5
0.0015                    -0.0155                  1.2163379660608934E-5
0.0015                    -0.0145                  1.5557567635944366E-5
0.0015                    -0.0135                  2.4773115040700387E-5
0.0015                    -0.0125                  5.1797874311110326E-5
0.0015                    -0.0115                  1.2964073487979933E-4
0.0015                    -0.0105                  3.8616140528520664E-4
0.0015                    -0.0095                  9.265184210111769E-4
0.0015                    -0.0085                  0.0020465936367219727
0.0015                    -0.0075                  0.0044318137403011855
0.0015                    -0.0065                  0.008013727311261487
0.0015                    -0.0055                  0.011742200323294455
0.0015                    -0.0045                  0.01468453705060728
0.0015                    -0.0035                  0.016334222865109837
0.0015                    -0.0025                  0.01657063036548306
0.0015                    -0.0015                  0.015530085651586286
0.0015                    -5.0E-4                  0.013300159157218144
0.0015                    5.0E-4                   0.009751157973723817
0.0015                    0.0015                   0.0052003835112603885
0.0015                    0.0025                   0.0027504881880076677
0.0015                    0.0035                   0.004509207209719138
0.0015                    0.0045                   0.004343478653914872
0.0015                    0.0055                   0.011522976042550844
0.0015                    0.0065                   0.04009050168049911
0.0015                    0.0075                   0.059623428453553166
0.0015                    0.0085                   0.05157075234275443
0.0015                    0.0095                   0.024421644526128265
0.0015                    0.0105                   0.0037024401982805382
0.0015                    0.0115                   0.0035670436070487904
0.0015                    0.0125                   0.0029702030983962584
0.0015                    0.0135                   0.0017491739075456301
0.0015                    0.0145                   6.017897578183514E-4
0.0015                    0.0155                   2.028461798673631E-4
0.0015                    0.0165                   1.0916411746397538E-4
0.0015                    0.0175                   5.434934189031291E-5
0.0015                    0.0185                   2.743848354627574E-5
0.0015                    0.0195                   1.5233952988770235E-5
0.0015                    0.0205                   1.0461774328389604E-5
0.0015                    0.0215                   8.56418524812725E-6
0.0015                    0.0225                   7.533453959121223E-6
0.0015                    0.0235                   6.8881061607736745E-6
0.0015                    0.0245                   6.46179254569889E-6
0.0015                    0.0255                   6.150440980032128E-6
0.0015                    0.0265                   5.9202009983445485E-6
0.0015                    0.0275                   5.720954611042129E-6
0.0015                    0.0285                   5.526674261091241E-6
0.0015                    0.0295                   5.132618796873467E-6
0.0015                    0.0305                   4.707598546235861E-6
0.0015                    0.0315                   2.3435618913995804E-6
0.0025                    -0.0315                  3.411845450842388E-6
0.0025                    -0.0305                  6.594818082884292E-6
0.0025                    -0.0295                  6.846691130206217E-6
0.0025                    -0.0285                  7.1591222830986466E-6
0.0025                    -0.0275                  7.1138144696247896E-6
0.0025                    -0.0265                  7.045698101305347E-6
0.0025                    -0.0255                  6.976251143805759E-6
0.0025                    -0.0245                  6.91725443729388E-6
0.0025                    -0.0235                  6.854664554298434E-6
0.0025                    -0.0225                  6.782759838957922E-6
0.0025                    -0.0215                  6.708275528463832E-6
0.0025                    -0.0205                  6.656479412023497E-6
0.0025                    -0.0195                  6.671575073819285E-6
0.0025                    -0.0185                  6.821587502423746E-6
0.0025                    -0.0175                  7.236698045552627E-6
0.0025                    -0.0165                  8.200210050935017E-6
0.0025                    -0.0155                  1.0368495761640248E-5
0.0025                    -0.0145                  1.5542528030393293E-5
0.0025                    -0.0135                  2.835487614685094E-5
0.0025                    -0.0125                  6.27140444897473E-5
0.0025                    -0.0115                  1.5876795524829063E-4
0.0025                    -0.0105                  5.400500186862354E-4
0.0025                    -0.0095                  0.0017286073269693997
0.0025                    -0.0085                  0.004807360715794378
0.0025                    -0.0075                  0.009987687534978808
0.0025                    -0.0065                  0.015480878828761752
0.0025                    -0.0055                  0.019669402633915863
0.0025                    -0.0045                  0.022361999952557162
0.0025                    -0.0035                  0.024028237403455933
0.0025                    -0.0025                  0.025149307059985544
0.0025                    -0.0015                  0.025880030948633368
0.0025                    -5.0E-4                  0.025885799580647528
0.0025                    5.0E-4                   0.024419036236317478
0.0025                    0.0015                   0.020702585762073053
0.0025                    0.0025                   0.014878181815554213
0.0025                    0.0035                   0.00927620029844572
0.0025                    0.0045                   0.00920994455644858
0.0025                    0.0055                   0.02148807022475281
0.0025                    0.0065                   0.042819424617070063
0.0025                    0.0075                   0.053945780995918305
0.0025                    0.0085                   0.04604612165089122
0.0025                    0.0095                   0.024622654963623838
0.0025                    0.0105                   0.006114260814027443
0.0025                    0.0115                   6.640940093869474E-4
0.0025                    0.0125                   0.0024222392819186274
0.0025                    0.0135                   0.0023079467881281105
0.0025                    0.0145                   0.001118405788921799
0.0025                    0.0155                   4.033300169152802E-4
0.0025                    0.0165                   2.482713575047422E-4
0.0025                    0.0175                   1.2000334237718128E-4
0.0025                    0.0185                   4.789801804688806E-5
0.0025                    0.0195                   2.1215408234426176E-5
0.0025                    0.0205                   1.1790599117160792E-5
0.0025                    0.0215                   8.09218181691619E-6
0.0025                    0.0225                   6.498183773156213E-6
0.0025                    0.0235                   5.747852110796345E-6
0.0025                    0.0245                   5.395852265355683E-6
0.0025                    0.0255                   5.263865627737564E-6
0.0025                    0.0265                   5.261455720163794E-6
0.0025                    0.0275                   5.312467212896541E-6
0.0025                    0.0285                   5.355240537395298E-6
0.0025                    0.0295                   5.104081671583216E-6
0.0025                    0.0305                   4.7855885382995465E-6
0.0025                    0.0315                   2.4217559355179337E-6
0.0035                    -0.0315                  3.668456918701147E-6
0.0035                    -0.0305                  6.822718559692893E-6
0.0035                    -0.0295                  6.94426486127881E-6
0.0035                    -0.0285                  7.458027988899589E-6
0.0035                    -0.0275                  7.526224432106131E-6
0.0035                    -0.0265                  7.501698992643723E-6
0.0035                    -0.0255                  7.437870489245129E-6
0.0035                    -0.0245                  7.382843443308699E-6
0.0035                    -0.0235                  7.326882023011555E-6
0.0035                    -0.0225                  7.257334822018098E-6
0.0035                    -0.0215                  7.177604623922284E-6
0.0035                    -0.0205                  7.1247625614198175E-6
0.0035                    -0.0195                  7.1764896808276576E-6
0.0035                    -0.0185                  7.460354730089288E-6
0.0035                    -0.0175                  8.200022424414899E-6
0.0035                    -0.0165                  9.87596127281043E-6
0.0035                    -0.0155                  1.3672711421476236E-5
0.0035                    -0.0145                  2.2572921912187107E-5
0.0035                    -0.0135                  4.546513159864355E-5
0.0035                    -0.0125                  1.092574394609896E-4
0.0035                    -0.0115                  3.316103412174811E-4
0.0035                    -0.0105                  0.001099084141577656
0.0035                    -0.0095                  0.0037960764953480796
0.0035                    -0.0085                  0.009510385386474422
0.0035                    -0.0075                  0.01613896491323428
0.0035                    -0.0065                  0.02079042889992906
0.0035                    -0.0055                  0.023094277994149613
0.0035                    -0.0045                  0.024068582870907025
0.0035                    -0.0035                  0.024686319840401587
0.0035                    -0.0025                  0.02569808605045424
0.0035                    -0.0015                  0.027532929052271556
0.0035                    -5.0E-4                  0.029921414096041366
0.0035                    5.0E-4                   0.031851837273450666
0.0035                    0.0015                   0.03199496876327814
0.0035                    0.0025                   0.029592412533211942
0.0035                    0.0035                   0.02581049738966152
0.0035                    0.0045                   0.024596217901593907
0.0035                    0.0055                   0.030324074901528917
0.0035                    0.0065                   0.040469070134205615
0.0035                    0.0075                   0.044264493084367494
0.0035                    0.0085                   0.037090272779752506
0.0035                    0.0095                   0.024304077597137916
0.0035                    0.0105                   0.015432873323304093
0.0035                    0.0115                   0.011416602993871488
0.0035                    0.0125                   0.008471773776689409
0.0035                    0.0135                   0.005295401911653522
0.0035                    0.0145                   0.0025549772387035057
0.0035                    0.0155                   0.0011622167112430575
0.0035                    0.0165                   6.376162975293783E-4
0.0035                    0.0175                   2.7699112385805194E-4
0.0035                    0.0185                   8.880423722105345E-5
0.0035                    0.0195                   3.527144261377197E-5
0.0035                    0.0205                   1.7353513752303027E-5
0.0035                    0.0215                   1.0368382459332941E-5
0.0035                    0.0225                   7.473999060045451E-6
0.0035                    0.0235                   6.230522892664185E-6
0.0035                    0.0245                   5.726170930472773E-6
0.0035                    0.0255                   5.584324117825733E-6
0.0035                    0.0265                   5.615560688182622E-6
0.0035                    0.0275                   5.672303262634373E-6
0.0035                    0.0285                   5.644430706850832E-6
0.0035                    0.0295                   5.227964332104996E-6
0.0035                    0.0305                   4.930135686665162E-6
0.0035                    0.0315                   2.5679461322548426E-6
0.0045                    -0.0315                  3.860912484021199E-6
0.0045                    -0.0305                  6.917644257881722E-6
0.0045                    -0.0295                  6.779242484661533E-6
0.0045                    -0.0285                  7.387685119706685E-6
0.0045                    -0.0275                  7.606045768742304E-6
0.0045                    -0.0265                  7.70269823383287E-6
0.0045                    -0.0255                  7.725190197469612E-6
0.0045                    -0.0245                  7.755577852073301E-6
0.0045                    -0.0235                  7.803272936639625E-6
0.0045                    -0.0225                  7.85547600409048E-6
0.0045                    -0.0215                  7.913847064475966E-6
0.0045                    -0.0205                  8.037173751057243E-6
0.0045                    -0.0195                  8.370567993177336E-6
0.0045                    -0.0185                  9.154545900781797E-6
0.0045                    -0.0175                  1.077771160895047E-5
0.0045                    -0.0165                  1.4047960761178122E-5
0.0045                    -0.0155                  2.0980556756124777E-5
0.0045                    -0.0145                  3.768642904126925E-5
0.0045                    -0.0135                  8.274888025650777E-5
0.0045                    -0.0125                  2.3487783850392193E-4
0.0045                    -0.0115                  7.396743297703075E-4
0.0045                    -0.0105                  0.002373616658345479
0.0045                    -0.0095                  0.007242536461331842
0.0045                    -0.0085                  0.014948808405775815
0.0045                    -0.0075                  0.02094587957258354
0.0045                    -0.0065                  0.023044383489699297
0.0045                    -0.0055                  0.02244822841575969
0.0045                    -0.0045                  0.02056962126217085
0.0045                    -0.0035                  0.018736276427518416
0.0045                    -0.0025                  0.018197990762897433
0.0045                    -0.0015                  0.019666876611111873
0.0045                    -5.0E-4                  0.023129965499648436
0.0045                    5.0E-4                   0.027785317840023954
0.0045                    0.0015                   0.03202645123621104
0.0045                    0.0025                   0.03415879952680808
0.0045                    0.0035                   0.03375395644701751
0.0045                    0.0045                   0.032348663228308795
0.0045                    0.0055                   0.03210284917340368
0.0045                    0.0065                   0.03284287536277688
0.0045                    0.0075                   0.03084927073017255
0.0045                    0.0085                   0.025549966977349414
0.0045                    0.0095                   0.023442015193551036
0.0045                    0.0105                   0.024457366265859298
0.0045                    0.0115                   0.02326487059005382
0.0045                    0.0125                   0.019549149232873
0.0045                    0.0135                   0.014430101249636212
0.0045                    0.0145                   0.00884094878675381
0.0045                    0.0155                   0.004252310987746127
0.0045                    0.0165                   0.0016517157754565325
0.0045                    0.0175                   5.546636077385216E-4
0.0045                    0.0185                   1.621865565683379E-4
0.0045                    0.0195                   6.161192570123771E-5
0.0045                    0.0205                   2.6849019489686083E-5
0.0045                    0.0215                   1.4127217058485694E-5
0.0045                    0.0225                   8.973915799305517E-6
0.0045                    0.0235                   6.869519193279692E-6
0.0045                    0.0245                   6.05323551559469E-6
0.0045                    0.0255                   5.812986493680545E-6
0.0045                    0.0265                   5.7988993702147505E-6
0.0045                    0.0275                   5.782195262455962E-6
0.0045                    0.0285                   5.641315151600992E-6
0.0045                    0.0295                   5.13816528514227E-6
0.0045                    0.0305                   4.992480544569411E-6
0.0045                    0.0315                   2.6921497113925486E-6
0.0055                    -0.0315                  4.019667879833224E-6
0.0055                    -0.0305                  7.019438547328964E-6
0.0055                    -0.0295                  6.648850728202788E-6
0.0055                    -0.0285                  7.269844769958309E-6
0.0055                    -0.0275                  7.583021389093444E-6
0.0055                    -0.0265                  7.80556427214849E-6
0.0055                    -0.0255                  7.957667985378093E-6
0.0055                    -0.0245                  8.15046142600915E-6
0.0055                    -0.0235                  8.432808826393152E-6
0.0055                    -0.0225                  8.815178132482173E-6
0.0055                    -0.0215                  9.314324636946302E-6
0.0055                    -0.0205                  1.0046899059452684E-5
0.0055                    -0.0195                  1.1314895944344951E-5
0.0055                    -0.0185                  1.3671508320360647E-5
0.0055                    -0.0175                  1.7804572843921354E-5
0.0055                    -0.0165                  2.4895312097256792E-5
0.0055                    -0.0155                  3.8902098597633775E-5
0.0055                    -0.0145                  7.220956870852874E-5
0.0055                    -0.0135                  1.761111932900917E-4
0.0055                    -0.0125                  5.17063700876062E-4
0.0055                    -0.0115                  0.0014766254165820842
0.0055                    -0.0105                  0.004584136072211571
0.0055                    -0.0095                  0.011617049146629487
0.0055                    -0.0085                  0.019721613475495607
0.0055                    -0.0075                  0.02365905641380885
0.0055                    -0.0065                  0.02267255910856795
0.0055                    -0.0055                  0.018650883187622983
0.0055                    -0.0045                  0.013607432518807926
0.0055                    -0.0035                  0.009709348954758642
0.0055                    -0.0025                  0.008040406317052887
0.0055                    -0.0015                  0.008486030850723313
0.0055                    -5.0E-4                  0.01078752128930193
0.0055                    5.0E-4                   0.014877318994995586
0.0055                    0.0015                   0.020102924109807484
0.0055                    0.0025                   0.024936296148371822
0.0055                    0.0035                   0.027750197848208587
0.0055                    0.0045                   0.02787033317433463
0.0055                    0.0055                   0.0256667012418426
0.0055                    0.0065                   0.021553199534606434
0.0055                    0.0075                   0.016325651175127433
0.0055                    0.0085                   0.014539493750550152
0.0055                    0.0095                   0.018691226880742096
0.0055                    0.0105                   0.0227626873023722
0.0055                    0.0115                   0.023932582309142976
0.0055                    0.0125                   0.022853034578096197
0.0055                    0.0135                   0.020179570708183752
0.0055                    0.0145                   0.015766397477409065
0.0055                    0.0155                   0.00965941742501882
0.0055                    0.0165                   0.004072675748228535
0.0055                    0.0175                   0.0012225002248042625
0.0055                    0.0185                   3.6572630206555034E-4
0.0055                    0.0195                   1.1673438625690653E-4
0.0055                    0.0205                   4.600071726347223E-5
0.0055                    0.0215                   2.1069533393703667E-5
0.0055                    0.0225                   1.1737664956213664E-5
0.0055                    0.0235                   8.029814269208108E-6
0.0055                    0.0245                   6.603026843929899E-6
0.0055                    0.0255                   6.113639559413582E-6
0.0055                    0.0265                   5.963717169697134E-6
0.0055                    0.0275                   5.8300357865198835E-6
0.0055                    0.0285                   5.59595475022136E-6
0.0055                    0.0295                   5.0636100752064595E-6
0.0055                    0.0305                   5.052923230851249E-6
0.0055                    0.0315                   2.789464588507922E-6
0.0065                    -0.0315                  4.145733372027528E-6
0.0065                    -0.0305                  7.111742205925979E-6
0.0065                    -0.0295                  6.5500358524483405E-6
0.0065                    -0.0285                  7.14468715453014E-6
0.0065                    -0.0275                  7.492292275201157E-6
0.0065                    -0.0265                  7.797480143237559E-6
0.0065                    -0.0255                  8.078553929376643E-6
0.0065                    -0.0245                  8.500453854619587E-6
0.0065                    -0.0235                  9.201626536307318E-6
0.0065                    -0.0225                  1.0284208702775624E-5
0.0065                    -0.0215                  1.1853507844517058E-5
0.0065                    -0.0205                  1.4199108037216623E-5
0.0065                    -0.0195                  1.808353760577277E-5
0.0065                    -0.0185                  2.488407786027506E-5
0.0065                    -0.0175                  3.715467462369254E-5
0.0065                    -0.0165                  5.678028356411588E-5
0.0065                    -0.0155                  8.746403829356729E-5
0.0065                    -0.0145                  1.682268457057388E-4
0.0065                    -0.0135                  4.0196091580968973E-4
0.0065                    -0.0125                  0.0010086144543713417
0.0065                    -0.0115                  0.0027677082464801356
0.0065                    -0.0105                  0.007763720613631342
0.0065                    -0.0095                  0.01610749520990587
0.0065                    -0.0085                  0.022986263811727477
0.0065                    -0.0075                  0.024184139317913314
0.0065                    -0.0065                  0.02006649325597568
0.0065                    -0.0055                  0.013250049347801687