% Model:              Benchmark260518.mph
% Version:            COMSOL 6.2.0.339
% Date:               May 20 2026, 19:01
% Dimension:          2
% Nodes:              4096
% Expressions:        1
% Description:        速度大小
% Length unit:        m
% x                       y                        spf.U (m/s)
% mirrored_by_python_y_to_minus_y, coord_match_decimals=12
0.0005 -0.0315 1.8005353404e-06
0.0005 -0.0305 3.63951340684e-06
0.0005 -0.0295 4.10811595301e-06
0.0005 -0.0285 4.55823827325e-06
0.0005 -0.0275 4.76304333136e-06
0.0005 -0.0265 4.94404149133e-06
0.0005 -0.0255 5.09736510553e-06
0.0005 -0.0245 5.23705594552e-06
0.0005 -0.0235 5.35457165502e-06
0.0005 -0.0225 5.46747641431e-06
0.0005 -0.0215 5.58463684194e-06
0.0005 -0.0205 5.72915139061e-06
0.0005 -0.0195 5.94502809123e-06
0.0005 -0.0185 6.34985262245e-06
0.0005 -0.0175 7.96809416551e-06
0.0005 -0.0165 1.42365366399e-05
0.0005 -0.0155 3.50951355234e-05
0.0005 -0.0145 9.99998909519e-05
0.0005 -0.0135 0.000184512792008
0.0005 -0.0125 0.000207291845703
0.0005 -0.0115 0.000453982147473
0.0005 -0.0105 0.00056641712895
0.0005 -0.0095 0.0188463978623
0.0005 -0.0085 0.0449958894794
0.0005 -0.0075 0.0514072498702
0.0005 -0.0065 0.0273453742702
0.0005 -0.0055 0.0023921499893
0.0005 -0.0045 0.00119401790597
0.0005 -0.0035 0.000395411213915
0.0005 -0.0025 0.000142517684817
0.0005 -0.0015 5.52923168878e-05
0.0005 -0.0005 3.02234541319e-05
0.0005 0.0005 1.30392755754e-05
0.0005 0.0015 6.23530319833e-06
0.0005 0.0025 3.60660063195e-06
0.0005 0.0035 2.61893225879e-06
0.0005 0.0045 2.33694275494e-06
0.0005 0.0055 2.40772617127e-06
0.0005 0.0065 2.5311411455e-06
0.0005 0.0075 2.61215269077e-06
0.0005 0.0085 2.70395884713e-06
0.0005 0.0095 2.78592120151e-06
0.0005 0.0105 2.86805102397e-06
0.0005 0.0115 2.94046436694e-06
0.0005 0.0125 2.99891236678e-06
0.0005 0.0135 3.0460978702e-06
0.0005 0.0145 3.08097349788e-06
0.0005 0.0155 3.08106383319e-06
0.0005 0.0165 3.04211031986e-06
0.0005 0.0175 2.97935932463e-06
0.0005 0.0185 2.90822404731e-06
0.0005 0.0195 2.84369254701e-06
0.0005 0.0205 2.7766166326e-06
0.0005 0.0215 2.70430416137e-06
0.0005 0.0225 2.63583447214e-06
0.0005 0.0235 2.5697648328e-06
0.0005 0.0245 2.50147099302e-06
0.0005 0.0255 2.42724280539e-06
0.0005 0.0265 2.34737556192e-06
0.0005 0.0275 2.24433717485e-06
0.0005 0.0285 2.09996647184e-06
0.0005 0.0295 1.89885245567e-06
0.0005 0.0305 1.74358789367e-06
0.0005 0.0315 8.72618535809e-07
0.0015 -0.0315 3.54187734654e-06
0.0015 -0.0305 7.04942210803e-06
0.0015 -0.0295 7.6108781249e-06
0.0015 -0.0285 8.0919553322e-06
0.0015 -0.0275 8.19558654709e-06
0.0015 -0.0265 8.28775772823e-06
0.0015 -0.0255 8.36918602976e-06
0.0015 -0.0245 8.4565631893e-06
0.0015 -0.0235 8.54167280633e-06
0.0015 -0.0225 8.64421367731e-06
0.0015 -0.0215 8.78234751459e-06
0.0015 -0.0205 8.99988332902e-06
0.0015 -0.0195 9.39910610954e-06
0.0015 -0.0185 1.0323852816e-05
0.0015 -0.0175 1.34849813436e-05
0.0015 -0.0165 2.40904656735e-05
0.0015 -0.0155 5.70780078172e-05
0.0015 -0.0145 0.000151290189956
0.0015 -0.0135 0.000278325708108
0.0015 -0.0125 0.000417104053715
0.0015 -0.0115 0.00106874755755
0.0015 -0.0105 0.00090811468193
0.0015 -0.0095 0.0179282406251
0.0015 -0.0085 0.042340843351
0.0015 -0.0075 0.0508615180151
0.0015 -0.0065 0.0324522228319
0.0015 -0.0055 0.00657686005654
0.0015 -0.0045 0.00244231119625
0.0015 -0.0035 0.00121833801039
0.0015 -0.0025 0.00045864755626
0.0015 -0.0015 0.000162462833206
0.0015 -0.0005 6.74953516294e-05
0.0015 0.0005 2.82125646813e-05
0.0015 0.0015 1.40731464476e-05
0.0015 0.0025 8.43700038076e-06
0.0015 0.0035 6.14154606653e-06
0.0015 0.0045 5.24005762565e-06
0.0015 0.0055 4.97029433624e-06
0.0015 0.0065 4.86762834127e-06
0.0015 0.0075 4.77922486109e-06
0.0015 0.0085 4.74387608469e-06
0.0015 0.0095 4.74076331524e-06
0.0015 0.0105 4.77042132998e-06
0.0015 0.0115 4.81525787788e-06
0.0015 0.0125 4.86084626739e-06
0.0015 0.0135 4.90055580246e-06
0.0015 0.0145 4.92551575015e-06
0.0015 0.0155 4.90978957037e-06
0.0015 0.0165 4.84804718484e-06
0.0015 0.0175 4.75762617619e-06
0.0015 0.0185 4.65854417471e-06
0.0015 0.0195 4.56851595288e-06
0.0015 0.0205 4.48107114071e-06
0.0015 0.0215 4.3944517878e-06
0.0015 0.0225 4.31806681055e-06
0.0015 0.0235 4.25160296882e-06
0.0015 0.0245 4.19092858994e-06
0.0015 0.0255 4.13295239644e-06
0.0015 0.0265 4.07819472174e-06
0.0015 0.0275 4.00339317727e-06
0.0015 0.0285 3.89115603917e-06
0.0015 0.0295 3.64930073842e-06
0.0015 0.0305 3.40766412342e-06
0.0015 0.0315 1.70942182231e-06
0.0025 -0.0315 3.77615735695e-06
0.0025 -0.0305 7.25555054306e-06
0.0025 -0.0295 7.45086238553e-06
0.0025 -0.0285 7.69300259725e-06
0.0025 -0.0275 7.53031348444e-06
0.0025 -0.0265 7.32608546717e-06
0.0025 -0.0255 7.12018675184e-06
0.0025 -0.0245 6.94639197916e-06
0.0025 -0.0235 6.81386878836e-06
0.0025 -0.0225 6.73547931257e-06
0.0025 -0.0215 6.73500286013e-06
0.0025 -0.0205 6.8605523028e-06
0.0025 -0.0195 7.2387047154e-06
0.0025 -0.0185 8.2902193072e-06
0.0025 -0.0175 1.12443216992e-05
0.0025 -0.0165 1.9160042896e-05
0.0025 -0.0155 3.90888908438e-05
0.0025 -0.0145 8.25319689254e-05
0.0025 -0.0135 0.000158234888107
0.0025 -0.0125 0.000405768704378
0.0025 -0.0115 0.00125707309632
0.0025 -0.0105 0.000676960360033
0.0025 -0.0095 0.0156716269036
0.0025 -0.0085 0.0389255361848
0.0025 -0.0075 0.0497959048706
0.0025 -0.0065 0.0364784055659
0.0025 -0.0055 0.0112669108003
0.0025 -0.0045 0.00190163011331
0.0025 -0.0035 0.00211496428718
0.0025 -0.0025 0.000890270301868
0.0025 -0.0015 0.000300587895458
0.0025 -0.0005 0.000105383034263
0.0025 0.0005 3.92274940424e-05
0.0025 0.0015 2.02481160683e-05
0.0025 0.0025 1.28716719769e-05
0.0025 0.0035 9.48026613382e-06
0.0025 0.0045 7.58358054178e-06
0.0025 0.0055 6.34979397237e-06
0.0025 0.0065 5.50602479247e-06
0.0025 0.0075 4.93447233432e-06
0.0025 0.0085 4.54779934369e-06
0.0025 0.0095 4.29495047694e-06
0.0025 0.0105 4.13767814469e-06
0.0025 0.0115 4.04809340804e-06
0.0025 0.0125 3.99917857864e-06
0.0025 0.0135 3.96768540864e-06
0.0025 0.0145 3.9363369978e-06
0.0025 0.0155 3.89652547319e-06
0.0025 0.0165 3.84653930612e-06
0.0025 0.0175 3.79105711122e-06
0.0025 0.0185 3.73837601495e-06
0.0025 0.0195 3.69466804761e-06
0.0025 0.0205 3.664441234e-06
0.0025 0.0215 3.65006935324e-06
0.0025 0.0225 3.65298743967e-06
0.0025 0.0235 3.67452708916e-06
0.0025 0.0245 3.71492826306e-06
0.0025 0.0255 3.7729600947e-06
0.0025 0.0265 3.84436884573e-06
0.0025 0.0275 3.90619859718e-06
0.0025 0.0285 3.93805783476e-06
0.0025 0.0295 3.74534316469e-06
0.0025 0.0305 3.49299212877e-06
0.0025 0.0315 1.76123708769e-06
0.0035 -0.0315 4.15486903213e-06
0.0035 -0.0305 7.65033573639e-06
0.0035 -0.0295 7.6692814245e-06
0.0035 -0.0285 8.14717607984e-06
0.0035 -0.0275 8.12048582136e-06
0.0035 -0.0265 7.95271388596e-06
0.0035 -0.0255 7.71032841282e-06
0.0035 -0.0245 7.47160883984e-06
0.0035 -0.0235 7.26686510784e-06
0.0035 -0.0225 7.12433851245e-06
0.0035 -0.0215 7.07772664098e-06
0.0035 -0.0205 7.18312186091e-06
0.0035 -0.0195 7.56586086532e-06
0.0035 -0.0185 8.57009789734e-06
0.0035 -0.0175 1.11327328764e-05
0.0035 -0.0165 1.73960019985e-05
0.0035 -0.0155 3.07442163853e-05
0.0035 -0.0145 5.60810767287e-05
0.0035 -0.0135 0.000115709298418
0.0035 -0.0125 0.000326623262124
0.0035 -0.0115 0.00111973340057
0.0035 -0.0105 0.000712190017102
0.0035 -0.0095 0.0126804659255
0.0035 -0.0085 0.0346743252717
0.0035 -0.0075 0.0480353301287
0.0035 -0.0065 0.0400925281378
0.0035 -0.0055 0.0175497156721
0.0035 -0.0045 0.000722086821024
0.0035 -0.0035 0.00290663948498
0.0035 -0.0025 0.00152653899618
0.0035 -0.0015 0.000531825492604
0.0035 -0.0005 0.000174984432065
0.0035 0.0005 6.15183588644e-05
0.0035 0.0015 3.23919837997e-05
0.0035 0.0025 2.1592711508e-05
0.0035 0.0035 1.63027044695e-05
0.0035 0.0045 1.22780685174e-05
0.0035 0.0055 9.12729798679e-06
0.0035 0.0065 7.07600321201e-06
0.0035 0.0075 5.90555067941e-06
0.0035 0.0085 5.26491577294e-06
0.0035 0.0095 4.90800520138e-06
0.0035 0.0105 4.69615172894e-06
0.0035 0.0115 4.55494860131e-06
0.0035 0.0125 4.44427282562e-06
0.0035 0.0135 4.34362056722e-06
0.0035 0.0145 4.24522342929e-06
0.0035 0.0155 4.14892431053e-06
0.0035 0.0165 4.0590872645e-06
0.0035 0.0175 3.98182523362e-06
0.0035 0.0185 3.92265789151e-06
0.0035 0.0195 3.8853984652e-06
0.0035 0.0205 3.87175432132e-06
0.0035 0.0215 3.88222265152e-06
0.0035 0.0225 3.91642494755e-06
0.0035 0.0235 3.97281937413e-06
0.0035 0.0245 4.04846307908e-06
0.0035 0.0255 4.13600378261e-06
0.0035 0.0265 4.22130373915e-06
0.0035 0.0275 4.26270175735e-06
0.0035 0.0285 4.21582410771e-06
0.0035 0.0295 3.87545640603e-06
0.0035 0.0305 3.59680878619e-06
0.0035 0.0315 1.85142325924e-06
0.0045 -0.0315 4.45610557763e-06
0.0045 -0.0305 7.88137314241e-06
0.0045 -0.0295 7.58940891103e-06
0.0045 -0.0285 8.20774123516e-06
0.0045 -0.0275 8.38059778693e-06
0.0045 -0.0265 8.35631194468e-06
0.0045 -0.0255 8.17310430161e-06
0.0045 -0.0245 7.9356408227e-06
0.0045 -0.0235 7.70045371236e-06
0.0045 -0.0225 7.51242936299e-06
0.0045 -0.0215 7.41408820666e-06
0.0045 -0.0205 7.46368990135e-06
0.0045 -0.0195 7.77339589082e-06
0.0045 -0.0185 8.62056025141e-06
0.0045 -0.0175 1.07161868626e-05
0.0045 -0.0165 1.56674877062e-05
0.0045 -0.0155 2.64431155974e-05
0.0045 -0.0145 5.01880073821e-05
0.0045 -0.0135 0.000105444550542
0.0045 -0.0125 0.000236519137738
0.0045 -0.0115 0.000797196121035
0.0045 -0.0105 0.000790671861024
0.0045 -0.0095 0.00927110360875
0.0045 -0.0085 0.0295772169575
0.0045 -0.0075 0.0452943175432
0.0045 -0.0065 0.0426518222938
0.0045 -0.0055 0.0245989843056
0.0045 -0.0045 0.00491375855714
0.0045 -0.0035 0.00296619190627
0.0045 -0.0025 0.00240712565967
0.0045 -0.0015 0.00102832908693
0.0045 -0.0005 0.000360006862984
0.0045 0.0005 0.000133075397595
0.0045 0.0015 6.34781605735e-05
0.0045 0.0025 4.38639668023e-05
0.0045 0.0035 3.24959428819e-05
0.0045 0.0045 2.17596599793e-05
0.0045 0.0055 1.39038997868e-05
0.0045 0.0065 9.36724495948e-06
0.0045 0.0075 7.09697680521e-06
0.0045 0.0085 6.06703703818e-06
0.0045 0.0095 5.58883243621e-06
0.0045 0.0105 5.31818239232e-06
0.0045 0.0115 5.11073342215e-06
0.0045 0.0125 4.91503440722e-06
0.0045 0.0135 4.72117099473e-06
0.0045 0.0145 4.53588128833e-06
0.0045 0.0155 4.37001896948e-06
0.0045 0.0165 4.23263809785e-06
0.0045 0.0175 4.12916140002e-06
0.0045 0.0185 4.06159479066e-06
0.0045 0.0195 4.0294562084e-06
0.0045 0.0205 4.03075193274e-06
0.0045 0.0215 4.06235211256e-06
0.0045 0.0225 4.12004291848e-06
0.0045 0.0235 4.19798332554e-06
0.0045 0.0245 4.28728159909e-06
0.0045 0.0255 4.37175932096e-06
0.0045 0.0265 4.42544195482e-06
0.0045 0.0275 4.39375529848e-06
0.0045 0.0285 4.24427181023e-06
0.0045 0.0295 3.82738185268e-06
0.0045 0.0305 3.66890164759e-06
0.0045 0.0315 1.96100314917e-06
0.0055 -0.0315 4.66331856374e-06
0.0055 -0.0305 8.05000883292e-06
0.0055 -0.0295 7.52148370594e-06
0.0055 -0.0285 8.20430522267e-06
0.0055 -0.0275 8.54201157807e-06
0.0055 -0.0265 8.70085421995e-06
0.0055 -0.0255 8.65045470888e-06
0.0055 -0.0245 8.48511861395e-06
0.0055 -0.0235 8.27328797925e-06
0.0055 -0.0225 8.072784392e-06
0.0055 -0.0215 7.93258577689e-06
0.0055 -0.0205 7.91316987714e-06
0.0055 -0.0195 8.12612322881e-06
0.0055 -0.0185 8.82867318892e-06
0.0055 -0.0175 1.06427748293e-05
0.0055 -0.0165 1.505489347e-05
0.0055 -0.0155 2.55258192226e-05
0.0055 -0.0145 5.00664670011e-05
0.0055 -0.0135 0.000100980950703
0.0055 -0.0125 0.000190632157653
0.0055 -0.0115 0.000463991350664
0.0055 -0.0105 0.000697434825921
0.0055 -0.0095 0.00597765882701
0.0055 -0.0085 0.0238651353461
0.0055 -0.0075 0.0413752986041
0.0055 -0.0065 0.0436141339537
0.0055 -0.0055 0.0312257181043
0.0055 -0.0045 0.0119374202554
0.0055 -0.0035 0.000718852708417
0.0055 -0.0025 0.00323128726656
0.0055 -0.0015 0.00201840797331
0.0055 -0.0005 0.000882535814281
0.0055 0.0005 0.000350464405363
0.0055 0.0015 0.000166761864495
0.0055 0.0025 0.000106746300647
0.0055 0.0035 6.93267574257e-05
0.0055 0.0045 3.93306328216e-05
0.0055 0.0055 2.19613135747e-05
0.0055 0.0065 1.28890472012e-05
0.0055 0.0075 8.83087813604e-06
0.0055 0.0085 7.19922638044e-06
0.0055 0.0095 6.51313148053e-06
0.0055 0.0105 6.12932426716e-06
0.0055 0.0115 5.80978724618e-06
0.0055 0.0125 5.49145508145e-06
0.0055 0.0135 5.17774432789e-06
0.0055 0.0145 4.88981695611e-06
0.0055 0.0155 4.64648769273e-06
0.0055 0.0165 4.45807199924e-06
0.0055 0.0175 4.32682720562e-06
0.0055 0.0185 4.24971837294e-06
0.0055 0.0195 4.22095667463e-06
0.0055 0.0205 4.23340456554e-06
0.0055 0.0215 4.27903989054e-06
0.0055 0.0225 4.34866053487e-06
0.0055 0.0235 4.4306905151e-06
0.0055 0.0245 4.50929494493e-06
0.0055 0.0255 4.56025832123e-06
0.0055 0.0265 4.55167679041e-06
0.0055 0.0275 4.43400612759e-06
0.0055 0.0285 4.21104149853e-06
0.0055 0.0295 3.77401480925e-06
0.0055 0.0305 3.76778883015e-06
0.0055 0.0315 2.08398508779e-06
0.0065 -0.0315 4.80792918634e-06
0.0065 -0.0305 8.17102882464e-06
0.0065 -0.0295 7.45577386569e-06
0.0065 -0.0285 8.15104226308e-06
0.0065 -0.0275 8.59134824627e-06
0.0065 -0.0265 8.9057872261e-06
0.0065 -0.0255 9.00500027477e-06
0.0065 -0.0245 8.94930674281e-06
0.0065 -0.0235 8.7978578174e-06
0.0065 -0.0225 8.61174268736e-06
0.0065 -0.0215 8.4453240467e-06
0.0065 -0.0205 8.3666089947e-06
0.0065 -0.0195 8.50317657083e-06
0.0065 -0.0185 9.1392259905e-06
0.0065 -0.0175 1.0920809557e-05
0.0065 -0.0165 1.53200382455e-05
0.0065 -0.0155 2.57243092816e-05
0.0065 -0.0145 4.91092940066e-05
0.0065 -0.0135 9.90551052079e-05
0.0065 -0.0125 0.000208099138714
0.0065 -0.0115 0.000352420100266
0.0065 -0.0105 0.000533271377113
0.0065 -0.0095 0.00337534695914
0.0065 -0.0085 0.0180083290835
0.0065 -0.0075 0.0361273560209
0.0065 -0.0065 0.0424804902901
0.0065 -0.0055 0.0360106947542
0.0065 -0.0045 0.0207259348341
0.0065 -0.0035 0.00540979057381
0.0065 -0.0025 0.00210517888563
0.0065 -0.0015 0.00301846352314
0.0065 -0.0005 0.00196067936033
0.0065 0.0005 0.000957025931972
0.0065 0.0015 0.000420999033745
0.0065 0.0025 0.000207731154065
0.0065 0.0035 0.000119873418623
0.0065 0.0045 6.8048908358e-05
0.0065 0.0055 3.37868516891e-05
0.0065 0.0065 1.78350195158e-05
0.0065 0.0075 1.13265638576e-05
0.0065 0.0085 8.72270779397e-06
0.0065 0.0095 7.62124475185e-06
0.0065 0.0105 6.99859971232e-06
0.0065 0.0115 6.49035330239e-06
0.0065 0.0125 6.00847928212e-06
0.0065 0.0135 5.55984255867e-06
0.0065 0.0145 5.1704698736e-06
0.0065 0.0155 4.8587051064e-06
0.0065 0.0165 4.63005640519e-06
0.0065 0.0175 4.48040029271e-06
0.0065 0.0185 4.40035966252e-06
0.0065 0.0195 4.37824814464e-06
0.0065 0.0205 4.40143380374e-06
0.0065 0.0215 4.45655862932e-06
0.0065 0.0225 4.52899572825e-06
0.0065 0.0235 4.60154070176e-06
0.0065 0.0245 4.65294793528e-06
0.0065 0.0255 4.65568251001e-06
0.0065 0.0265 4.58187628132e-06
0.0065 0.0275 4.39867621012e-06
0.0065 0.0285 4.14031765155e-06
0.0065 0.0295 3.71458195254e-06
0.0065 0.0305 3.83718062597e-06
0.0065 0.0315 2.17319524784e-06
0.0075 -0.0315 4.97862187743e-06
0.0075 -0.0305 8.33930994009e-06
0.0075 -0.0295 7.42351079082e-06
0.0075 -0.0285 8.10529692589e-06
0.0075 -0.0275 8.60454811176e-06
0.0075 -0.0265 9.03663405132e-06
0.0075 -0.0255 9.27168216417e-06
0.0075 -0.0245 9.33613633094e-06
0.0075 -0.0235 9.2675081697e-06
0.0075 -0.0225 9.1212401158e-06
0.0075 -0.0215 8.95831139449e-06
0.0075 -0.0205 8.86625238506e-06
0.0075 -0.0195 9.01680165327e-06
0.0075 -0.0185 9.78761722028e-06
0.0075 -0.0175 1.20038733623e-05
0.0075 -0.0165 1.74921270586e-05
0.0075 -0.0155 2.99418584659e-05
0.0075 -0.0145 5.62580374505e-05
0.0075 -0.0135 0.000113583819851
0.0075 -0.0125 0.000244221548467
0.0075 -0.0115 0.000456059142035
0.0075 -0.0105 0.000593086782036
0.0075 -0.0095 0.00183840462359
0.0075 -0.0085 0.0126383255773
0.0075 -0.0075 0.0295664956937
0.0075 -0.0065 0.0389308690877
0.0075 -0.0055 0.0376471411721
0.0075 -0.0045 0.0284227937349
0.0075 -0.0035 0.0151666000351
0.0075 -0.0025 0.00429896086102
0.0075 -0.0015 0.00141379722476
0.0075 -0.0005 0.00246794488778
0.0075 0.0005 0.00183003655329
0.0075 0.0015 0.000923338619402
0.0075 0.0025 0.000351506323607
0.0075 0.0035 0.000165545062823
0.0075 0.0045 0.000102011731581
0.0075 0.0055 4.96316103367e-05
0.0075 0.0065 2.50775858594e-05
0.0075 0.0075 1.49590144913e-05
0.0075 0.0085 1.07564429555e-05
0.0075 0.0095 8.90753168099e-06
0.0075 0.0105 7.86710099653e-06
0.0075 0.0115 7.08311963272e-06
0.0075 0.0125 6.4075430742e-06
0.0075 0.0135 5.82714647061e-06
0.0075 0.0145 5.354892447e-06
0.0075 0.0155 4.99641921202e-06
0.0075 0.0165 4.74639969896e-06
0.0075 0.0175 4.59241014316e-06
0.0075 0.0185 4.51850651763e-06
0.0075 0.0195 4.50730101668e-06
0.0075 0.0205 4.54084116782e-06
0.0075 0.0215 4.60068405005e-06
0.0075 0.0225 4.66744366896e-06
0.0075 0.0235 4.7199321083e-06
0.0075 0.0245 4.73496836405e-06
0.0075 0.0255 4.68762028632e-06
0.0075 0.0265 4.56004034019e-06
0.0075 0.0275 4.33492266858e-06
0.0075 0.0285 4.06486338609e-06
0.0075 0.0295 3.66253536469e-06
0.0075 0.0305 3.89296141755e-06
0.0075 0.0315 2.24267236127e-06
0.0085 -0.0315 5.18426379821e-06
0.0085 -0.0305 8.56106377754e-06
0.0085 -0.0295 7.42135787881e-06
0.0085 -0.0285 8.07315639888e-06
0.0085 -0.0275 8.60569272752e-06
0.0085 -0.0265 9.12644104108e-06
0.0085 -0.0255 9.47576406868e-06
0.0085 -0.0245 9.65416698008e-06
0.0085 -0.0235 9.67707907166e-06
0.0085 -0.0225 9.59149158964e-06
0.0085 -0.0215 9.46975924884e-06
0.0085 -0.0205 9.4394668718e-06
0.0085 -0.0195 9.76620127294e-06
0.0085 -0.0185 1.10527464566e-05
0.0085 -0.0175 1.46628507772e-05
0.0085 -0.0165 2.36410144756e-05
0.0085 -0.0155 4.5622833425e-05
0.0085 -0.0145 9.41094267653e-05
0.0085 -0.0135 0.00018323865943
0.0085 -0.0125 0.000343469207157
0.0085 -0.0115 0.000768320961641
0.0085 -0.0105 0.0013414089623
0.0085 -0.0095 0.00251096364826
0.0085 -0.0085 0.00861372856028
0.0085 -0.0075 0.0219910833262
0.0085 -0.0065 0.0326635418702
0.0085 -0.0055 0.0355548891196
0.0085 -0.0045 0.0324482074999
0.0085 -0.0035 0.0249510026235
0.0085 -0.0025 0.0155002084834
0.0085 -0.0015 0.00728011819404
0.0085 -0.0005 0.00232159718119
0.0085 0.0005 0.00147281973007
0.0085 0.0015 0.00131088768937
0.0085 0.0025 0.000563830718529
0.0085 0.0035 0.000253770641687
0.0085 0.0045 0.000162835497723
0.0085 0.0055 7.52973851007e-05
0.0085 0.0065 3.62360371971e-05
0.0085 0.0075 2.02199249724e-05
0.0085 0.0085 1.34326768587e-05
0.0085 0.0095 1.0355434185e-05
0.0085 0.0105 8.67454559969e-06
0.0085 0.0115 7.52682904957e-06
0.0085 0.0125 6.64399998354e-06
0.0085 0.0135 5.95372692157e-06
0.0085 0.0145 5.43025781323e-06
0.0085 0.0155 5.05438511592e-06
0.0085 0.0165 4.80621572347e-06
0.0085 0.0175 4.66452273836e-06
0.0085 0.0185 4.60715164484e-06
0.0085 0.0195 4.61152198948e-06
0.0085 0.0205 4.65500337371e-06
0.0085 0.0215 4.71507377443e-06
0.0085 0.0225 4.76929161633e-06
0.0085 0.0235 4.79524910345e-06
0.0085 0.0245 4.77171064346e-06
0.0085 0.0255 4.68003553246e-06
0.0085 0.0265 4.51262588329e-06
0.0085 0.0275 4.2627546914e-06
0.0085 0.0285 3.99466074508e-06
0.0085 0.0295 3.62110361178e-06
0.0085 0.0305 3.95455143816e-06
0.0085 0.0315 2.31223363732e-06
0.0095 -0.0315 5.42933175666e-06
0.0095 -0.0305 8.82607538779e-06
0.0095 -0.0295 7.42826324344e-06
0.0095 -0.0285 8.04787075908e-06
0.0095 -0.0275 8.60136261461e-06
0.0095 -0.0265 9.19435067664e-06
0.0095 -0.0255 9.64266029153e-06
0.0095 -0.0245 9.92746950842e-06
0.0095 -0.0235 1.00463033285e-05
0.0095 -0.0225 1.00407082512e-05
0.0095 -0.0215 1.00027291939e-05
0.0095 -0.0205 1.0128451457e-05
0.0095 -0.0195 1.08512110361e-05
0.0095 -0.0185 1.32025625897e-05
0.0095 -0.0175 1.97898973287e-05
0.0095 -0.0165 3.75658990671e-05
0.0095 -0.0155 8.51766270665e-05
0.0095 -0.0145 0.000224299424925
0.0095 -0.0135 0.000495941599121
0.0095 -0.0125 0.000934848192166
0.0095 -0.0115 0.00210057015569
0.0095 -0.0105 0.00401886795662
0.0095 -0.0095 0.00623036166013
0.0095 -0.0085 0.00811589330423
0.0095 -0.0075 0.0143041687808
0.0095 -0.0065 0.0235161797278
0.0095 -0.0055 0.0296548834748
0.0095 -0.0045 0.0318176269702
0.0095 -0.0035 0.0304416236017
0.0095 -0.0025 0.0259681689033
0.0095 -0.0015 0.0193684494468
0.0095 -0.0005 0.0121910073726
0.0095 0.0005 0.00609544797988
0.0095 0.0015 0.00244636452667
0.0095 0.0025 0.00101739659205
0.0095 0.0035 0.000553279911525
0.0095 0.0045 0.000306865424725
0.0095 0.0055 0.000119889908407
0.0095 0.0065 5.43336666239e-05
0.0095 0.0075 2.82751517673e-05
0.0095 0.0085 1.71289811926e-05
0.0095 0.0095 1.20838395176e-05
0.0095 0.0105 9.44579107295e-06
0.0095 0.0115 7.82369651761e-06
0.0095 0.0125 6.72549765406e-06
0.0095 0.0135 5.95286942334e-06
0.0095 0.0145 5.41121052996e-06
0.0095 0.0155 5.047121039e-06
0.0095 0.0165 4.82386866449e-06
0.0095 0.0175 4.71097381739e-06
0.0095 0.0185 4.68013860378e-06
0.0095 0.0195 4.70403912936e-06
0.0095 0.0205 4.75637678423e-06
0.0095 0.0215 4.81224974433e-06
0.0095 0.0225 4.84856498872e-06
0.0095 0.0235 4.84462773856e-06
0.0095 0.0245 4.78382818895e-06
0.0095 0.0255 4.65467397178e-06
0.0095 0.0265 4.4578479802e-06
0.0095 0.0275 4.19357094044e-06
0.0095 0.0285 3.93433438829e-06
0.0095 0.0295 3.59045043669e-06
0.0095 0.0305 4.02216652802e-06
0.0095 0.0315 2.38309225428e-06
0.0105 -0.0315 5.63191931973e-06
0.0105 -0.0305 9.04129936631e-06
0.0105 -0.0295 7.42127453614e-06
0.0105 -0.0285 8.01238205929e-06
0.0105 -0.0275 8.58162675616e-06
0.0105 -0.0265 9.23862004409e-06
0.0105 -0.0255 9.77990565302e-06
0.0105 -0.0245 1.01714398393e-05
0.0105 -0.0235 1.03962535666e-05
0.0105 -0.0225 1.04954889063e-05
0.0105 -0.0215 1.05931512002e-05
0.0105 -0.0205 1.09881365826e-05
0.0105 -0.0195 1.23815155229e-05
0.0105 -0.0185 1.64646586621e-05
0.0105 -0.0175 2.79109497272e-05
0.0105 -0.0165 6.30945059138e-05
0.0105 -0.0155 0.000181778204096
0.0105 -0.0145 0.000525312509367
0.0105 -0.0135 0.00124088468871
0.0105 -0.0125 0.00271280850311
0.0105 -0.0115 0.00541701606556
0.0105 -0.0105 0.00830873811474
0.0105 -0.0095 0.0101090143754
0.0105 -0.0085 0.0101118132727
0.0105 -0.0075 0.0092032387134
0.0105 -0.0065 0.0129738671241
0.0105 -0.0055 0.0202016898272
0.0105 -0.0045 0.0264671234766
0.0105 -0.0035 0.0301403842714
0.0105 -0.0025 0.030727073043
0.0105 -0.0015 0.0282648757583
0.0105 -0.0005 0.0231713836896
0.0105 0.0005 0.0162186824444
0.0105 0.0015 0.00892555834968
0.0105 0.0025 0.00371523417055
0.0105 0.0035 0.00143802654508
0.0105 0.0045 0.000606278145504
0.0105 0.0055 0.0002082701593
0.0105 0.0065 8.92454229647e-05
0.0105 0.0075 4.18338125857e-05
0.0105 0.0085 2.3014026344e-05
0.0105 0.0095 1.45879240899e-05
0.0105 0.0105 1.03805230143e-05
0.0105 0.0115 8.07592853369e-06
0.0105 0.0125 6.71707271347e-06
0.0105 0.0135 5.86760287635e-06
0.0105 0.0145 5.32795253848e-06
0.0105 0.0155 4.99810479302e-06
0.0105 0.0165 4.81943885938e-06
0.0105 0.0175 4.74976590829e-06
0.0105 0.0185 4.75361135435e-06
0.0105 0.0195 4.79918631373e-06
0.0105 0.0205 4.85795465102e-06
0.0105 0.0215 4.90482501726e-06
0.0105 0.0225 4.91857655743e-06
0.0105 0.0235 4.88253037944e-06
0.0105 0.0245 4.78595081639e-06
0.0105 0.0255 4.62406160847e-06
0.0105 0.0265 4.4040362017e-06
0.0105 0.0275 4.13080230356e-06
0.0105 0.0285 3.88285649251e-06
0.0105 0.0295 3.56689045845e-06
0.0105 0.0305 4.08825745726e-06
0.0105 0.0315 2.44978842796e-06
0.0115 -0.0315 5.72746800338e-06
0.0115 -0.0305 9.13941737146e-06
0.0115 -0.0295 7.38917394665e-06
0.0115 -0.0285 7.95172273432e-06
0.0115 -0.0275 8.53076644239e-06
0.0115 -0.0265 9.24474276346e-06
0.0115 -0.0255 9.87874468726e-06
0.0115 -0.0245 1.03874106048e-05
0.0115 -0.0235 1.07413647044e-05
0.0115 -0.0225 1.09851692201e-05
0.0115 -0.0215 1.12917716982e-05
0.0115 -0.0205 1.21081062675e-05
0.0115 -0.0195 1.4541723454e-05
0.0115 -0.0185 2.12749624084e-05
0.0115 -0.0175 3.98705810514e-05
0.0115 -0.0165 9.80652357593e-05
0.0115 -0.0155 0.000333550183282
0.0115 -0.0145 0.00102205443528
0.0115 -0.0135 0.00265674443181
0.0115 -0.0125 0.00570901316968
0.0115 -0.0115 0.0090821865598
0.0115 -0.0105 0.0103946612893
0.0115 -0.0095 0.00938487784076
0.0115 -0.0085 0.00759409945891
0.0115 -0.0075 0.00558665233376
0.0115 -0.0065 0.00507888849202
0.0115 -0.0055 0.00961851202921
0.0115 -0.0045 0.0166869848499
0.0115 -0.0035 0.0233063558689
0.0115 -0.0025 0.0279573894952
0.0115 -0.0015 0.0299187395156
0.0115 -0.0005 0.0288593846883
0.0115 0.0005 0.0247250047012
0.0115 0.0015 0.0177742401238
0.0115 0.0025 0.00976922926379
0.0115 0.0035 0.00394535763668
0.0115 0.0045 0.00135075052229
0.0115 0.0055 0.00046141730501
0.0115 0.0065 0.000157913654808
0.0115 0.0075 6.8033712861e-05
0.0115 0.0085 3.42617367605e-05
0.0115 0.0095 1.90925503309e-05
0.0115 0.0105 1.197064727e-05
0.0115 0.0115 8.52675850705e-06
0.0115 0.0125 6.74384515744e-06
0.0115 0.0135 5.76789437221e-06
0.0115 0.0145 5.22455526031e-06
0.0115 0.0155 4.93936649883e-06
0.0115 0.0165 4.81875259862e-06
0.0115 0.0175 4.80239504959e-06
0.0115 0.0185 4.8452357388e-06
0.0115 0.0195 4.91138505857e-06
0.0115 0.0205 4.97186785887e-06
0.0115 0.0215 5.00365890169e-06
0.0115 0.0225 4.98956202622e-06
0.0115 0.0235 4.91846803169e-06
0.0115 0.0245 4.78601791542e-06
0.0115 0.0255 4.59355318909e-06
0.0115 0.0265 4.35342255869e-06
0.0115 0.0275 4.07368698435e-06
0.0115 0.0285 3.83731647049e-06
0.0115 0.0295 3.54692293397e-06
0.0115 0.0305 4.1486645573e-06
0.0115 0.0315 2.50978393995e-06
0.0125 -0.0315 5.7851708788e-06
0.0125 -0.0305 9.19039845023e-06
0.0125 -0.0295 7.33378345744e-06
0.0125 -0.0285 7.85958086561e-06
0.0125 -0.0275 8.43407378243e-06
0.0125 -0.0265 9.19220666747e-06
0.0125 -0.0255 9.91651565267e-06
0.0125 -0.0245 1.05580198629e-05
0.0125 -0.0235 1.1079684006e-05
0.0125 -0.0225 1.15336434017e-05
0.0125 -0.0215 1.21618981612e-05
0.0125 -0.0205 1.36304883037e-05
0.0125 -0.0195 1.76387287947e-05
0.0125 -0.0185 2.85146442992e-05
0.0125 -0.0175 5.94075205324e-05
0.0125 -0.0165 0.000150492868225
0.0125 -0.0155 0.000531097834484
0.0125 -0.0145 0.00180696228354
0.0125 -0.0135 0.004777576063
0.0125 -0.0125 0.00859024165865
0.0125 -0.0115 0.0102879219747
0.0125 -0.0105 0.00850041559566
0.0125 -0.0095 0.0053010309449
0.0125 -0.0085 0.00291991550107
0.0125 -0.0075 0.00181603610863
0.0125 -0.0065 0.0016204824209
0.0125 -0.0055 0.00298542933441
0.0125 -0.0045 0.00682392647215
0.0125 -0.0035 0.0123197717029
0.0125 -0.0025 0.0184596112877
0.0125 -0.0015 0.0239878129631
0.0125 -0.0005 0.0275694439101
0.0125 0.0005 0.0280568192765
0.0125 0.0015 0.0247367193257
0.0125 0.0025 0.0175033240855
0.0125 0.0035 0.0088819637959
0.0125 0.0045 0.00314144470392
0.0125 0.0055 0.000954007593655
0.0125 0.0065 0.000306870001297
0.0125 0.0075 0.000130607323945
0.0125 0.0085 5.82249874447e-05
0.0125 0.0095 2.78018183434e-05
0.0125 0.0105 1.51493580249e-05
0.0125 0.0115 9.57907362442e-06
0.0125 0.0125 6.99662777755e-06
0.0125 0.0135 5.75272698172e-06
0.0125 0.0145 5.16044546688e-06
0.0125 0.0155 4.91217273704e-06
0.0125 0.0165 4.85275409333e-06
0.0125 0.0175 4.8919866738e-06
0.0125 0.0185 4.97182731411e-06
0.0125 0.0195 5.05272203317e-06
0.0125 0.0205 5.10688447235e-06
0.0125 0.0215 5.11520404716e-06
0.0125 0.0225 5.0662234421e-06
0.0125 0.0235 4.9555637564e-06
0.0125 0.0245 4.78551634712e-06
0.0125 0.0255 4.56295323281e-06
0.0125 0.0265 4.30426671928e-06
0.0125 0.0275 4.01939919879e-06
0.0125 0.0285 3.7946730795e-06
0.0125 0.0295 3.52819103958e-06
0.0125 0.0305 4.20271321488e-06
0.0125 0.0315 2.56335024277e-06
0.0135 -0.0315 5.86848831177e-06
0.0135 -0.0305 9.26430060107e-06
0.0135 -0.0295 7.26739792572e-06
0.0135 -0.0285 7.73847110415e-06
0.0135 -0.0275 8.2842831189e-06
0.0135 -0.0265 9.06318282816e-06
0.0135 -0.0255 9.86464154651e-06
0.0135 -0.0245 1.0649627783e-05
0.0135 -0.0235 1.13870414535e-05
0.0135 -0.0225 1.21507492213e-05
0.0135 -0.0215 1.32800106926e-05
0.0135 -0.0205 1.57756578076e-05
0.0135 -0.0195 2.21969177535e-05
0.0135 -0.0185 3.94874294861e-05
0.0135 -0.0175 9.19097256922e-05
0.0135 -0.0165 0.000277724266509
0.0135 -0.0155 0.000927308069608
0.0135 -0.0145 0.00307267039676
0.0135 -0.0135 0.0071060744448
0.0135 -0.0125 0.0100945878196
0.0135 -0.0115 0.00897370884305
0.0135 -0.0105 0.0052746394817
0.0135 -0.0095 0.0023036996557
0.0135 -0.0085 0.000965218815786
0.0135 -0.0075 0.000569127611142
0.0135 -0.0065 0.000598676216395
0.0135 -0.0055 0.000918312448662
0.0135 -0.0045 0.00190738385966
0.0135 -0.0035 0.0042644557575
0.0135 -0.0025 0.00827033709665
0.0135 -0.0015 0.0140003243235
0.0135 -0.0005 0.0206730712772
0.0135 0.0005 0.0260723433168
0.0135 0.0015 0.0278591621515
0.0135 0.0025 0.0242815011861
0.0135 0.0035 0.0156482558132
0.0135 0.0045 0.00675518624016
0.0135 0.0055 0.00213241633508
0.0135 0.0065 0.000772230809923
0.0135 0.0075 0.000302752341755
0.0135 0.0085 0.000108173290892
0.0135 0.0095 4.51426056161e-05
0.0135 0.0105 2.1402439506e-05
0.0135 0.0115 1.18767377778e-05
0.0135 0.0125 7.76125914845e-06
0.0135 0.0135 5.96747175539e-06
0.0135 0.0145 5.21934644765e-06
0.0135 0.0155 4.97039352375e-06
0.0135 0.0165 4.95688098778e-06
0.0135 0.0175 5.04130369451e-06
0.0135 0.0185 5.14747048995e-06
0.0135 0.0195 5.23129070344e-06
0.0135 0.0205 5.26673219515e-06
0.0135 0.0215 5.23999528369e-06
0.0135 0.0225 5.14696335095e-06
0.0135 0.0235 4.99098663087e-06
0.0135 0.0245 4.78100935335e-06
0.0135 0.0255 4.52859684911e-06
0.0135 0.0265 4.25295597453e-06
0.0135 0.0275 3.96470869536e-06
0.0135 0.0285 3.75246203082e-06
0.0135 0.0295 3.50921458736e-06
0.0135 0.0305 4.2512430486e-06
0.0135 0.0315 2.61188203834e-06
0.0145 -0.0315 5.979399044e-06
0.0145 -0.0305 9.36888984294e-06
0.0145 -0.0295 7.20117145668e-06
0.0145 -0.0285 7.5969055903e-06
0.0145 -0.0275 8.08530742575e-06
0.0145 -0.0265 8.85140555346e-06
0.0145 -0.0255 9.70157044595e-06
0.0145 -0.0245 1.0625345951e-05
0.0145 -0.0235 1.16237931694e-05
0.0145 -0.0225 1.28278614439e-05
0.0145 -0.0215 1.47328588053e-05
0.0145 -0.0205 1.88566920974e-05
0.0145 -0.0195 2.91737974332e-05
0.0145 -0.0185 5.69121903183e-05
0.0145 -0.0175 0.000140087333974
0.0145 -0.0165 0.000476523559322
0.0145 -0.0155 0.00159990050346
0.0145 -0.0145 0.00474204227916
0.0145 -0.0135 0.00902473566269
0.0145 -0.0125 0.0101180175617
0.0145 -0.0115 0.00682431004468
0.0145 -0.0105 0.00305314352764
0.0145 -0.0095 0.00113913502189
0.0145 -0.0085 0.000441096405108
0.0145 -0.0075 0.000258548224619
0.0145 -0.0065 0.00023425131693