% Model:              Benchmark260518.mph
% Version:            COMSOL 6.2.0.339
% Date:               May 20 2026, 00:50
% Dimension:          2
% Nodes:              4096
% Expressions:        1
% Description:        速度大小
% Length unit:        m
% x                       y                        spf.U (m/s)
% mirrored_by_python_y_to_minus_y, coord_match_decimals=12
0.0005 -0.0315 8.94530315574e-07
0.0005 -0.0305 1.7523422238e-06
0.0005 -0.0295 1.80080837787e-06
0.0005 -0.0285 1.85604256239e-06
0.0005 -0.0275 1.8787737829e-06
0.0005 -0.0265 1.89741575136e-06
0.0005 -0.0255 1.91701786828e-06
0.0005 -0.0245 1.94435372964e-06
0.0005 -0.0235 1.96129593245e-06
0.0005 -0.0225 1.94929220132e-06
0.0005 -0.0215 1.92915214859e-06
0.0005 -0.0205 1.92082494272e-06
0.0005 -0.0195 1.92130480106e-06
0.0005 -0.0185 1.92743481568e-06
0.0005 -0.0175 1.93938104366e-06
0.0005 -0.0165 1.95809297302e-06
0.0005 -0.0155 1.98411291079e-06
0.0005 -0.0145 2.01718175945e-06
0.0005 -0.0135 2.05813146254e-06
0.0005 -0.0125 2.11826055726e-06
0.0005 -0.0115 2.24823633513e-06
0.0005 -0.0105 2.61832494756e-06
0.0005 -0.0095 3.7057430673e-06
0.0005 -0.0085 6.8807940493e-06
0.0005 -0.0075 1.6162299698e-05
0.0005 -0.0065 4.3496607901e-05
0.0005 -0.0055 0.000104786401196
0.0005 -0.0045 0.000266145077747
0.0005 -0.0035 0.00104009816031
0.0005 -0.0025 0.00132094270967
0.0005 -0.0015 0.112794827389
0.0005 -0.0005 0.289634236359
0.0005 0.0005 0.356480274276
0.0005 0.0015 0.195146200432
0.0005 0.0025 0.012659810621
0.0005 0.0035 0.00554192369384
0.0005 0.0045 0.00114042982755
0.0005 0.0055 0.00066207502787
0.0005 0.0065 0.000547744944006
0.0005 0.0075 0.000307796703734
0.0005 0.0085 0.000119207101227
0.0005 0.0095 4.98333134685e-05
0.0005 0.0105 2.51026159335e-05
0.0005 0.0115 1.62150044314e-05
0.0005 0.0125 1.31807302976e-05
0.0005 0.0135 1.22673453303e-05
0.0005 0.0145 1.20813179236e-05
0.0005 0.0155 1.20979289267e-05
0.0005 0.0165 1.21197704311e-05
0.0005 0.0175 1.20749731354e-05
0.0005 0.0185 1.19428235744e-05
0.0005 0.0195 1.17267081858e-05
0.0005 0.0205 1.14428084853e-05
0.0005 0.0215 1.11132684016e-05
0.0005 0.0225 1.07613185911e-05
0.0005 0.0235 1.04081234388e-05
0.0005 0.0245 1.00720760406e-05
0.0005 0.0255 9.76988622248e-06
0.0005 0.0265 9.52642384322e-06
0.0005 0.0275 9.3755910822e-06
0.0005 0.0285 9.40648298294e-06
0.0005 0.0295 9.47232385191e-06
0.0005 0.0305 9.5817983269e-06
0.0005 0.0315 4.94108563315e-06
0.0015 -0.0315 1.75812438725e-06
0.0015 -0.0305 3.45981524442e-06
0.0015 -0.0295 3.57302670848e-06
0.0015 -0.0285 3.63286438808e-06
0.0015 -0.0275 3.59373764266e-06
0.0015 -0.0265 3.56173933075e-06
0.0015 -0.0255 3.54257637675e-06
0.0015 -0.0245 3.54749641834e-06
0.0015 -0.0235 3.56016299273e-06
0.0015 -0.0225 3.56554021348e-06
0.0015 -0.0215 3.58661352529e-06
0.0015 -0.0205 3.64684390909e-06
0.0015 -0.0195 3.74746345019e-06
0.0015 -0.0185 3.8873232859e-06
0.0015 -0.0175 4.06656956834e-06
0.0015 -0.0165 4.28318819972e-06
0.0015 -0.0155 4.53079738481e-06
0.0015 -0.0145 4.798710632e-06
0.0015 -0.0135 5.07844010761e-06
0.0015 -0.0125 5.38937362345e-06
0.0015 -0.0115 5.85297330411e-06
0.0015 -0.0105 6.8952781844e-06
0.0015 -0.0095 9.70826024733e-06
0.0015 -0.0085 1.7580085338e-05
0.0015 -0.0075 4.00360122793e-05
0.0015 -0.0065 0.000109018728882
0.0015 -0.0055 0.000285761280791
0.0015 -0.0045 0.000735211572723
0.0015 -0.0035 0.00247458728801
0.0015 -0.0025 0.00280087781853
0.0015 -0.0015 0.106061360172
0.0015 -0.0005 0.281246321645
0.0015 0.0005 0.353179874954
0.0015 0.0015 0.220832132388
0.0015 0.0025 0.0346980991405
0.0015 0.0035 0.0133452249975
0.0015 0.0045 0.00343814352005
0.0015 0.0055 0.00141009586665
0.0015 0.0065 0.000891736329005
0.0015 0.0075 0.000505897841152
0.0015 0.0085 0.000206594208976
0.0015 0.0095 8.99322416274e-05
0.0015 0.0105 4.62131501393e-05
0.0015 0.0115 3.01695325883e-05
0.0015 0.0125 2.47511327972e-05
0.0015 0.0135 2.32643823461e-05
0.0015 0.0145 2.31430919066e-05
0.0015 0.0155 2.33886346509e-05
0.0015 0.0165 2.36034662787e-05
0.0015 0.0175 2.36302677948e-05
0.0015 0.0185 2.34209919102e-05
0.0015 0.0195 2.29868829011e-05
0.0015 0.0205 2.23731686819e-05
0.0015 0.0215 2.16418112685e-05
0.0015 0.0225 2.08591759659e-05
0.0015 0.0235 2.00880046894e-05
0.0015 0.0245 1.93855683508e-05
0.0015 0.0255 1.88052026306e-05
0.0015 0.0265 1.84227473251e-05
0.0015 0.0275 1.83325385288e-05
0.0015 0.0285 1.88816347667e-05
0.0015 0.0295 1.97865108099e-05
0.0015 0.0305 2.0662471826e-05
0.0015 0.0315 1.07568072252e-05
0.0025 -0.0315 1.81733730185e-06
0.0025 -0.0305 3.59908073472e-06
0.0025 -0.0295 3.84114300411e-06
0.0025 -0.0285 3.975457409e-06
0.0025 -0.0275 3.8816732562e-06
0.0025 -0.0265 3.76655002132e-06
0.0025 -0.0255 3.66334762463e-06
0.0025 -0.0245 3.59988162212e-06
0.0025 -0.0235 3.59023193058e-06
0.0025 -0.0225 3.64618045515e-06
0.0025 -0.0215 3.77531395861e-06
0.0025 -0.0205 3.9824512529e-06
0.0025 -0.0195 4.2688030265e-06
0.0025 -0.0185 4.63068347433e-06
0.0025 -0.0175 5.06047360605e-06
0.0025 -0.0165 5.5462750291e-06
0.0025 -0.0155 6.07147605637e-06
0.0025 -0.0145 6.61665827287e-06
0.0025 -0.0135 7.16962585624e-06
0.0025 -0.0125 7.75912686312e-06
0.0025 -0.0115 8.55263727276e-06
0.0025 -0.0105 1.01179630219e-05
0.0025 -0.0095 1.40800536752e-05
0.0025 -0.0085 2.47573450876e-05
0.0025 -0.0075 5.46829787694e-05
0.0025 -0.0065 0.00014134732103
0.0025 -0.0055 0.000410077448978
0.0025 -0.0045 0.00115438075263
0.0025 -0.0035 0.00357556198306
0.0025 -0.0025 0.00414292626956
0.0025 -0.0015 0.0962594061461
0.0025 -0.0005 0.269427315744
0.0025 0.0005 0.348766667063
0.0025 0.0015 0.243492107032
0.0025 0.0025 0.0543953945293
0.0025 0.0035 0.0186029051383
0.0025 0.0045 0.00604237368683
0.0025 0.0055 0.00166704751562
0.0025 0.0065 0.00072655155347
0.0025 0.0075 0.000394231689366
0.0025 0.0085 0.000179526538346
0.0025 0.0095 8.66023920459e-05
0.0025 0.0105 4.74833537387e-05
0.0025 0.0115 3.22707831433e-05
0.0025 0.0125 2.72184316223e-05
0.0025 0.0135 2.61324247203e-05
0.0025 0.0145 2.64278806394e-05
0.0025 0.0155 2.70321424097e-05
0.0025 0.0165 2.74875726786e-05
0.0025 0.0175 2.76080815187e-05
0.0025 0.0185 2.73484721398e-05
0.0025 0.0195 2.67435346048e-05
0.0025 0.0205 2.58714251943e-05
0.0025 0.0215 2.48297762672e-05
0.0025 0.0225 2.37203413462e-05
0.0025 0.0235 2.26396795463e-05
0.0025 0.0245 2.16773728388e-05
0.0025 0.0255 2.0915166889e-05
0.0025 0.0265 2.04628460707e-05
0.0025 0.0275 2.0447551599e-05
0.0025 0.0285 2.14343746794e-05
0.0025 0.0295 2.29875811975e-05
0.0025 0.0305 2.48125150351e-05
0.0025 0.0315 1.31910126252e-05
0.0035 -0.0315 1.89431048791e-06
0.0035 -0.0305 3.72699439372e-06
0.0035 -0.0295 4.09707040849e-06
0.0035 -0.0285 4.44902136243e-06
0.0035 -0.0275 4.47833893216e-06
0.0035 -0.0265 4.40994172937e-06
0.0035 -0.0255 4.3181177865e-06
0.0035 -0.0245 4.26098873434e-06
0.0035 -0.0235 4.26994620933e-06
0.0035 -0.0225 4.36564680265e-06
0.0035 -0.0215 4.56035315569e-06
0.0035 -0.0205 4.85779719541e-06
0.0035 -0.0195 5.25382524522e-06
0.0035 -0.0185 5.7388498631e-06
0.0035 -0.0175 6.29940668601e-06
0.0035 -0.0165 6.91865146441e-06
0.0035 -0.0155 7.57705031484e-06
0.0035 -0.0145 8.25580737297e-06
0.0035 -0.0135 8.94915641512e-06
0.0035 -0.0125 9.69981394554e-06
0.0035 -0.0115 1.07016492007e-05
0.0035 -0.0105 1.25618664266e-05
0.0035 -0.0095 1.70552155901e-05
0.0035 -0.0085 2.87837173368e-05
0.0035 -0.0075 6.11202627809e-05
0.0035 -0.0065 0.000149931956736
0.0035 -0.0055 0.000488607233269
0.0035 -0.0045 0.00150700277932
0.0035 -0.0035 0.00496859080747
0.0035 -0.0025 0.00617235467391
0.0035 -0.0015 0.0840149267373
0.0035 -0.0005 0.253831931886
0.0035 0.0005 0.342687075032
0.0035 0.0015 0.26662821097
0.0035 0.0025 0.0787045685488
0.0035 0.0035 0.0222842686044
0.0035 0.0045 0.0105959493104
0.0035 0.0055 0.0025387806923
0.0035 0.0065 0.000966804906782
0.0035 0.0075 0.000443471669078
0.0035 0.0085 0.000201654536708
0.0035 0.0095 0.0001022269114
0.0035 0.0105 5.87473999951e-05
0.0035 0.0115 4.11398090166e-05
0.0035 0.0125 3.50880953985e-05
0.0035 0.0135 3.36733447974e-05
0.0035 0.0145 3.38274210887e-05
0.0035 0.0155 3.42540294661e-05
0.0035 0.0165 3.44211085424e-05
0.0035 0.0175 3.41486892411e-05
0.0035 0.0185 3.34281676547e-05
0.0035 0.0195 3.23326881046e-05
0.0035 0.0205 3.09700132773e-05
0.0035 0.0215 2.94570061025e-05
0.0035 0.0225 2.79063625686e-05
0.0035 0.0235 2.64199243964e-05
0.0035 0.0245 2.50883324286e-05
0.0035 0.0255 2.39879605791e-05
0.0035 0.0265 2.32218513115e-05
0.0035 0.0275 2.29035571799e-05
0.0035 0.0285 2.36840168336e-05
0.0035 0.0295 2.50685848756e-05
0.0035 0.0305 2.78134197586e-05
0.0035 0.0315 1.52269677478e-05
0.0045 -0.0315 1.94142187456e-06
0.0045 -0.0305 3.76493498782e-06
0.0045 -0.0295 4.1572823665e-06
0.0045 -0.0285 4.66370812378e-06
0.0045 -0.0275 4.85819988399e-06
0.0045 -0.0265 4.90808467443e-06
0.0045 -0.0255 4.88924943096e-06
0.0045 -0.0245 4.88114659371e-06
0.0045 -0.0235 4.93266198933e-06
0.0045 -0.0225 5.07538014657e-06
0.0045 -0.0215 5.32589004898e-06
0.0045 -0.0205 5.68820120233e-06
0.0045 -0.0195 6.15622211236e-06
0.0045 -0.0185 6.71671687651e-06
0.0045 -0.0175 7.3521514508e-06
0.0045 -0.0165 8.04269136643e-06
0.0045 -0.0155 8.76839193413e-06
0.0045 -0.0145 9.51422613032e-06
0.0045 -0.0135 1.02836421171e-05
0.0045 -0.0125 1.11325804876e-05
0.0045 -0.0115 1.22630507213e-05
0.0045 -0.0105 1.42563156627e-05
0.0045 -0.0095 1.8783147704e-05
0.0045 -0.0085 3.01925782929e-05
0.0045 -0.0075 6.15647522594e-05
0.0045 -0.0065 0.000151693933528
0.0045 -0.0055 0.000498507280588
0.0045 -0.0045 0.00157296360747
0.0045 -0.0035 0.00614472265942
0.0045 -0.0025 0.00661339086472
0.0045 -0.0015 0.0705842703365
0.0045 -0.0005 0.233484334284
0.0045 0.0005 0.334083252898
0.0045 0.0015 0.286810942547
0.0045 0.0025 0.11338543697
0.0045 0.0035 0.0148106382494
0.0045 0.0045 0.0174233394144
0.0045 0.0055 0.00470025779232
0.0045 0.0065 0.00147278441208
0.0045 0.0075 0.000633005437984
0.0045 0.0085 0.000263285706503
0.0045 0.0095 0.000130365517146
0.0045 0.0105 7.4801069658e-05
0.0045 0.0115 5.24087051076e-05
0.0045 0.0125 4.43802554227e-05
0.0045 0.0135 4.20971592729e-05
0.0045 0.0145 4.16723313815e-05
0.0045 0.0155 4.14989995188e-05
0.0045 0.0165 4.09921190468e-05
0.0045 0.0175 4.00141428531e-05
0.0045 0.0185 3.86083742791e-05
0.0045 0.0195 3.68821833751e-05
0.0045 0.0205 3.49558188501e-05
0.0045 0.0215 3.29417879975e-05
0.0045 0.0225 3.09388504142e-05
0.0045 0.0235 2.90303693326e-05
0.0045 0.0245 2.72859938529e-05
0.0045 0.0255 2.5757822034e-05
0.0045 0.0265 2.45274601991e-05
0.0045 0.0275 2.36995781818e-05
0.0045 0.0285 2.40706266039e-05
0.0045 0.0295 2.53110397248e-05
0.0045 0.0305 2.91677803053e-05
0.0045 0.0315 1.6425694633e-05
0.0055 -0.0315 1.98911873528e-06
0.0055 -0.0305 3.82310639548e-06
0.0055 -0.0295 4.22621650392e-06
0.0055 -0.0285 4.83776954989e-06
0.0055 -0.0275 5.18479668808e-06
0.0055 -0.0265 5.38683131537e-06
0.0055 -0.0255 5.49039243647e-06
0.0055 -0.0245 5.5732445928e-06
0.0055 -0.0235 5.69285898814e-06
0.0055 -0.0225 5.8886326818e-06
0.0055 -0.0215 6.18249090029e-06
0.0055 -0.0205 6.58150267972e-06
0.0055 -0.0195 7.08079163925e-06
0.0055 -0.0185 7.66693951122e-06
0.0055 -0.0175 8.32143033505e-06
0.0055 -0.0165 9.02395856728e-06
0.0055 -0.0155 9.75640238287e-06
0.0055 -0.0145 1.05095632091e-05
0.0055 -0.0135 1.1297830798e-05
0.0055 -0.0125 1.2190188033e-05
0.0055 -0.0115 1.33927667779e-05
0.0055 -0.0105 1.54288371363e-05
0.0055 -0.0095 1.97710449424e-05
0.0055 -0.0085 3.00503815894e-05
0.0055 -0.0075 5.87452340185e-05
0.0055 -0.0065 0.000136497234407
0.0055 -0.0055 0.000433809443524
0.0055 -0.0045 0.0011753795807
0.0055 -0.0035 0.00651157931154
0.0055 -0.0025 0.00517804855519
0.0055 -0.0015 0.0560736400362
0.0055 -0.0005 0.207328583899
0.0055 0.0005 0.322179435857
0.0055 0.0015 0.301935407142
0.0055 0.0025 0.155398060542
0.0055 0.0035 0.00836406118839
0.0055 0.0045 0.0248188926497
0.0055 0.0055 0.00933440160849
0.0055 0.0065 0.0023473671937
0.0055 0.0075 0.00101575917846
0.0055 0.0085 0.000378880659199
0.0055 0.0095 0.000178679186968
0.0055 0.0105 9.87031131303e-05
0.0055 0.0115 6.73810269733e-05
0.0055 0.0125 5.58091666801e-05
0.0055 0.0135 5.18714372604e-05
0.0055 0.0145 5.02709846623e-05
0.0055 0.0155 4.89947437957e-05
0.0055 0.0165 4.74145142662e-05
0.0055 0.0175 4.54415492822e-05
0.0055 0.0185 4.31639130362e-05
0.0055 0.0195 4.07044040871e-05
0.0055 0.0205 3.81705225775e-05
0.0055 0.0215 3.56457389878e-05
0.0055 0.0225 3.31936317025e-05
0.0055 0.0235 3.08618390875e-05
0.0055 0.0245 2.86869952345e-05
0.0055 0.0255 2.66945694766e-05
0.0055 0.0265 2.49628297787e-05
0.0055 0.0275 2.36483669422e-05
0.0055 0.0285 2.37508656596e-05
0.0055 0.0295 2.50160575275e-05
0.0055 0.0305 2.98165020314e-05
0.0055 0.0315 1.7130864011e-05
0.0065 -0.0315 2.03629485173e-06
0.0065 -0.0305 3.8938238673e-06
0.0065 -0.0295 4.31294487903e-06
0.0065 -0.0285 5.00468944479e-06
0.0065 -0.0275 5.47675542755e-06
0.0065 -0.0265 5.82489465361e-06
0.0065 -0.0255 6.06761783211e-06
0.0065 -0.0245 6.26509975608e-06
0.0065 -0.0235 6.47099099562e-06
0.0065 -0.0225 6.72711667344e-06
0.0065 -0.0215 7.05916938382e-06
0.0065 -0.0205 7.47789520531e-06
0.0065 -0.0195 7.98158935521e-06
0.0065 -0.0185 8.55928224624e-06
0.0065 -0.0175 9.19444962073e-06
0.0065 -0.0165 9.86931373346e-06
0.0065 -0.0155 1.05704760912e-05
0.0065 -0.0145 1.12974492103e-05
0.0065 -0.0135 1.2078806863e-05
0.0065 -0.0125 1.30009951901e-05
0.0065 -0.0115 1.42842426621e-05
0.0065 -0.0105 1.64066028893e-05
0.0065 -0.0095 2.06738466521e-05
0.0065 -0.0085 2.98166816287e-05
0.0065 -0.0075 5.46709583321e-05
0.0065 -0.0065 0.000110877204456
0.0065 -0.0055 0.000344035361689
0.0065 -0.0045 0.000717026423018
0.0065 -0.0035 0.00557954021451
0.0065 -0.0025 0.00531678331358
0.0065 -0.0015 0.038450424422
0.0065 -0.0005 0.176067799514
0.0065 0.0005 0.305874010593
0.0065 0.0015 0.311229874211
0.0065 0.0025 0.198414183097
0.0065 0.0035 0.03726779961
0.0065 0.0045 0.0307797981142
0.0065 0.0055 0.0164463033701
0.0065 0.0065 0.00411207597179
0.0065 0.0075 0.00159349176382
0.0065 0.0085 0.000558983013071
0.0065 0.0095 0.000249332900531
0.0065 0.0105 0.000130849297206
0.0065 0.0115 8.60538870417e-05
0.0065 0.0125 6.91230931013e-05
0.0065 0.0135 6.24786660046e-05
0.0065 0.0145 5.89948188999e-05
0.0065 0.0155 5.6142848521e-05
0.0065 0.0165 5.31878891694e-05
0.0065 0.0175 5.00513793594e-05
0.0065 0.0185 4.68314787123e-05
0.0065 0.0195 4.36301227705e-05
0.0065 0.0205 4.0512793915e-05
0.0065 0.0215 3.75137206578e-05
0.0065 0.0225 3.4648422231e-05
0.0065 0.0235 3.19227567605e-05
0.0065 0.0245 2.93428960141e-05
0.0065 0.0255 2.69243822395e-05
0.0065 0.0265 2.47771808372e-05
0.0065 0.0275 2.31423381478e-05
0.0065 0.0285 2.31717013208e-05
0.0065 0.0295 2.45964357082e-05
0.0065 0.0305 3.01295578605e-05
0.0065 0.0315 1.75371878815e-05
0.0075 -0.0315 2.08625903408e-06
0.0075 -0.0305 3.98390539398e-06
0.0075 -0.0295 4.43368098371e-06
0.0075 -0.0285 5.19848674527e-06
0.0075 -0.0275 5.77712825006e-06
0.0075 -0.0265 6.25418273588e-06
0.0075 -0.0255 6.63109344284e-06
0.0075 -0.0245 6.94933150848e-06
0.0075 -0.0235 7.25057978196e-06
0.0075 -0.0225 7.57226414086e-06
0.0075 -0.0215 7.94044768186e-06
0.0075 -0.0205 8.36855229511e-06
0.0075 -0.0195 8.85862777699e-06
0.0075 -0.0185 9.40401019664e-06
0.0075 -0.0175 9.99312317741e-06
0.0075 -0.0165 1.06146875527e-05
0.0075 -0.0155 1.12651515125e-05
0.0075 -0.0145 1.19597158419e-05
0.0075 -0.0135 1.27509376243e-05
0.0075 -0.0125 1.37606365715e-05
0.0075 -0.0115 1.52507363315e-05
0.0075 -0.0105 1.77439055129e-05
0.0075 -0.0095 2.24722427532e-05
0.0075 -0.0085 3.19118456356e-05
0.0075 -0.0075 5.38733473974e-05
0.0075 -0.0065 9.95670179472e-05
0.0075 -0.0055 0.000256516771043
0.0075 -0.0045 0.000553493582134
0.0075 -0.0035 0.00332068421837
0.0075 -0.0025 0.00486909090423
0.0075 -0.0015 0.0190968280598
0.0075 -0.0005 0.142011312072
0.0075 0.0005 0.284089777644
0.0075 0.0015 0.314120286596
0.0075 0.0025 0.237568499821
0.0075 0.0035 0.0785733492213
0.0075 0.0045 0.0257601598992
0.0075 0.0055 0.0247070202287
0.0075 0.0065 0.00753938486002
0.0075 0.0075 0.00237098772019
0.0075 0.0085 0.000837910386602
0.0075 0.0095 0.000348478732464
0.0075 0.0105 0.000174850726906
0.0075 0.0115 0.000109938158063
0.0075 0.0125 8.45039776466e-05
0.0075 0.0135 7.35465449295e-05
0.0075 0.0145 6.73858789238e-05
0.0075 0.0155 6.25530143984e-05
0.0075 0.0165 5.80461494661e-05
0.0075 0.0175 5.37110174304e-05
0.0075 0.0185 4.95876374642e-05
0.0075 0.0195 4.57126397e-05
0.0075 0.0205 4.2086217291e-05
0.0075 0.0215 3.86826043251e-05
0.0075 0.0225 3.5467130928e-05
0.0075 0.0235 3.24091507519e-05
0.0075 0.0245 2.94974068608e-05
0.0075 0.0255 2.67577499587e-05
0.0075 0.0265 2.43462653036e-05
0.0075 0.0275 2.25703623745e-05
0.0075 0.0285 2.26698153942e-05
0.0075 0.0295 2.43415688643e-05
0.0075 0.0305 3.04209604918e-05
0.0075 0.0315 1.78350666686e-05
0.0085 -0.0315 2.14005961452e-06
0.0085 -0.0305 4.09268370944e-06
0.0085 -0.0295 4.5877980925e-06
0.0085 -0.0285 5.42514244615e-06
0.0085 -0.0275 6.09874937012e-06
0.0085 -0.0265 6.68765597067e-06
0.0085 -0.0255 7.18420039991e-06
0.0085 -0.0245 7.61611410522e-06
0.0085 -0.0235 8.01203355275e-06
0.0085 -0.0225 8.40064908279e-06
0.0085 -0.0215 8.8044054397e-06
0.0085 -0.0205 9.23701006145e-06
0.0085 -0.0195 9.70356539066e-06
0.0085 -0.0185 1.02027774736e-05
0.0085 -0.0175 1.07311583855e-05
0.0085 -0.0165 1.12898724047e-05
0.0085 -0.0155 1.18953239785e-05
0.0085 -0.0145 1.25952750647e-05
0.0085 -0.0135 1.34935096143e-05
0.0085 -0.0125 1.47914472476e-05
0.0085 -0.0115 1.68716351734e-05
0.0085 -0.0105 2.0464385835e-05
0.0085 -0.0095 2.7048290979e-05
0.0085 -0.0085 3.98461470858e-05
0.0085 -0.0075 6.59049617328e-05
0.0085 -0.0065 0.00011768009782
0.0085 -0.0055 0.000227803675717
0.0085 -0.0045 0.000493403014617
0.0085 -0.0035 0.00138341396819
0.0085 -0.0025 0.00277736611971
0.0085 -0.0015 0.00427315205756
0.0085 -0.0005 0.107332234632
0.0085 0.0005 0.255945684157
0.0085 0.0015 0.31005099698
0.0085 0.0025 0.267204764751
0.0085 0.0035 0.131221793928
0.0085 0.0045 0.0024807385829
0.0085 0.0055 0.033010168064
0.0085 0.0065 0.013779469158
0.0085 0.0075 0.00365612410061
0.0085 0.0085 0.00129483081476
0.0085 0.0095 0.00050228724625
0.0085 0.0105 0.000240937965522
0.0085 0.0115 0.000141228516261
0.0085 0.0125 0.000101810551859
0.0085 0.0135 8.4535118047e-05
0.0085 0.0145 7.49111017659e-05
0.0085 0.0155 6.78261983098e-05
0.0085 0.0165 6.17675734409e-05
0.0085 0.0175 5.63462637069e-05
0.0085 0.0185 5.14599809596e-05
0.0085 0.0195 4.70454644182e-05
0.0085 0.0205 4.30254375376e-05
0.0085 0.0215 3.93144361925e-05
0.0085 0.0225 3.58357320667e-05
0.0085 0.0235 3.25348440323e-05
0.0085 0.0245 2.93970002038e-05
0.0085 0.0255 2.6466222526e-05
0.0085 0.0265 2.39354246531e-05
0.0085 0.0275 2.21566431799e-05
0.0085 0.0285 2.2422042246e-05
0.0085 0.0295 2.43530243059e-05
0.0085 0.0305 3.08051635021e-05
0.0085 0.0315 1.81248744372e-05
0.0095 -0.0315 2.19905736405e-06
0.0095 -0.0305 4.22094921551e-06
0.0095 -0.0295 4.7750115159e-06
0.0095 -0.0285 5.68764646874e-06
0.0095 -0.0275 6.44994383807e-06
0.0095 -0.0265 7.13842923035e-06
0.0095 -0.0255 7.74072022608e-06
0.0095 -0.0245 8.27506906233e-06
0.0095 -0.0235 8.75893854288e-06
0.0095 -0.0225 9.21136581723e-06
0.0095 -0.0215 9.64879200981e-06
0.0095 -0.0205 1.00829507872e-05
0.0095 -0.0195 1.05208473686e-05
0.0095 -0.0185 1.09675599514e-05
0.0095 -0.0175 1.1432274513e-05
0.0095 -0.0165 1.19391257212e-05
0.0095 -0.0155 1.25456824761e-05
0.0095 -0.0145 1.33708842071e-05
0.0095 -0.0135 1.46359626051e-05
0.0095 -0.0125 1.67254369908e-05
0.0095 -0.0115 2.03006770492e-05
0.0095 -0.0105 2.65995817462e-05
0.0095 -0.0095 3.7948533743e-05
0.0095 -0.0085 5.90564026714e-05
0.0095 -0.0075 0.000102066386049
0.0095 -0.0065 0.000190924858381
0.0095 -0.0055 0.000319105450435
0.0095 -0.0045 0.000454349056656
0.0095 -0.0035 0.000717320410967
0.0095 -0.0025 0.00153632187153
0.0095 -0.0015 0.00457602864402
0.0095 -0.0005 0.0749070785871
0.0095 0.0005 0.220617860725
0.0095 0.0015 0.298550194861
0.0095 0.0025 0.285608006062
0.0095 0.0035 0.185338260626
0.0095 0.0045 0.0379961403784
0.0095 0.0055 0.0354093185248
0.0095 0.0065 0.0232634155091
0.0095 0.0075 0.00693218618396
0.0095 0.0085 0.00215390304663
0.0095 0.0095 0.000792120011791
0.0095 0.0105 0.000340165302408
0.0095 0.0115 0.000181027113492
0.0095 0.0125 0.000120716144539
0.0095 0.0135 9.49210620168e-05
0.0095 0.0145 8.11004289827e-05
0.0095 0.0155 7.17103068079e-05
0.0095 0.0165 6.42796015883e-05
0.0095 0.0175 5.79994958189e-05
0.0095 0.0185 5.25623964622e-05
0.0095 0.0195 4.77839619604e-05
0.0095 0.0205 4.35087168226e-05
0.0095 0.0215 3.96023693023e-05
0.0095 0.0225 3.5960792e-05
0.0095 0.0235 3.25191253712e-05
0.0095 0.0245 2.92663120863e-05
0.0095 0.0255 2.62602242066e-05
0.0095 0.0265 2.3714914741e-05
0.0095 0.0275 2.20206089788e-05
0.0095 0.0285 2.25067114351e-05
0.0095 0.0295 2.46469003574e-05
0.0095 0.0305 3.12305726135e-05
0.0095 0.0315 1.83727170552e-05
0.0105 -0.0315 2.26440846607e-06
0.0105 -0.0305 4.36944879147e-06
0.0105 -0.0295 4.99496230155e-06
0.0105 -0.0285 5.98901780944e-06
0.0105 -0.0275 6.84151873604e-06
0.0105 -0.0265 7.6297908531e-06
0.0105 -0.0255 8.33782769215e-06
0.0105 -0.0245 8.97307076139e-06
0.0105 -0.0235 9.54052448364e-06
0.0105 -0.0225 1.00498894788e-05
0.0105 -0.0215 1.05134720865e-05
0.0105 -0.0205 1.09412885896e-05
0.0105 -0.0195 1.13420414676e-05
0.0105 -0.0185 1.17309921272e-05
0.0105 -0.0175 1.21398844368e-05
0.0105 -0.0165 1.26367095092e-05
0.0105 -0.0155 1.33636554444e-05
0.0105 -0.0145 1.45955997009e-05
0.0105 -0.0135 1.68132563141e-05
0.0105 -0.0125 2.08087268021e-05
0.0105 -0.0115 2.78466592946e-05
0.0105 -0.0105 4.00398853923e-05
0.0105 -0.0095 6.20469603107e-05
0.0105 -0.0085 0.000102533371942
0.0105 -0.0075 0.000178987216705
0.0105 -0.0065 0.000352078938863
0.0105 -0.0055 0.000544557026556
0.0105 -0.0045 0.000614940513918
0.0105 -0.0035 0.000656848956278
0.0105 -0.0025 0.00180889936141
0.0105 -0.0015 0.00614621871556
0.0105 -0.0005 0.0462915723919
0.0105 0.0005 0.177932800903
0.0105 0.0015 0.278821998436
0.0105 0.0025 0.293011104159
0.0105 0.0035 0.229761937343
0.0105 0.0045 0.0946004654634
0.0105 0.0055 0.0166602742245
0.0105 0.0065 0.0335710269684
0.0105 0.0075 0.013828748018
0.0105 0.0085 0.00376493860685
0.0105 0.0095 0.00127141226094
0.0105 0.0105 0.000472046850234
0.0105 0.0115 0.000230122717285
0.0105 0.0125 0.00014116070034
0.0105 0.0135 0.000104284697577
0.0105 0.0145 8.57438160495e-05
0.0105 0.0155 7.41843351987e-05
0.0105 0.0165 6.56596786542e-05
0.0105 0.0175 5.8810114364e-05
0.0105 0.0185 5.30673847997e-05
0.0105 0.0195 4.8113593888e-05
0.0105 0.0205 4.37255295834e-05
0.0105 0.0215 3.97372555256e-05
0.0105 0.0225 3.60328035008e-05
0.0105 0.0235 3.25465423148e-05
0.0105 0.0245 2.92722264999e-05
0.0105 0.0255 2.62745539405e-05
0.0105 0.0265 2.37755590706e-05
0.0105 0.0275 2.21932211655e-05
0.0105 0.0285 2.28827920048e-05
0.0105 0.0295 2.51625491118e-05
0.0105 0.0305 3.16467939013e-05
0.0105 0.0315 1.85487518287e-05
0.0115 -0.0315 2.33715168825e-06
0.0115 -0.0305 4.53921034643e-06
0.0115 -0.0295 5.24921701631e-06
0.0115 -0.0285 6.33923241904e-06
0.0115 -0.0275 7.3026489715e-06
0.0115 -0.0265 8.22223991699e-06
0.0115 -0.0255 9.0738616994e-06
0.0115 -0.0245 9.84430983026e-06
0.0115 -0.0235 1.05182335945e-05
0.0115 -0.0225 1.10895803726e-05
0.0115 -0.0215 1.1566269963e-05
0.0115 -0.0205 1.19568016249e-05
0.0115 -0.0195 1.22789022306e-05
0.0115 -0.0185 1.25823404243e-05
0.0115 -0.0175 1.29460688765e-05
0.0115 -0.0165 1.35181178889e-05
0.0115 -0.0155 1.46116042047e-05
0.0115 -0.0145 1.68239604475e-05
0.0115 -0.0135 2.11894014753e-05
0.0115 -0.0125 2.93392145547e-05
0.0115 -0.0115 4.39911435894e-05
0.0115 -0.0105 7.02257680679e-05
0.0115 -0.0095 0.000117463747833
0.0115 -0.0085 0.000214389388299
0.0115 -0.0075 0.000400852882091
0.0115 -0.0065 0.000756503338854
0.0115 -0.0055 0.00119827222107
0.0115 -0.0045 0.00145304025487
0.0115 -0.0035 0.00144883028265
0.0115 -0.0025 0.00256995132701
0.0115 -0.0015 0.00669609481101
0.0115 -0.0005 0.0203290306179
0.0115 0.0005 0.130702962655
0.0115 0.0015 0.250012949789
0.0115 0.0025 0.28962501866
0.0115 0.0035 0.2590740714
0.0115 0.0045 0.157504370423
0.0115 0.0055 0.0271004121045
0.0115 0.0065 0.0351054637063
0.0115 0.0075 0.0232910715959
0.0115 0.0085 0.00658379649718
0.0115 0.0095 0.00182066322119
0.0115 0.0105 0.000648487143916
0.0115 0.0115 0.000291356964162
0.0115 0.0125 0.000163745463387
0.0115 0.0135 0.000112847645172
0.0115 0.0145 8.91351740414e-05
0.0115 0.0155 7.54670362295e-05
0.0115 0.0165 6.61237909575e-05
0.0115 0.0175 5.89896175856e-05
0.0115 0.0185 5.31735345784e-05
0.0115 0.0195 4.82180103383e-05
0.0115 0.0205 4.38470570391e-05
0.0115 0.0215 3.98795134586e-05
0.0115 0.0225 3.61994279241e-05
0.0115 0.0235 3.27457074877e-05
0.0115 0.0245 2.95166452196e-05
0.0115 0.0255 2.65809423262e-05
0.0115 0.0265 2.41646303062e-05
0.0115 0.0275 2.26862634858e-05
0.0115 0.0285 2.34785734324e-05
0.0115 0.0295 2.58155507794e-05
0.0115 0.0305 3.20792076705e-05
0.0115 0.0315 1.86940923527e-05
0.0125 -0.0315 2.41791343292e-06
0.0125 -0.0305 4.73066492366e-06
0.0125 -0.0295 5.54043679294e-06
0.0125 -0.0285 6.75716500352e-06
0.0125 -0.0275 7.88645843465e-06
0.0125 -0.0265 9.00942922876e-06
0.0125 -0.0255 1.00868211633e-05
0.0125 -0.0245 1.10855549698e-05
0.0125 -0.0235 1.19606628794e-05
0.0125 -0.0225 1.2670629228e-05
0.0125 -0.0215 1.3185392527e-05
0.0125 -0.0205 1.34890163248e-05
0.0125 -0.0195 1.36302272044e-05
0.0125 -0.0185 1.37574152434e-05
0.0125 -0.0175 1.40583113838e-05
0.0125 -0.0165 1.48332402972e-05
0.0125 -0.0155 1.67240382749e-05
0.0125 -0.0145 2.0974968949e-05
0.0125 -0.0135 2.97097132386e-05
0.0125 -0.0125 4.66806063794e-05
0.0125 -0.0115 7.93929687768e-05
0.0125 -0.0105 0.000145301720913
0.0125 -0.0095 0.000291683457763
0.0125 -0.0085 0.000606577561789
0.0125 -0.0075 0.00123792879902
0.0125 -0.0065 0.00227642697498
0.0125 -0.0055 0.0034731254415
0.0125 -0.0045 0.00442193020081
0.0125 -0.0035 0.00493213211722
0.0125 -0.0025 0.00570677216332
0.0125 -0.0015 0.00906250718942
0.0125 -0.0005 0.000867149102266
0.0125 0.0005 0.0851071076213
0.0125 0.0015 0.211553905779
0.0125 0.0025 0.275408102543
0.0125 0.0035 0.272789111276
0.0125 0.0045 0.208152976246
0.0125 0.0055 0.0891652680059
0.0125 0.0065 0.0127761754798
0.0125 0.0075 0.0299775612743
0.0125 0.0085 0.0112725982034
0.0125 0.0095 0.00246475961771
0.0125 0.0105 0.000930664361676
0.0125 0.0115 0.000367727840221
0.0125 0.0125 0.000191517873178
0.0125 0.0135 0.000122175740068
0.0125 0.0145 9.20723408658e-05
0.0125 0.0155 7.60193169653e-05
0.0125 0.0165 6.5997623491e-05
0.0125 0.0175 5.87749662848e-05
0.0125 0.0185 5.30627667102e-05
0.0125 0.0195 4.82444296772e-05
0.0125 0.0205 4.39982991462e-05
0.0125 0.0215 4.01366952178e-05
0.0125 0.0225 3.65497079616e-05
0.0125 0.0235 3.31840380276e-05
0.0125 0.0245 3.00446640735e-05
0.0125 0.0255 2.72081623321e-05
0.0125 0.0265 2.49176698121e-05
0.0125 0.0275 2.35963060083e-05
0.0125 0.0285 2.44553924263e-05
0.0125 0.0295 2.67218209986e-05
0.0125 0.0305 3.25069742953e-05
0.0125 0.0315 1.87556095437e-05
0.0135 -0.0315 2.50649151038e-06
0.0135 -0.0305 4.94228529128e-06
0.0135 -0.0295 5.86815393624e-06
0.0135 -0.0285 7.25002432839e-06
0.0135 -0.0275 8.6031092766e-06
0.0135 -0.0265 1.00019570274e-05
0.0135 -0.0255 1.14040142228e-05
0.0135 -0.0245 1.2754801611e-05
0.0135 -0.0235 1.3958412684e-05
0.0135 -0.0225 1.49459258164e-05
0.0135 -0.0215 1.56300784088e-05
0.0135 -0.0205 1.59113338979e-05
0.0135 -0.0195 1.58310541468e-05
0.0135 -0.0185 1.56493549671e-05
0.0135 -0.0175 1.58033346746e-05
0.0135 -0.0165 1.69599111412e-05
0.0135 -0.0155 2.03079295978e-05
0.0135 -0.0145 2.82855412363e-05
0.0135 -0.0135 4.57321260482e-05
0.0135 -0.0125 8.27501412048e-05
0.0135 -0.0115 0.000169599294615
0.0135 -0.0105 0.000376350338975
0.0135 -0.0095 0.000855509602769
0.0135 -0.0085 0.00188312041458
0.0135 -0.0075 0.00364017691866
0.0135 -0.0065 0.00571431078721
0.0135 -0.0055 0.00742826588343
0.0135 -0.0045 0.00860117215227
0.0135 -0.0035 0.00926501593745
0.0135 -0.0025 0.0098793656769
0.0135 -0.0015 0.0130795593132
0.0135 -0.0005 0.012239100177
0.0135 0.0005 0.0467107388521
0.0135 0.0015 0.161945844026
0.0135 0.0025 0.249596832329
0.0135 0.0035 0.272371856689
0.0135 0.0045 0.240422468122
0.0135 0.0055 0.152615097757
0.0135 0.0065 0.0420176445443
0.0135 0.0075 0.0223325469774
0.0135 0.0085 0.0176343517711
0.0135 0.0095 0.00397388471533
0.0135 0.0105 0.00130757942581
0.0135 0.0115 0.000476521586896
0.0135 0.0125 0.000230632252539
0.0135 0.0135 0.000135484857065
0.0135 0.0145 9.58888858573e-05
0.0135 0.0155 7.65815809796e-05
0.0135 0.0165 6.56635999607e-05
0.0135 0.0175 5.83843161618e-05
0.0135 0.0185 5.28652305292e-05
0.0135 0.0195 4.82795980514e-05
0.0135 0.0205 4.42420802525e-05
0.0135 0.0215 4.05542123505e-05
0.0135 0.0225 3.71131533406e-05
0.0135 0.0235 3.38770458175e-05
0.0135 0.0245 3.08636534851e-05
0.0135 0.0255 2.81709964107e-05
0.0135 0.0265 2.60764882504e-05
0.0135 0.0275 2.5009327772e-05
0.0135 0.0285 2.60109615535e-05
0.0135 0.0295 2.80393903976e-05
0.0135 0.0305 3.30443651092e-05
0.0135 0.0315 1.88274370493e-05
0.0145 -0.0315 2.60146814828e-06
0.0145 -0.0305 5.16860034861e-06
0.0145 -0.0295 6.21961135067e-06
0.0145 -0.0285 7.78579422159e-06
0.0145 -0.0275 9.38856227978e-06
0.0145 -0.0265 1.11133170985e-05
0.0145 -0.0255 1.28983840722e-05
0.0145 -0.0245 1.46718553909e-05
0.0145 -0.0235 1.63276904297e-05
0.0145 -0.0225 1.77562807716e-05
0.0145 -0.0215 1.87547191869e-05
0.0145 -0.0205 1.9099473102e-05
0.0145 -0.0195 1.87822545145e-05
0.0145 -0.0185 1.81756014407e-05
0.0145 -0.0175 1.81707619e-05
0.0145 -0.0165 2.00623835534e-05
0.0145 -0.0155 2.59376423827e-05
0.0145 -0.0145 4.024235092e-05
0.0145 -0.0135 7.50725435303e-05
0.0145 -0.0125 0.00016832818437
0.0145 -0.0115 0.000413776582719
0.0145 -0.0105 0.00101459551758
0.0145 -0.0095 0.00235793082061
0.0145 -0.0085 0.00464362920593
0.0145 -0.0075 0.00718254794947
0.0145 -0.0065 0.00879840067972
0.0145 -0.0055 0.00914019740182
0.0145 -0.0045 0.0088481042162
0.0145 -0.0035 0.00844174693401