% Model:              Benchmark260518.mph
% Version:            COMSOL 6.2.0.339
% Date:               May 21 2026, 04:22
% Dimension:          2
% Nodes:              4096
% Expressions:        1
% Description:        速度大小
% Length unit:        m
% x                       y                        spf.U (m/s)
% mirrored_by_python_y_to_minus_y, coord_match_decimals=12
0.0005 -0.0315 1.22255803482e-06
0.0005 -0.0305 2.49047368133e-06
0.0005 -0.0295 2.87024178976e-06
0.0005 -0.0285 3.30995128465e-06
0.0005 -0.0275 3.69104895177e-06
0.0005 -0.0265 4.28370198504e-06
0.0005 -0.0255 5.16148970982e-06
0.0005 -0.0245 7.26427124197e-06
0.0005 -0.0235 1.37938326913e-05
0.0005 -0.0225 3.42791456322e-05
0.0005 -0.0215 0.000105919202175
0.0005 -0.0205 0.000242827712391
0.0005 -0.0195 0.000404043639491
0.0005 -0.0185 0.000717254249977
0.0005 -0.0175 0.00174342185268
0.0005 -0.0165 0.00371408321201
0.0005 -0.0155 0.00720566402136
0.0005 -0.0145 0.00900011790712
0.0005 -0.0135 0.00831191565196
0.0005 -0.0125 0.0079690257942
0.0005 -0.0115 0.0076681440692
0.0005 -0.0105 0.0073279417663
0.0005 -0.0095 0.00701002094298
0.0005 -0.0085 0.00699519657029
0.0005 -0.0075 0.00783372000892
0.0005 -0.0065 0.0101030268248
0.0005 -0.0055 0.0140023596683
0.0005 -0.0045 0.0192102959842
0.0005 -0.0035 0.0255519867964
0.0005 -0.0025 0.0307580452735
0.0005 -0.0015 0.0336990751081
0.0005 -0.0005 0.0233734139773
0.0005 0.0005 0.00829039729894
0.0005 0.0015 0.00297107341874
0.0005 0.0025 0.00157188822004
0.0005 0.0035 0.00165262272591
0.0005 0.0045 0.00208837966204
0.0005 0.0055 0.00246580217726
0.0005 0.0065 0.00260079069659
0.0005 0.0075 0.00241212458261
0.0005 0.0085 0.00194134329241
0.0005 0.0095 0.00132143727725
0.0005 0.0105 0.000764218518631
0.0005 0.0115 0.000472892089633
0.0005 0.0125 0.000424456390028
0.0005 0.0135 0.000368253605815
0.0005 0.0145 0.00022360031937
0.0005 0.0155 9.9468788345e-05
0.0005 0.0165 4.75492816723e-05
0.0005 0.0175 2.63289032369e-05
0.0005 0.0185 1.88279304336e-05
0.0005 0.0195 1.57762469294e-05
0.0005 0.0205 1.41491506691e-05
0.0005 0.0215 1.32980817773e-05
0.0005 0.0225 1.26431848254e-05
0.0005 0.0235 1.20540993681e-05
0.0005 0.0245 1.15329629927e-05
0.0005 0.0255 1.10534840611e-05
0.0005 0.0265 1.0618685765e-05
0.0005 0.0275 1.01545569922e-05
0.0005 0.0285 9.68533831198e-06
0.0005 0.0295 8.72031079184e-06
0.0005 0.0305 7.85352953438e-06
0.0005 0.0315 3.96463356741e-06
0.0015 -0.0315 2.40795812449e-06
0.0015 -0.0305 4.82855007375e-06
0.0015 -0.0295 5.32408794024e-06
0.0015 -0.0285 5.88786732579e-06
0.0015 -0.0275 6.40868787044e-06
0.0015 -0.0265 7.38002269247e-06
0.0015 -0.0255 9.25907991823e-06
0.0015 -0.0245 1.40032920757e-05
0.0015 -0.0235 2.74428258026e-05
0.0015 -0.0225 6.82438726404e-05
0.0015 -0.0215 0.000215901150641
0.0015 -0.0205 0.000545657611189
0.0015 -0.0195 0.00120011040433
0.0015 -0.0185 0.00276183853922
0.0015 -0.0175 0.00578026786698
0.0015 -0.0165 0.0095303063728
0.0015 -0.0155 0.0117659808576
0.0015 -0.0145 0.011731631493
0.0015 -0.0135 0.0112244720375
0.0015 -0.0125 0.0109674672891
0.0015 -0.0115 0.0106226234378
0.0015 -0.0105 0.0100772043614
0.0015 -0.0095 0.00932044418387
0.0015 -0.0085 0.00849355587958
0.0015 -0.0075 0.00804906146938
0.0015 -0.0065 0.00885574578165
0.0015 -0.0055 0.0115767825402
0.0015 -0.0045 0.0159636095539
0.0015 -0.0035 0.0219069417486
0.0015 -0.0025 0.0276402546878
0.0015 -0.0015 0.0316637892332
0.0015 -0.0005 0.0301817220714
0.0015 0.0005 0.02196679364
0.0015 0.0015 0.0145662537259
0.0015 0.0025 0.0117972684551
0.0015 0.0035 0.0114973264177
0.0015 0.0045 0.0119618248009
0.0015 0.0055 0.0122517608349
0.0015 0.0065 0.0119346211021
0.0015 0.0075 0.0108251962954
0.0015 0.0085 0.00895061332191
0.0015 0.0095 0.00656553251592
0.0015 0.0105 0.00413809119522
0.0015 0.0115 0.00220289539088
0.0015 0.0125 0.00117247661229
0.0015 0.0135 0.000750975879779
0.0015 0.0145 0.000453919346405
0.0015 0.0155 0.000221679756803
0.0015 0.0165 9.84088920497e-05
0.0015 0.0175 5.07028150554e-05
0.0015 0.0185 3.28978674505e-05
0.0015 0.0195 2.55394552913e-05
0.0015 0.0205 2.2097734127e-05
0.0015 0.0215 2.03723792468e-05
0.0015 0.0225 1.92446798566e-05
0.0015 0.0235 1.83951961423e-05
0.0015 0.0245 1.77786347403e-05
0.0015 0.0255 1.73506941848e-05
0.0015 0.0265 1.70842342956e-05
0.0015 0.0275 1.68676575208e-05
0.0015 0.0285 1.66835172352e-05
0.0015 0.0295 1.57750527738e-05
0.0015 0.0305 1.49296476184e-05
0.0015 0.0315 7.65324686964e-06
0.0025 -0.0315 2.56001437635e-06
0.0025 -0.0305 4.96383802399e-06
0.0025 -0.0295 5.23371062573e-06
0.0025 -0.0285 5.67691223256e-06
0.0025 -0.0275 6.15872691835e-06
0.0025 -0.0265 7.34394423973e-06
0.0025 -0.0255 1.03771658265e-05
0.0025 -0.0245 1.80564597598e-05
0.0025 -0.0235 3.8778934133e-05
0.0025 -0.0225 9.7283274794e-05
0.0025 -0.0215 0.000327378605005
0.0025 -0.0205 0.00100671660916
0.0025 -0.0195 0.00273906096503
0.0025 -0.0185 0.00605924236526
0.0025 -0.0175 0.0101496727555
0.0025 -0.0165 0.0132558193438
0.0025 -0.0155 0.0145027949752
0.0025 -0.0145 0.01450544514
0.0025 -0.0135 0.0142421717742
0.0025 -0.0125 0.0139369810613
0.0025 -0.0115 0.0134826265437
0.0025 -0.0105 0.0128192030989
0.0025 -0.0095 0.0118869864798
0.0025 -0.0085 0.0106535841055
0.0025 -0.0075 0.00925249879608
0.0025 -0.0065 0.00829158138341
0.0025 -0.0055 0.00903259910229
0.0025 -0.0045 0.0120611339182
0.0025 -0.0035 0.017192460704
0.0025 -0.0025 0.0228844166147
0.0025 -0.0015 0.0275567468033
0.0025 -0.0005 0.0295997172093
0.0025 0.0005 0.0286355358459
0.0025 0.0015 0.026842337966
0.0025 0.0025 0.0258281390183
0.0025 0.0035 0.0257006089508
0.0025 0.0045 0.0257117651763
0.0025 0.0055 0.0253350310343
0.0025 0.0065 0.0243352650559
0.0025 0.0075 0.0225825285602
0.0025 0.0085 0.0199478506837
0.0025 0.0095 0.0163351780733
0.0025 0.0105 0.0118707947083
0.0025 0.0115 0.00715933487691
0.0025 0.0125 0.00337498909794
0.0025 0.0135 0.00138208621341
0.0025 0.0145 0.000648221808976
0.0025 0.0155 0.000307022605086
0.0025 0.0165 0.00012995046243
0.0025 0.0175 6.34268904875e-05
0.0025 0.0185 3.5329076398e-05
0.0025 0.0195 2.35576750637e-05
0.0025 0.0205 1.84648632814e-05
0.0025 0.0215 1.58987304188e-05
0.0025 0.0225 1.44484106794e-05
0.0025 0.0235 1.36628778386e-05
0.0025 0.0245 1.34093336835e-05
0.0025 0.0255 1.35932673134e-05
0.0025 0.0265 1.40767275142e-05
0.0025 0.0275 1.46648520739e-05
0.0025 0.0285 1.51877205462e-05
0.0025 0.0295 1.49517492979e-05
0.0025 0.0305 1.51182513163e-05
0.0025 0.0315 8.09088758417e-06
0.0035 -0.0315 2.78817256595e-06
0.0035 -0.0305 5.21161105383e-06
0.0035 -0.0295 5.44653450011e-06
0.0035 -0.0285 6.2149615956e-06
0.0035 -0.0275 7.21246820652e-06
0.0035 -0.0265 9.48758769168e-06
0.0035 -0.0255 1.51921561804e-05
0.0035 -0.0245 3.04491613362e-05
0.0035 -0.0235 7.2683900956e-05
0.0035 -0.0225 0.000213501678559
0.0035 -0.0215 0.000689047877755
0.0035 -0.0205 0.00219382618645
0.0035 -0.0195 0.00559207975053
0.0035 -0.0185 0.0101957009029
0.0035 -0.0175 0.0140380008758
0.0035 -0.0165 0.0160532821492
0.0035 -0.0155 0.0165118854375
0.0035 -0.0145 0.0161228720397
0.0035 -0.0135 0.0153681541635
0.0035 -0.0125 0.0145142114018
0.0035 -0.0115 0.0137295784798
0.0035 -0.0105 0.0130507822873
0.0035 -0.0095 0.0123650074492
0.0035 -0.0085 0.0114687883971
0.0035 -0.0075 0.0101783073551
0.0035 -0.0065 0.00850734897471
0.0035 -0.0055 0.00722288873349
0.0035 -0.0045 0.00810873800667
0.0035 -0.0035 0.0118787806711
0.0035 -0.0025 0.0168507385901
0.0035 -0.0015 0.0215777185933
0.0035 -0.0005 0.0253136364218
0.0035 0.0005 0.0278083128634
0.0035 0.0015 0.0296628504937
0.0035 0.0025 0.0310037872041
0.0035 0.0035 0.0316051237245
0.0035 0.0045 0.031478915455
0.0035 0.0055 0.0308739063517
0.0035 0.0065 0.0300108706653
0.0035 0.0075 0.0288725194275
0.0035 0.0085 0.0272209160909
0.0035 0.0095 0.0246324141922
0.0035 0.0105 0.0205908565779
0.0035 0.0115 0.0149113663275
0.0035 0.0125 0.00857357259245
0.0035 0.0135 0.00370106866794
0.0035 0.0145 0.00136297060078
0.0035 0.0155 0.000558687269673
0.0035 0.0165 0.000235732126696
0.0035 0.0175 0.000103885178477
0.0035 0.0185 5.52027115e-05
0.0035 0.0195 3.59452818137e-05
0.0035 0.0205 2.67962290956e-05
0.0035 0.0215 2.15862625571e-05
0.0035 0.0225 1.82003444185e-05
0.0035 0.0235 1.61631371849e-05
0.0035 0.0245 1.52784331117e-05
0.0035 0.0255 1.52382933914e-05
0.0035 0.0265 1.56497454487e-05
0.0035 0.0275 1.60725958578e-05
0.0035 0.0285 1.62304061753e-05
0.0035 0.0295 1.54279877307e-05
0.0035 0.0305 1.58748797871e-05
0.0035 0.0315 8.82572877565e-06
0.0045 -0.0315 2.95050302015e-06
0.0045 -0.0305 5.3699106032e-06
0.0045 -0.0295 5.56294808112e-06
0.0045 -0.0285 6.71516319805e-06
0.0045 -0.0275 8.5882838692e-06
0.0045 -0.0265 1.27857776804e-05
0.0045 -0.0255 2.30956413567e-05
0.0045 -0.0245 5.32967773036e-05
0.0045 -0.0235 0.000158722024877
0.0045 -0.0225 0.000500941667918
0.0045 -0.0215 0.00151057726358
0.0045 -0.0205 0.00442118775716
0.0045 -0.0195 0.00952061092611
0.0045 -0.0185 0.0144176635512
0.0045 -0.0175 0.0170237124686
0.0045 -0.0165 0.0174102633016
0.0045 -0.0155 0.0163615945246
0.0045 -0.0145 0.0145375430818
0.0045 -0.0135 0.0125379006398
0.0045 -0.0125 0.0108362178429
0.0045 -0.0115 0.00966429846358
0.0045 -0.0105 0.00901259387648
0.0045 -0.0095 0.00870775038384
0.0045 -0.0085 0.00850481239302
0.0045 -0.0075 0.00812466747498
0.0045 -0.0065 0.00728693246091
0.0045 -0.0055 0.0059726008928
0.0045 -0.0045 0.00523107406173
0.0045 -0.0035 0.00704780322605
0.0045 -0.0025 0.0105347625407
0.0045 -0.0015 0.0141883054774
0.0045 -0.0005 0.017749939221
0.0045 0.0005 0.0210033837594
0.0045 0.0015 0.0235190995285
0.0045 0.0025 0.0248047530924
0.0045 0.0035 0.0248725131143
0.0045 0.0045 0.0243250846291
0.0045 0.0055 0.0239116528159
0.0045 0.0065 0.0241460400586
0.0045 0.0075 0.0250708936651
0.0045 0.0085 0.0261279721165
0.0045 0.0095 0.026410019868
0.0045 0.0105 0.025113155574
0.0045 0.0115 0.0214602848928
0.0045 0.0125 0.0151782129539
0.0045 0.0135 0.00801915473997
0.0045 0.0145 0.00308969880396
0.0045 0.0155 0.00110493766396
0.0045 0.0165 0.000449902471117
0.0045 0.0175 0.000188579365343
0.0045 0.0185 0.000105647700031
0.0045 0.0195 7.08436270304e-05
0.0045 0.0205 5.2312350493e-05
0.0045 0.0215 3.89662088779e-05
0.0045 0.0225 2.91906401179e-05
0.0045 0.0235 2.28426756395e-05
0.0045 0.0245 1.94810794832e-05
0.0045 0.0255 1.81198172812e-05
0.0045 0.0265 1.76911192968e-05
0.0045 0.0275 1.73701307493e-05
0.0045 0.0285 1.67876681145e-05
0.0045 0.0295 1.54422314876e-05
0.0045 0.0305 1.61368835178e-05
0.0045 0.0315 9.19457975426e-06
0.0055 -0.0315 3.12546838169e-06
0.0055 -0.0305 5.62710494543e-06
0.0055 -0.0295 5.8927641352e-06
0.0055 -0.0285 7.6033489317e-06
0.0055 -0.0275 1.09224128838e-05
0.0055 -0.0265 1.84811989251e-05
0.0055 -0.0255 3.77035940317e-05
0.0055 -0.0245 9.20970155431e-05
0.0055 -0.0235 0.000313469181941
0.0055 -0.0225 0.00100453869387
0.0055 -0.0215 0.00304796368219
0.0055 -0.0205 0.00776374315025
0.0055 -0.0195 0.0138475433244
0.0055 -0.0185 0.017771633106
0.0055 -0.0175 0.0182981888238
0.0055 -0.0165 0.0163644928847
0.0055 -0.0155 0.0131542014798
0.0055 -0.0145 0.00978362003439
0.0055 -0.0135 0.00706758779211
0.0055 -0.0125 0.00527194440362
0.0055 -0.0115 0.00426552986428
0.0055 -0.0105 0.00380562049059
0.0055 -0.0095 0.00368768335422
0.0055 -0.0085 0.00375780421782
0.0055 -0.0075 0.00387406188447
0.0055 -0.0065 0.00386464296603
0.0055 -0.0055 0.00357745320449
0.0055 -0.0045 0.0032906882163
0.0055 -0.0035 0.00411998105504
0.0055 -0.0025 0.00583757570323
0.0055 -0.0015 0.00732223374834
0.0055 -0.0005 0.00890292626081
0.0055 0.0005 0.0107497748698
0.0055 0.0015 0.0120195742281
0.0055 0.0025 0.0122100259245
0.0055 0.0035 0.0117409236979
0.0055 0.0045 0.0112749494597
0.0055 0.0055 0.0113296762
0.0055 0.0065 0.0124233350152
0.0055 0.0075 0.0149643309309
0.0055 0.0085 0.0187779094751
0.0055 0.0095 0.0226651893609
0.0055 0.0105 0.0249783636306
0.0055 0.0115 0.0245649949512
0.0055 0.0125 0.0205843640795
0.0055 0.0135 0.0133471118593
0.0055 0.0145 0.00616090507818
0.0055 0.0155 0.00225532113653
0.0055 0.0165 0.000953127901586
0.0055 0.0175 0.000453079214757
0.0055 0.0185 0.000256314265324
0.0055 0.0195 0.000186138725645
0.0055 0.0205 0.000139580116416
0.0055 0.0215 9.63253443663e-05
0.0055 0.0225 6.09996570729e-05
0.0055 0.0235 3.97876385565e-05
0.0055 0.0245 2.88908203012e-05
0.0055 0.0255 2.34654984112e-05
0.0055 0.0265 2.07706537203e-05
0.0055 0.0275 1.89777359845e-05
0.0055 0.0285 1.73982892084e-05
0.0055 0.0295 1.55094842924e-05
0.0055 0.0305 1.64226566972e-05
0.0055 0.0315 9.53046614934e-06
0.0065 -0.0315 3.37270139805e-06
0.0065 -0.0305 6.07741380353e-06
0.0065 -0.0295 6.58585844288e-06
0.0065 -0.0285 9.21909988951e-06
0.0065 -0.0275 1.4929116367e-05
0.0065 -0.0265 2.9143830061e-05
0.0065 -0.0255 6.68459350653e-05
0.0065 -0.0245 0.00018864055254
0.0065 -0.0235 0.000612950498711
0.0065 -0.0225 0.00191291116195
0.0065 -0.0215 0.00554097993023
0.0065 -0.0205 0.0118497081885
0.0065 -0.0195 0.0175937680957
0.0065 -0.0185 0.0194106389486
0.0065 -0.0175 0.0172346050671
0.0065 -0.0165 0.0128187845171
0.0065 -0.0155 0.00819956401442
0.0065 -0.0145 0.00480380165188
0.0065 -0.0135 0.00282798406803
0.0065 -0.0125 0.00180092046522
0.0065 -0.0115 0.00131677676806
0.0065 -0.0105 0.00112880019943
0.0065 -0.0095 0.00107609900551
0.0065 -0.0085 0.00108714631961
0.0065 -0.0075 0.00113072458449
0.0065 -0.0065 0.00119129807594
0.0065 -0.0055 0.0012945881703
0.0065 -0.0045 0.00174045818723
0.0065 -0.0035 0.00297157835186
0.0065 -0.0025 0.004067181727
0.0065 -0.0015 0.00384780602867
0.0065 -0.0005 0.003251431098
0.0065 0.0005 0.00339837764821
0.0065 0.0015 0.00361628005303
0.0065 0.0025 0.00347790887156
0.0065 0.0035 0.00330408157373
0.0065 0.0045 0.00331667803775
0.0065 0.0055 0.00356136551894
0.0065 0.0065 0.004300789549
0.0065 0.0075 0.00610457550038
0.0065 0.0085 0.00997594280174
0.0065 0.0095 0.0158882361813
0.0065 0.0105 0.0216396998788
0.0065 0.0115 0.0245885805374
0.0065 0.0125 0.023485786015
0.0065 0.0135 0.0179287469342
0.0065 0.0145 0.0100927191271
0.0065 0.0155 0.00448504389052
0.0065 0.0165 0.0022945074422
0.0065 0.0175 0.00143289657909
0.0065 0.0185 0.000945877249959
0.0065 0.0195 0.000707751049795
0.0065 0.0205 0.000508907523224
0.0065 0.0215 0.000298050492576
0.0065 0.0225 0.000147945187356
0.0065 0.0235 8.01720309245e-05
0.0065 0.0245 4.72981093537e-05
0.0065 0.0255 3.22944165906e-05
0.0065 0.0265 2.51311047926e-05
0.0065 0.0275 2.09484609225e-05
0.0065 0.0285 1.80694435339e-05
0.0065 0.0295 1.56019656931e-05
0.0065 0.0305 1.66835765037e-05
0.0065 0.0315 9.81172982217e-06
0.0075 -0.0315 3.73444053324e-06
0.0075 -0.0305 6.8740617058e-06
0.0075 -0.0295 7.99904430182e-06
0.0075 -0.0285 1.23120430726e-05
0.0075 -0.0275 2.19685698336e-05
0.0075 -0.0265 4.84703608045e-05
0.0075 -0.0255 0.000134999277341
0.0075 -0.0245 0.000410416373032
0.0075 -0.0235 0.0011942020133
0.0075 -0.0225 0.00358160252503
0.0075 -0.0215 0.00901017149435
0.0075 -0.0205 0.0159039188564
0.0075 -0.0195 0.0199066602694
0.0075 -0.0185 0.0188294279965
0.0075 -0.0175 0.0139514060492
0.0075 -0.0165 0.00820400161848
0.0075 -0.0155 0.0040421215214
0.0075 -0.0145 0.00191454628027
0.0075 -0.0135 0.00100941004112
0.0075 -0.0125 0.00059234017471
0.0075 -0.0115 0.00039907867076
0.0075 -0.0105 0.000349040195043
0.0075 -0.0095 0.000347962758386
0.0075 -0.0085 0.000370843828089
0.0075 -0.0075 0.000413474970872
0.0075 -0.0065 0.000487754904623
0.0075 -0.0055 0.00065238064414
0.0075 -0.0045 0.00124852665149
0.0075 -0.0035 0.00269269752938
0.0075 -0.0025 0.00379866074297
0.0075 -0.0015 0.00304391541187
0.0075 -0.0005 0.00163304559488
0.0075 0.0005 0.0010533728072
0.0075 0.0015 0.000936654028713
0.0075 0.0025 0.000858539834035
0.0075 0.0035 0.000835384631854
0.0075 0.0045 0.000893762377406
0.0075 0.0055 0.00107212702155
0.0075 0.0065 0.00141699342566
0.0075 0.0075 0.00211187631007
0.0075 0.0085 0.00428491413139
0.0075 0.0095 0.00948492923774
0.0075 0.0105 0.0168468503376
0.0075 0.0115 0.0225759527008
0.0075 0.0125 0.0239849456067
0.0075 0.0135 0.0204380147403
0.0075 0.0145 0.0134382982241
0.0075 0.0155 0.00754384795825
0.0075 0.0165 0.00531824402833
0.0075 0.0175 0.00450334654177
0.0075 0.0185 0.00358710453129
0.0075 0.0195 0.00255465164501
0.0075 0.0205 0.00162620120339
0.0075 0.0215 0.000896756522875
0.0075 0.0225 0.000405657972537
0.0075 0.0235 0.000166218518297
0.0075 0.0245 8.04377830205e-05
0.0075 0.0255 4.74074827736e-05
0.0075 0.0265 3.23244367151e-05
0.0075 0.0275 2.4106045235e-05
0.0075 0.0285 1.92501997456e-05
0.0075 0.0295 1.59522726174e-05
0.0075 0.0305 1.70899373218e-05
0.0075 0.0315 1.01443433803e-05
0.0085 -0.0315 4.37187197165e-06
0.0085 -0.0305 8.37344575024e-06
0.0085 -0.0295 1.08827157235e-05
0.0085 -0.0285 1.8578058945e-05
0.0085 -0.0275 3.63131081431e-05
0.0085 -0.0265 8.27052138059e-05
0.0085 -0.0255 0.000255845368868
0.0085 -0.0245 0.00077832436882
0.0085 -0.0235 0.00223631118327
0.0085 -0.0225 0.00620774739969
0.0085 -0.0215 0.0129901127604
0.0085 -0.0205 0.0190212925649
0.0085 -0.0195 0.0202388669708
0.0085 -0.0185 0.01613726906
0.0085 -0.0175 0.00963737162685
0.0085 -0.0165 0.00440765187528
0.0085 -0.0155 0.00176738360643
0.0085 -0.0145 0.000752030722969
0.0085 -0.0135 0.000379762273416
0.0085 -0.0125 0.000225777030944
0.0085 -0.0115 0.00015372824104
0.0085 -0.0105 0.000143733290447
0.0085 -0.0095 0.000155197547085
0.0085 -0.0085 0.000176945949697
0.0085 -0.0075 0.000209553971994
0.0085 -0.0065 0.000265628017666
0.0085 -0.0055 0.000402182628874
0.0085 -0.0045 0.00087583928624
0.0085 -0.0035 0.00238562014519
0.0085 -0.0025 0.00365210148278
0.0085 -0.0015 0.00263327593823
0.0085 -0.0005 0.00105148747149
0.0085 0.0005 0.000494659411762
0.0085 0.0015 0.000322933879356
0.0085 0.0025 0.000255822995383
0.0085 0.0035 0.000233210036849
0.0085 0.0045 0.000251465317616
0.0085 0.0055 0.000352821096669
0.0085 0.0065 0.000565227321163
0.0085 0.0075 0.000897286600356
0.0085 0.0085 0.00187784972231
0.0085 0.0095 0.00546259535304
0.0085 0.0105 0.0125383812769
0.0085 0.0115 0.019740998912
0.0085 0.0125 0.0228615041792
0.0085 0.0135 0.0206335460129
0.0085 0.0145 0.014562676051
0.0085 0.0155 0.00949639947916
0.0085 0.0165 0.00864723838047
0.0085 0.0175 0.00887596951957
0.0085 0.0185 0.00828849598749
0.0085 0.0195 0.00659197905266
0.0085 0.0205 0.00427930477072
0.0085 0.0215 0.00220984848385
0.0085 0.0225 0.000901163074181
0.0085 0.0235 0.000318739516905
0.0085 0.0245 0.000141281175507
0.0085 0.0255 7.70756881065e-05
0.0085 0.0265 4.65010658947e-05
0.0085 0.0275 3.05217742034e-05
0.0085 0.0285 2.1986457514e-05
0.0085 0.0295 1.70687548126e-05
0.0085 0.0305 1.7928735143e-05
0.0085 0.0315 1.06557416904e-05
0.0095 -0.0315 5.46615743338e-06
0.0095 -0.0305 1.11935058181e-05
0.0095 -0.0295 1.67501829896e-05
0.0095 -0.0285 3.25863789842e-05
0.0095 -0.0275 6.98439645225e-05
0.0095 -0.0265 0.000176345634614
0.0095 -0.0255 0.000509508602333
0.0095 -0.0245 0.00142848763932
0.0095 -0.0235 0.00405162910118
0.0095 -0.0225 0.00968023039682
0.0095 -0.0215 0.016630023487
0.0095 -0.0205 0.0204731085974
0.0095 -0.0195 0.0185191802461
0.0095 -0.0185 0.0122044717899
0.0095 -0.0175 0.00580361011604
0.0095 -0.0165 0.00218204981048
0.0095 -0.0155 0.000796764686644
0.0095 -0.0145 0.00030864907486
0.0095 -0.0135 0.000158456649411
0.0095 -0.0125 0.000110948965739
0.0095 -0.0115 8.91096622461e-05
0.0095 -0.0105 8.34298972033e-05
0.0095 -0.0095 8.86998628752e-05
0.0095 -0.0085 0.000100871125928
0.0095 -0.0075 0.000122145286048
0.0095 -0.0065 0.000164563643149
0.0095 -0.0055 0.000281605550396
0.0095 -0.0045 0.000622470921118
0.0095 -0.0035 0.00208315968325
0.0095 -0.0025 0.00352516559179
0.0095 -0.0015 0.00245245601405
0.0095 -0.0005 0.000804489277565
0.0095 0.0005 0.000338039359585
0.0095 0.0015 0.000170766461622
0.0095 0.0025 0.000112801261598
0.0095 0.0035 9.49785806268e-05
0.0095 0.0045 0.000104703800021
0.0095 0.0055 0.000146855373249
0.0095 0.0065 0.000262395552013
0.0095 0.0075 0.000478124469267
0.0095 0.0085 0.00106320921247
0.0095 0.0095 0.00363238249284
0.0095 0.0105 0.00986097161577
0.0095 0.0115 0.0173574108812
0.0095 0.0125 0.0211805781539
0.0095 0.0135 0.019289931649
0.0095 0.0145 0.0132187215237
0.0095 0.0155 0.00833272562565
0.0095 0.0165 0.00804660304807
0.0095 0.0175 0.00889851553042
0.0095 0.0185 0.00987347318666
0.0095 0.0195 0.00987990702133
0.0095 0.0205 0.00799928922534
0.0095 0.0215 0.00462763088855
0.0095 0.0225 0.0017793731993
0.0095 0.0235 0.000611756924954
0.0095 0.0245 0.000291403002816
0.0095 0.0255 0.000145558737478
0.0095 0.0265 7.83378814991e-05
0.0095 0.0275 4.54571879152e-05
0.0095 0.0285 2.86459450682e-05
0.0095 0.0295 2.00371609378e-05
0.0095 0.0305 1.98169097546e-05
0.0095 0.0315 1.16135691101e-05
0.0105 -0.0315 7.80975978196e-06
0.0105 -0.0305 1.71761172749e-05
0.0105 -0.0295 2.86696982426e-05
0.0105 -0.0285 6.32566111627e-05
0.0105 -0.0275 0.000164793744257
0.0105 -0.0265 0.000430928089512
0.0105 -0.0255 0.00106587136044
0.0105 -0.0245 0.00275713334387
0.0105 -0.0235 0.0069104117372
0.0105 -0.0225 0.0134425377942
0.0105 -0.0215 0.0190390761053
0.0105 -0.0205 0.0199540504466
0.0105 -0.0195 0.0152959979616
0.0105 -0.0185 0.00823430354361
0.0105 -0.0175 0.00321414808835
0.0105 -0.0165 0.0011363074486
0.0105 -0.0155 0.000416926614035
0.0105 -0.0145 0.00016807061294
0.0105 -0.0135 9.87340932391e-05
0.0105 -0.0125 7.16038599914e-05
0.0105 -0.0115 6.0251422999e-05
0.0105 -0.0105 5.64414145166e-05
0.0105 -0.0095 5.84623188179e-05
0.0105 -0.0085 6.59128932721e-05
0.0105 -0.0075 8.24075659918e-05
0.0105 -0.0065 0.000120550481087
0.0105 -0.0055 0.000229153163513
0.0105 -0.0045 0.000553059674902
0.0105 -0.0035 0.00198209811567
0.0105 -0.0025 0.00367789408115
0.0105 -0.0015 0.00283670497076
0.0105 -0.0005 0.000976914140422
0.0105 0.0005 0.00031867007712
0.0105 0.0015 0.000128644651529
0.0105 0.0025 7.14903954187e-05
0.0105 0.0035 5.59316889029e-05
0.0105 0.0045 6.05964635892e-05
0.0105 0.0055 8.81290108983e-05
0.0105 0.0065 0.00016971181186
0.0105 0.0075 0.000349383735449
0.0105 0.0085 0.000893161231039
0.0105 0.0095 0.00322550932171
0.0105 0.0105 0.00903548147798
0.0105 0.0115 0.0162903642986
0.0105 0.0125 0.0199664388007
0.0105 0.0135 0.0176178370817
0.0105 0.0145 0.0107663450814
0.0105 0.0155 0.00524038645538
0.0105 0.0165 0.00423371733418
0.0105 0.0175 0.00460815632014
0.0105 0.0185 0.00653722929663
0.0105 0.0195 0.00912694244515
0.0105 0.0205 0.0103719753404
0.0105 0.0215 0.00817690940154
0.0105 0.0225 0.00415135471706
0.0105 0.0235 0.0016652899603
0.0105 0.0245 0.000747986615024
0.0105 0.0255 0.000321982873546
0.0105 0.0265 0.000162585438059
0.0105 0.0275 8.21727684451e-05
0.0105 0.0285 4.42467860421e-05
0.0105 0.0295 2.71209901669e-05
0.0105 0.0305 2.38792438111e-05
0.0105 0.0315 1.3510518496e-05
0.0115 -0.0315 1.36849820409e-05
0.0115 -0.0305 3.11338118356e-05
0.0115 -0.0295 5.63066000807e-05
0.0115 -0.0285 0.000127841805218
0.0115 -0.0275 0.000371562971892
0.0115 -0.0265 0.000968600877201
0.0115 -0.0255 0.00227544677371
0.0115 -0.0245 0.00529573978792
0.0115 -0.0235 0.0106495465954
0.0115 -0.0225 0.016499196013
0.0115 -0.0215 0.0195616758902
0.0115 -0.0205 0.0176516925325
0.0115 -0.0195 0.0114423723412
0.0115 -0.0185 0.00511113036167
0.0115 -0.0175 0.00179240709489
0.0115 -0.0165 0.000664655239328
0.0115 -0.0155 0.000274036524054
0.0115 -0.0145 0.000132848660925
0.0115 -0.0135 7.88102864094e-05
0.0115 -0.0125 5.64280648808e-05
0.0115 -0.0115 4.69541874618e-05
0.0115 -0.0105 4.40060455354e-05
0.0115 -0.0095 4.53589067983e-05
0.0115 -0.0085 5.14553739814e-05
0.0115 -0.0075 6.71600932824e-05
0.0115 -0.0065 0.000106738030013
0.0115 -0.0055 0.000219129425092
0.0115 -0.0045 0.000550237899493
0.0115 -0.0035 0.00193833824927
0.0115 -0.0025 0.00390880268067
0.0115 -0.0015 0.00337161732307
0.0115 -0.0005 0.00125813649701
0.0115 0.0005 0.000338078317956
0.0115 0.0015 0.000120375058042
0.0115 0.0025 5.92617528779e-05
0.0115 0.0035 4.546979201e-05
0.0115 0.0045 5.08816723812e-05
0.0115 0.0055 7.53653960823e-05
0.0115 0.0065 0.000154409310294
0.0115 0.0075 0.000379093072665
0.0115 0.0085 0.00108530684393
0.0115 0.0095 0.0037594376613
0.0115 0.0105 0.00975876191724
0.0115 0.0115 0.0166328824843
0.0115 0.0125 0.0195218030319
0.0115 0.0135 0.0161108601539
0.0115 0.0145 0.00854896556991
0.0115 0.0155 0.00309873380464
0.0115 0.0165 0.00188965724694
0.0115 0.0175 0.0017581886642
0.0115 0.0185 0.00300080352474
0.0115 0.0195 0.00581832430215
0.0115 0.0205 0.00950094856819
0.0115 0.0215 0.0108396490668
0.0115 0.0225 0.00819970369825
0.0115 0.0235 0.00445613765508
0.0115 0.0245 0.0020370783082
0.0115 0.0255 0.000911975240882
0.0115 0.0265 0.000421956921295
0.0115 0.0275 0.000172783782872
0.0115 0.0285 8.12026058844e-05
0.0115 0.0295 4.30123893538e-05
0.0115 0.0305 3.21125302217e-05
0.0115 0.0315 1.68437290212e-05
0.0125 -0.0315 2.86354436868e-05
0.0125 -0.0305 6.88014464636e-05
0.0125 -0.0295 0.000128207212069
0.0125 -0.0285 0.000324132371825
0.0125 -0.0275 0.000895418592882
0.0125 -0.0265 0.00224075084796
0.0125 -0.0255 0.00493196984131
0.0125 -0.0245 0.00929999051189
0.0125 -0.0235 0.0143382554174
0.0125 -0.0225 0.0178281418612
0.0125 -0.0215 0.0179805312613
0.0125 -0.0205 0.0140503042284
0.0125 -0.0195 0.00783356038389
0.0125 -0.0185 0.00320829394641
0.0125 -0.0175 0.00126393460336
0.0125 -0.0165 0.000533549082219
0.0125 -0.0155 0.000233296732449
0.0125 -0.0145 0.000125040582705
0.0125 -0.0135 7.48280341561e-05
0.0125 -0.0125 5.23348504821e-05
0.0125 -0.0115 4.28794425847e-05
0.0125 -0.0105 3.99192902244e-05
0.0125 -0.0095 4.10692113243e-05
0.0125 -0.0085 4.71528402994e-05
0.0125 -0.0075 6.42395600424e-05
0.0125 -0.0065 0.000110138101028
0.0125 -0.0055 0.000241731270663
0.0125 -0.0045 0.000604884050648
0.0125 -0.0035 0.00200759539966
0.0125 -0.0025 0.00409221679684
0.0125 -0.0015 0.00359763048859
0.0125 -0.0005 0.00133387926627
0.0125 0.0005 0.000337807770147
0.0125 0.0015 0.000119183839212
0.0125 0.0025 5.72732143637e-05
0.0125 0.0035 4.57415577092e-05
0.0125 0.0045 5.57387398277e-05
0.0125 0.0055 8.8910211714e-05
0.0125 0.0065 0.000192232892291
0.0125 0.0075 0.000504393498764
0.0125 0.0085 0.00154666804359
0.0125 0.0095 0.00497100649726
0.0125 0.0105 0.0114900075309
0.0125 0.0115 0.0177992069144
0.0125 0.0125 0.0192236223116
0.0125 0.0135 0.0142089091869
0.0125 0.0145 0.00651513688031
0.0125 0.0155 0.00216233317907
0.0125 0.0165 0.00127254423303
0.0125 0.0175 0.000915674424347
0.0125 0.0185 0.00128612826507
0.0125 0.0195 0.00279487129276
0.0125 0.0205 0.00614652228657
0.0125 0.0215 0.00999586646327
0.0125 0.0225 0.011015930276
0.0125 0.0235 0.00850428000147
0.0125 0.0245 0.00496223322241
0.0125 0.0255 0.00245035193227
0.0125 0.0265 0.00110286044658
0.0125 0.0275 0.000433598302594
0.0125 0.0285 0.000165863190156
0.0125 0.0295 7.86588428995e-05
0.0125 0.0305 5.20272995427e-05
0.0125 0.0315 2.51575045147e-05
0.0135 -0.0315 6.65282002268e-05
0.0135 -0.0305 0.000183211696865
0.0135 -0.0295 0.000386660940149
0.0135 -0.0285 0.000932899053279
0.0135 -0.0275 0.00237067363444
0.0135 -0.0265 0.00532841130375
0.0135 -0.0255 0.00960072492684
0.0135 -0.0245 0.0138893937056
0.0135 -0.0235 0.0165851724265
0.0135 -0.0225 0.0167748533263
0.0135 -0.0215 0.0143357869196
0.0135 -0.0205 0.00975654778426
0.0135 -0.0195 0.00529850926895
0.0135 -0.0185 0.00286650047782
0.0135 -0.0175 0.00155240217742
0.0135 -0.0165 0.000697505189088
0.0135 -0.0155 0.000285604996417
0.0135 -0.0145 0.000143822316991
0.0135 -0.0135 8.43152757623e-05
0.0135 -0.0125 5.72100945207e-05
0.0135 -0.0115 4.5259336845e-05
0.0135 -0.0105 4.08195841186e-05
0.0135 -0.0095 4.11604093215e-05
0.0135 -0.0085 4.73568203679e-05
0.0135 -0.0075 6.64520688957e-05
0.0135 -0.0065 0.000120750336388
0.0135 -0.0055 0.000286758646077
0.0135 -0.0045 0.000807445303253
0.0135 -0.0035 0.00241505335813
0.0135 -0.0025 0.00435842090065
0.0135 -0.0015 0.00356087182964
0.0135 -0.0005 0.00125949065243
0.0135 0.0005 0.000321141485993
0.0135 0.0015 0.000117203243912
0.0135 0.0025 5.96775392801e-05
0.0135 0.0035 5.1979546877e-05
0.0135 0.0045 6.87885213417e-05
0.0135 0.0055 0.000113966670686
0.0135 0.0065 0.000249589936547
0.0135 0.0075 0.000686317860169
0.0135 0.0085 0.00224786078418
0.0135 0.0095 0.00666691456237
0.0135 0.0105 0.013668571324
0.0135 0.0115 0.018976929673
0.0135 0.0125 0.0182772702387
0.0135 0.0135 0.0116163327484
0.0135 0.0145 0.0045045778442
0.0135 0.0155 0.00154450954121
0.0135 0.0165 0.00093074302391
0.0135 0.0175 0.000574127613485
0.0135 0.0185 0.000623010917392
0.0135 0.0195 0.00119824252755
0.0135 0.0205 0.00296765292039
0.0135 0.0215 0.00646422175162
0.0135 0.0225 0.0100427483923
0.0135 0.0235 0.011011186438
0.0135 0.0245 0.00891056805223
0.0135 0.0255 0.00552959722209
0.0135 0.0265 0.00266726720964
0.0135 0.0275 0.00100911998162
0.0135 0.0285 0.000364169482517
0.0135 0.0295 0.000173441618226
0.0135 0.0305 0.000104196333306
0.0135 0.0315 4.79034041827e-05
0.0145 -0.0315 0.000182809200721
0.0145 -0.0305 0.000489386474294
0.0145 -0.0295 0.00105248335717
0.0145 -0.0285 0.00257714874241
0.0145 -0.0275 0.00588754610316
0.0145 -0.0265 0.0106657578656
0.0145 -0.0255 0.0149576765042
0.0145 -0.0245 0.016933198454
0.0145 -0.0235 0.0160715342643
0.0145 -0.0225 0.0130692321941
0.0145 -0.0215 0.00912936723189
0.0145 -0.0205 0.00584494758949
0.0145 -0.0195 0.00468632429257
0.0145 -0.0185 0.0040883893588
0.0145 -0.0175 0.00269788818693
0.0145 -0.0165 0.00118998615983
0.0145 -0.0155 0.000444087172156
0.0145 -0.0145 0.000214581852728
0.0145 -0.0135 0.000117227974285
0.0145 -0.0125 7.52163395066e-05
0.0145 -0.0115 5.53571276511e-05
0.0145 -0.0105 4.64612550945e-05
0.0145 -0.0095 4.44002501847e-05
0.0145 -0.0085 5.00998257174e-05
0.0145 -0.0075 7.07898252644e-05
0.0145 -0.0065 0.000131889893548
0.0145 -0.0055 0.000320936998932
0.0145 -0.0045 0.00102281254415
0.0145 -0.0035 0.00294290835879
0.0145 -0.0025 0.00461348361184
0.0145 -0.0015 0.00337704268135
0.0145 -0.0005 0.00114359537538
0.0145 0.0005 0.000304030933897
0.0145 0.0015 0.000116591556804
0.0145 0.0025 6.52062426271e-05
0.0145 0.0035 6.40756083743e-05
0.0145 0.0045 9.3213255227e-05
0.0145 0.0055 0.000154112653442
0.0145 0.0065 0.000323974988726