% Model:              Benchmark260518.mph
% Version:            COMSOL 6.2.0.339
% Date:               May 19 2026, 16:37
% Dimension:          2
% Nodes:              4096
% Expressions:        1
% Description:        速度大小
% Length unit:        m
% x                       y                        spf.U (m/s)
5.0E-4                    -0.0315                  1.3147265258237E-6
5.0E-4                    -0.0305                  2.612944525831367E-6
5.0E-4                    -0.0295                  2.8948864966677383E-6
5.0E-4                    -0.0285                  3.210715723574712E-6
5.0E-4                    -0.0275                  3.367793973602581E-6
5.0E-4                    -0.0265                  3.508795005063483E-6
5.0E-4                    -0.0255                  3.619993852715036E-6
5.0E-4                    -0.0245                  3.716798249943988E-6
5.0E-4                    -0.0235                  3.801787455197024E-6
5.0E-4                    -0.0225                  3.880053203757241E-6
5.0E-4                    -0.0215                  3.950856839435784E-6
5.0E-4                    -0.0205                  4.014255122721635E-6
5.0E-4                    -0.0195                  4.073791902076304E-6
5.0E-4                    -0.0185                  4.128128635267879E-6
5.0E-4                    -0.0175                  4.1810860747073765E-6
5.0E-4                    -0.0165                  4.241773579202698E-6
5.0E-4                    -0.0155                  4.314873510555835E-6
5.0E-4                    -0.0145                  4.41287494526855E-6
5.0E-4                    -0.0135                  4.550608798042747E-6
5.0E-4                    -0.0125                  4.748146295033773E-6
5.0E-4                    -0.0115                  5.038195316159742E-6
5.0E-4                    -0.0105                  5.467425297074086E-6
5.0E-4                    -0.0095                  6.1425768772770045E-6
5.0E-4                    -0.0085                  7.285781976287033E-6
5.0E-4                    -0.0075                  9.584726006083251E-6
5.0E-4                    -0.0065                  1.7126728086012733E-5
5.0E-4                    -0.0055                  4.316086225290144E-5
5.0E-4                    -0.0045                  1.313618303273593E-4
5.0E-4                    -0.0035                  2.788768137999851E-4
5.0E-4                    -0.0025                  4.0059637687923856E-4
5.0E-4                    -0.0015                  5.396875473372975E-4
5.0E-4                    -5.0E-4                  0.003004401766283041
5.0E-4                    5.0E-4                   0.012315002885355955
5.0E-4                    0.0015                   0.018824254845582995
5.0E-4                    0.0025                   0.01697247125090431
5.0E-4                    0.0035                   0.013335625144498953
5.0E-4                    0.0045                   0.008747778365178897
5.0E-4                    0.0055                   0.0045210671191308885
5.0E-4                    0.0065                   0.0017032798614698675
5.0E-4                    0.0075                   5.043031712508505E-4
5.0E-4                    0.0085                   1.9728181027254258E-4
5.0E-4                    0.0095                   1.6409328937937263E-4
5.0E-4                    0.0105                   5.89279224785124E-4
5.0E-4                    0.0115                   0.002262794928539783
5.0E-4                    0.0125                   0.0057817142948727186
5.0E-4                    0.0135                   0.009702639991581758
5.0E-4                    0.0145                   0.01147951084992417
5.0E-4                    0.0155                   0.006886842749863129
5.0E-4                    0.0165                   0.0013473837664187483
5.0E-4                    0.0175                   3.0046046774170486E-4
5.0E-4                    0.0185                   7.844828616197974E-5
5.0E-4                    0.0195                   2.7332102060967874E-5
5.0E-4                    0.0205                   1.2681028650572032E-5
5.0E-4                    0.0215                   7.583071221455772E-6
5.0E-4                    0.0225                   5.89879905588887E-6
5.0E-4                    0.0235                   5.12966667505602E-6
5.0E-4                    0.0245                   4.6930147676369956E-6
5.0E-4                    0.0255                   4.454574338991746E-6
5.0E-4                    0.0265                   4.265715585050476E-6
5.0E-4                    0.0275                   4.068577147590491E-6
5.0E-4                    0.0285                   3.872315396560893E-6
5.0E-4                    0.0295                   3.5099515215569734E-6
5.0E-4                    0.0305                   3.175115764116526E-6
5.0E-4                    0.0315                   1.5911717983001657E-6
0.0015                    -0.0315                  2.565014112472054E-6
0.0015                    -0.0305                  5.022130386541223E-6
0.0015                    -0.0295                  5.315868316959788E-6
0.0015                    -0.0285                  5.646130475128266E-6
0.0015                    -0.0275                  5.744167670443981E-6
0.0015                    -0.0265                  5.841646784201902E-6
0.0015                    -0.0255                  5.922453276455736E-6
0.0015                    -0.0245                  6.002396681865765E-6
0.0015                    -0.0235                  6.081428187070329E-6
0.0015                    -0.0225                  6.162108287183279E-6
0.0015                    -0.0215                  6.24128108579345E-6
0.0015                    -0.0205                  6.3167364376906325E-6
0.0015                    -0.0195                  6.389713111970411E-6
0.0015                    -0.0185                  6.458055520604209E-6
0.0015                    -0.0175                  6.52634103071786E-6
0.0015                    -0.0165                  6.606857244669347E-6
0.0015                    -0.0155                  6.7115920673823E-6
0.0015                    -0.0145                  6.863497728340389E-6
0.0015                    -0.0135                  7.0921380647404875E-6
0.0015                    -0.0125                  7.437052806109578E-6
0.0015                    -0.0115                  7.957856374257196E-6
0.0015                    -0.0105                  8.749491532917283E-6
0.0015                    -0.0095                  1.0023707416541345E-5
0.0015                    -0.0085                  1.230320900149597E-5
0.0015                    -0.0075                  1.7349615220858157E-5
0.0015                    -0.0065                  3.2539720330998925E-5
0.0015                    -0.0055                  8.218543381768443E-5
0.0015                    -0.0045                  2.4269843249067455E-4
0.0015                    -0.0035                  5.23220028977741E-4
0.0015                    -0.0025                  8.561849333617517E-4
0.0015                    -0.0015                  0.002112718762830077
0.0015                    -5.0E-4                  0.007961281375044562
0.0015                    5.0E-4                   0.016357428617753203
0.0015                    0.0015                   0.0192446420326132
0.0015                    0.0025                   0.01644920358069406
0.0015                    0.0035                   0.011777520486468983
0.0015                    0.0045                   0.006662972440265687
0.0015                    0.0055                   0.002836016322036341
0.0015                    0.0065                   9.610276768449844E-4
0.0015                    0.0075                   3.3329153983051996E-4
0.0015                    0.0085                   1.5522178047442653E-4
0.0015                    0.0095                   1.5050585452334653E-4
0.0015                    0.0105                   3.9155507306595474E-4
0.0015                    0.0115                   0.0012814941329975927
0.0015                    0.0125                   0.004051890359311839
0.0015                    0.0135                   0.008697526067627914
0.0015                    0.0145                   0.011474887278886558
0.0015                    0.0155                   0.00832229877487337
0.0015                    0.0165                   0.0030321267018090774
0.0015                    0.0175                   6.851957818832787E-4
0.0015                    0.0185                   1.8270222662809712E-4
0.0015                    0.0195                   6.346061461117442E-5
0.0015                    0.0205                   2.7109626457336507E-5
0.0015                    0.0215                   1.4646092417999038E-5
0.0015                    0.0225                   1.0213450814754995E-5
0.0015                    0.0235                   8.436056873856629E-6
0.0015                    0.0245                   7.631847221130276E-6
0.0015                    0.0255                   7.275106245449856E-6
0.0015                    0.0265                   7.079824222906448E-6
0.0015                    0.0275                   6.927793399482629E-6
0.0015                    0.0285                   6.811199206725928E-6
0.0015                    0.0295                   6.447341282447272E-6
0.0015                    0.0305                   6.116990443637581E-6
0.0015                    0.0315                   3.12421859016202E-6
0.0025                    -0.0315                  2.7422139594710724E-6
0.0025                    -0.0305                  5.1471376995918785E-6
0.0025                    -0.0295                  5.126302370772517E-6
0.0025                    -0.0285                  5.279898606342872E-6
0.0025                    -0.0275                  5.196754206908047E-6
0.0025                    -0.0265                  5.1086394392484705E-6
0.0025                    -0.0255                  5.026842708586213E-6
0.0025                    -0.0245                  4.9697682194065795E-6
0.0025                    -0.0235                  4.936444914049957E-6
0.0025                    -0.0225                  4.924585242713881E-6
0.0025                    -0.0215                  4.92967949015797E-6
0.0025                    -0.0205                  4.946629461789313E-6
0.0025                    -0.0195                  4.970294271504717E-6
0.0025                    -0.0185                  4.997622637144075E-6
0.0025                    -0.0175                  5.029309827798239E-6
0.0025                    -0.0165                  5.072530480360152E-6
0.0025                    -0.0155                  5.143808483105591E-6
0.0025                    -0.0145                  5.2691094054367296E-6
0.0025                    -0.0135                  5.484211926959512E-6
0.0025                    -0.0125                  5.834858737757841E-6
0.0025                    -0.0115                  6.384968157306173E-6
0.0025                    -0.0105                  7.252471219072965E-6
0.0025                    -0.0095                  8.716720745410632E-6
0.0025                    -0.0085                  1.1574476617505035E-5
0.0025                    -0.0075                  1.8274286568934718E-5
0.0025                    -0.0065                  3.611595397583591E-5
0.0025                    -0.0055                  8.746001845795112E-5
0.0025                    -0.0045                  2.3427024184350008E-4
0.0025                    -0.0035                  5.86640745745402E-4
0.0025                    -0.0025                  0.0013212920928705216
0.0025                    -0.0015                  0.004460657698137825
0.0025                    -5.0E-4                  0.011493226024299525
0.0025                    5.0E-4                   0.01797242584553124
0.0025                    0.0015                   0.018735985927350256
0.0025                    0.0025                   0.014809136196873211
0.0025                    0.0035                   0.009349622664161847
0.0025                    0.0045                   0.004485529238205091
0.0025                    0.0055                   0.0016704181429613367
0.0025                    0.0065                   5.625454337187845E-4
0.0025                    0.0075                   2.0463480463503648E-4
0.0025                    0.0085                   1.0785414265448812E-4
0.0025                    0.0095                   1.1862051350485542E-4
0.0025                    0.0105                   3.181060218013979E-4
0.0025                    0.0115                   9.960043556883854E-4
0.0025                    0.0125                   0.0030760996955943344
0.0025                    0.0135                   0.007488646047475434
0.0025                    0.0145                   0.01121594840003253
0.0025                    0.0155                   0.009348636059401349
0.0025                    0.0165                   0.004271225246241454
0.0025                    0.0175                   0.001248400539476473
0.0025                    0.0185                   3.599923381155647E-4
0.0025                    0.0195                   1.1317553586732894E-4
0.0025                    0.0205                   4.3214941336372285E-5
0.0025                    0.0215                   1.941038640525306E-5
0.0025                    0.0225                   1.0889511498453543E-5
0.0025                    0.0235                   7.722571141598417E-6
0.0025                    0.0245                   6.582414593005503E-6
0.0025                    0.0255                   6.220532904157242E-6
0.0025                    0.0265                   6.179208640456993E-6
0.0025                    0.0275                   6.258252084464556E-6
0.0025                    0.0285                   6.377969538966331E-6
0.0025                    0.0295                   6.230374690997145E-6
0.0025                    0.0305                   6.311525662877959E-6
0.0025                    0.0315                   3.380923537329103E-6
0.0035                    -0.0315                  3.0053823932649265E-6
0.0035                    -0.0305                  5.395970594436428E-6
0.0035                    -0.0295                  5.212808473326346E-6
0.0035                    -0.0285                  5.513711233995553E-6
0.0035                    -0.0275                  5.51746374943367E-6
0.0035                    -0.0265                  5.461241499146337E-6
0.0035                    -0.0255                  5.369949684843033E-6
0.0035                    -0.0245                  5.289197128484279E-6
0.0035                    -0.0235                  5.229280806734972E-6
0.0035                    -0.0225                  5.194312603211386E-6
0.0035                    -0.0215                  5.182160100067816E-6
0.0035                    -0.0205                  5.187880716604296E-6
0.0035                    -0.0195                  5.2048805722786215E-6
0.0035                    -0.0185                  5.226646903484702E-6
0.0035                    -0.0175                  5.249586295371365E-6
0.0035                    -0.0165                  5.2771449512980725E-6
0.0035                    -0.0155                  5.324415152320134E-6
0.0035                    -0.0145                  5.4218971085100305E-6
0.0035                    -0.0135                  5.6166653918621655E-6
0.0035                    -0.0125                  5.974309590607011E-6
0.0035                    -0.0115                  6.595073961078863E-6
0.0035                    -0.0105                  7.673431018934906E-6
0.0035                    -0.0095                  9.674014369781465E-6
0.0035                    -0.0085                  1.3792573257849572E-5
0.0035                    -0.0075                  2.3244406426766885E-5
0.0035                    -0.0065                  4.617748042911135E-5
0.0035                    -0.0055                  1.0384551349757089E-4
0.0035                    -0.0045                  2.5430194710836257E-4
0.0035                    -0.0035                  7.636722809821677E-4
0.0035                    -0.0025                  0.0023936393840849105
0.0035                    -0.0015                  0.007241499416712642
0.0035                    -5.0E-4                  0.014534414065067447
0.0035                    5.0E-4                   0.018881942503559315
0.0035                    0.0015                   0.017403302287684937
0.0035                    0.0025                   0.01222913526207923
0.0035                    0.0035                   0.006624876335491547
0.0035                    0.0045                   0.002734338871742433
0.0035                    0.0055                   9.494938866076225E-4
0.0035                    0.0065                   3.1947168893185996E-4
0.0035                    0.0075                   1.2967459953989842E-4
0.0035                    0.0085                   7.451713719943126E-5
0.0035                    0.0095                   8.420164436450627E-5
0.0035                    0.0105                   2.0305455972012085E-4
0.0035                    0.0115                   6.683460446233492E-4
0.0035                    0.0125                   0.0022196944165471313
0.0035                    0.0135                   0.006075524307792701
0.0035                    0.0145                   0.010529592910381018
0.0035                    0.0155                   0.01058911842271797
0.0035                    0.0165                   0.006206966128718175
0.0035                    0.0175                   0.0023555765916929323
0.0035                    0.0185                   7.705378699706539E-4
0.0035                    0.0195                   2.451130258935352E-4
0.0035                    0.0205                   8.070003784716931E-5
0.0035                    0.0215                   3.178490473910862E-5
0.0035                    0.0225                   1.5107590001883507E-5
0.0035                    0.0235                   9.38352191972853E-6
0.0035                    0.0245                   7.400305750339885E-6
0.0035                    0.0255                   6.770047074769956E-6
0.0035                    0.0265                   6.647462119843068E-6
0.0035                    0.0275                   6.669990233601795E-6
0.0035                    0.0285                   6.688738042119667E-6
0.0035                    0.0295                   6.370412271122124E-6
0.0035                    0.0305                   6.661437547956986E-6
0.0035                    0.0315                   3.7307616089176425E-6
0.0045                    -0.0315                  3.169151869678476E-6
0.0045                    -0.0305                  5.490785892702037E-6
0.0045                    -0.0295                  5.0976130521021315E-6
0.0045                    -0.0285                  5.4771611323449185E-6
0.0045                    -0.0275                  5.6049564222847736E-6
0.0045                    -0.0265                  5.644505503385974E-6
0.0045                    -0.0255                  5.601094792599778E-6
0.0045                    -0.0245                  5.536569698531753E-6
0.0045                    -0.0235                  5.477288356563781E-6
0.0045                    -0.0225                  5.437970998997808E-6
0.0045                    -0.0215                  5.42258551113743E-6
0.0045                    -0.0205                  5.42914688437665E-6
0.0045                    -0.0195                  5.451330503537838E-6
0.0045                    -0.0185                  5.4804577858565315E-6
0.0045                    -0.0175                  5.508354402320763E-6
0.0045                    -0.0165                  5.532362193661014E-6
0.0045                    -0.0155                  5.5629174557398494E-6
0.0045                    -0.0145                  5.632521721520804E-6
0.0045                    -0.0135                  5.8040900555178345E-6
0.0045                    -0.0125                  6.181148383846066E-6
0.0045                    -0.0115                  6.939363334416044E-6
0.0045                    -0.0105                  8.430413309673816E-6
0.0045                    -0.0095                  1.1462302738394046E-5
0.0045                    -0.0085                  1.801800072522347E-5
0.0045                    -0.0075                  3.309148637472918E-5
0.0045                    -0.0065                  6.97768960430101E-5
0.0045                    -0.0055                  1.5868402167201748E-4
0.0045                    -0.0045                  3.8033577888259404E-4
0.0045                    -0.0035                  0.0011650431403263466
0.0045                    -0.0025                  0.00415659118725526
0.0045                    -0.0015                  0.0106680110315228
0.0045                    -5.0E-4                  0.01731995038087472
0.0045                    5.0E-4                   0.019011176318057384
0.0045                    0.0015                   0.015183207155704917
0.0045                    0.0025                   0.009123650830202489
0.0045                    0.0035                   0.004182375917746326
0.0045                    0.0045                   0.0015536870794722567
0.0045                    0.0055                   5.425296542271911E-4
0.0045                    0.0065                   1.895804843030423E-4
0.0045                    0.0075                   8.180846334466389E-5
0.0045                    0.0085                   5.188962966765983E-5
0.0045                    0.0095                   5.863309576047288E-5
0.0045                    0.0105                   1.236171164288112E-4
0.0045                    0.0115                   4.1691130699167455E-4
0.0045                    0.0125                   0.0014410024291705
0.0045                    0.0135                   0.00438673789973504
0.0045                    0.0145                   0.009075874321584082
0.0045                    0.0155                   0.011261667008928026
0.0045                    0.0165                   0.00842061994391812
0.0045                    0.0175                   0.004043349323379788
0.0045                    0.0185                   0.0014643902052520524
0.0045                    0.0195                   5.03434466902345E-4
0.0045                    0.0205                   1.5919422008688593E-4
0.0045                    0.0215                   5.142117680208478E-5
0.0045                    0.0225                   2.1017429267224013E-5
0.0045                    0.0235                   1.1600882145023338E-5
0.0045                    0.0245                   8.37397689826249E-6
0.0045                    0.0255                   7.278354884786906E-6
0.0045                    0.0265                   6.951551784626874E-6
0.0045                    0.0275                   6.818747869781809E-6
0.0045                    0.0285                   6.68278339580394E-6
0.0045                    0.0295                   6.271640504669127E-6
0.0045                    0.0305                   6.81967666181656E-6
0.0045                    0.0315                   3.9536330289312065E-6
0.0055                    -0.0315                  3.318811802077866E-6
0.0055                    -0.0305                  5.594067601724879E-6
0.0055                    -0.0295                  4.990302682507362E-6
0.0055                    -0.0285                  5.389184013837371E-6
0.0055                    -0.0275                  5.606032937753829E-6
0.0055                    -0.0265                  5.755152506692272E-6
0.0055                    -0.0255                  5.795417872932976E-6
0.0055                    -0.0245                  5.782465932390608E-6
0.0055                    -0.0235                  5.751260412323951E-6
0.0055                    -0.0225                  5.727502609298851E-6
0.0055                    -0.0215                  5.7234117096653504E-6
0.0055                    -0.0205                  5.742357007253469E-6
0.0055                    -0.0195                  5.780635896258426E-6
0.0055                    -0.0185                  5.829300249679182E-6
0.0055                    -0.0175                  5.876626384613928E-6
0.0055                    -0.0165                  5.913183644036129E-6
0.0055                    -0.0155                  5.94167539377687E-6
0.0055                    -0.0145                  5.993479259859261E-6
0.0055                    -0.0135                  6.152570872789517E-6
0.0055                    -0.0125                  6.589236059952716E-6
0.0055                    -0.0115                  7.629849613732093E-6
0.0055                    -0.0105                  9.935494880610245E-6
0.0055                    -0.0095                  1.5021944192771544E-5
0.0055                    -0.0085                  2.6455456677943295E-5
0.0055                    -0.0075                  5.419974273280136E-5
0.0055                    -0.0065                  1.25256908688686E-4
0.0055                    -0.0055                  3.406748367897906E-4
0.0055                    -0.0045                  8.453845693334347E-4
0.0055                    -0.0035                  0.002339451347614831
0.0055                    -0.0025                  0.007109308658522463
0.0055                    -0.0015                  0.014678241440937094
0.0055                    -5.0E-4                  0.019493028530739514
0.0055                    5.0E-4                   0.01798668179302519
0.0055                    0.0015                   0.012087863329793955
0.0055                    0.0025                   0.006043084010477575
0.0055                    0.0035                   0.0023913159518758552
0.0055                    0.0045                   8.540507965392067E-4
0.0055                    0.0055                   3.052078740156429E-4
0.0055                    0.0065                   1.212678005498135E-4
0.0055                    0.0075                   5.730928908628476E-5
0.0055                    0.0085                   3.699776283327434E-5
0.0055                    0.0095                   4.16004925236171E-5
0.0055                    0.0105                   8.379725908932016E-5
0.0055                    0.0115                   2.491509405486254E-4
0.0055                    0.0125                   8.469540836939812E-4
0.0055                    0.0135                   0.0027676189270212826
0.0055                    0.0145                   0.006925348150995535
0.0055                    0.0155                   0.010767279566827126
0.0055                    0.0165                   0.010256735789068789
0.0055                    0.0175                   0.006193015174048419
0.0055                    0.0185                   0.0025440201261994404
0.0055                    0.0195                   8.657045904726837E-4
0.0055                    0.0205                   2.648282346224837E-4
0.0055                    0.0215                   7.477561776800262E-5
0.0055                    0.0225                   2.8946860239570214E-5
0.0055                    0.0235                   1.4622926133728154E-5
0.0055                    0.0245                   9.645167640506843E-6
0.0055                    0.0255                   7.8551369069051E-6
0.0055                    0.0265                   7.2148717404708755E-6
0.0055                    0.0275                   6.885353663674221E-6
0.0055                    0.0285                   6.6281888029679886E-6
0.0055                    0.0295                   6.191369990390445E-6
0.0055                    0.0305                   7.007273515745977E-6
0.0055                    0.0315                   4.175158298187987E-6
0.0065                    -0.0315                  3.4457927335840808E-6
0.0065                    -0.0305                  5.687459662975033E-6
0.0065                    -0.0295                  4.8879066486815666E-6
0.0065                    -0.0285                  5.263960264648285E-6
0.0065                    -0.0275                  5.518930388938918E-6
0.0065                    -0.0265                  5.748002313819193E-6
0.0065                    -0.0255                  5.8709320401882575E-6
0.0065                    -0.0245                  5.923257533857768E-6
0.0065                    -0.0235                  5.93600925268856E-6
0.0065                    -0.0225                  5.940535274597467E-6
0.0065                    -0.0215                  5.956654540486446E-6
0.0065                    -0.0205                  5.994316074519716E-6
0.0065                    -0.0195                  6.054462267707138E-6
0.0065                    -0.0185                  6.130446472387592E-6
0.0065                    -0.0175                  6.209877848216678E-6
0.0065                    -0.0165                  6.279154783445121E-6
0.0065                    -0.0155                  6.334748418703905E-6
0.0065                    -0.0145                  6.407957901647479E-6
0.0065                    -0.0135                  6.612564972679842E-6
0.0065                    -0.0125                  7.2276488280019886E-6
0.0065                    -0.0115                  8.844180689471737E-6
0.0065                    -0.0105                  1.2717016040685812E-5
0.0065                    -0.0095                  2.164368693847092E-5
0.0065                    -0.0085                  4.283171259752013E-5
0.0065                    -0.0075                  9.690318121346276E-5
0.0065                    -0.0065                  2.5895498690026256E-4
0.0065                    -0.0055                  7.391238522279949E-4