% Model:              Benchmark260518.mph
% Version:            COMSOL 6.2.0.339
% Date:               May 19 2026, 13:33
% Dimension:          2
% Nodes:              4096
% Expressions:        1
% Description:        速度大小
% Length unit:        m
% x                       y                        spf.U (m/s)
5.0E-4                    -0.0315                  2.0091198602075735E-6
5.0E-4                    -0.0305                  4.091171240302384E-6
5.0E-4                    -0.0295                  4.6547408913527705E-6
5.0E-4                    -0.0285                  5.2512062495756325E-6
5.0E-4                    -0.0275                  5.6405251926905355E-6
5.0E-4                    -0.0265                  5.93967239203113E-6
5.0E-4                    -0.0255                  6.150675441295542E-6
5.0E-4                    -0.0245                  6.3644964458238695E-6
5.0E-4                    -0.0235                  6.5953163513876284E-6
5.0E-4                    -0.0225                  6.898678933647484E-6
5.0E-4                    -0.0215                  7.404776246702035E-6
5.0E-4                    -0.0205                  8.701582304201213E-6
5.0E-4                    -0.0195                  1.3412645661277068E-5
5.0E-4                    -0.0185                  2.8412915576644457E-5
5.0E-4                    -0.0175                  6.929280039519367E-5
5.0E-4                    -0.0165                  1.558859792379623E-4
5.0E-4                    -0.0155                  2.6441533955462275E-4
5.0E-4                    -0.0145                  3.1717300201382825E-4
5.0E-4                    -0.0135                  2.945355138322104E-4
5.0E-4                    -0.0125                  3.903865467544381E-4
5.0E-4                    -0.0115                  0.0010144969039118333
5.0E-4                    -0.0105                  0.0021564535445055127
5.0E-4                    -0.0095                  0.0035881306514983845
5.0E-4                    -0.0085                  0.004955827564271509
5.0E-4                    -0.0075                  0.005887991665647361
5.0E-4                    -0.0065                  0.006134110762098589
5.0E-4                    -0.0055                  0.0056350802020821555
5.0E-4                    -0.0045                  0.0045010796155371385
5.0E-4                    -0.0035                  0.002939298720635573
5.0E-4                    -0.0025                  0.0013872463440723919
5.0E-4                    -0.0015                  0.0016495590246458193
5.0E-4                    -5.0E-4                  0.002929541260762012
5.0E-4                    5.0E-4                   0.003562848922004822
5.0E-4                    0.0015                   0.0034054095166093285
5.0E-4                    0.0025                   0.0027517965668824346
5.0E-4                    0.0035                   0.0036538992038450463
5.0E-4                    0.0045                   0.02608957902997821
5.0E-4                    0.0055                   0.04972274011624652
5.0E-4                    0.0065                   0.05554123065519878
5.0E-4                    0.0075                   0.05474286397558361
5.0E-4                    0.0085                   0.04930879516869075
5.0E-4                    0.0095                   0.03955311419663055
5.0E-4                    0.0105                   0.027336075727958032
5.0E-4                    0.0115                   0.011867107301791503
5.0E-4                    0.0125                   0.001395348972166165
5.0E-4                    0.0135                   8.915330009247512E-4
5.0E-4                    0.0145                   6.676637717983841E-4
5.0E-4                    0.0155                   3.4365622358556664E-4
5.0E-4                    0.0165                   1.4132827329626173E-4
5.0E-4                    0.0175                   1.2144345070621078E-4
5.0E-4                    0.0185                   7.946939288282113E-5
5.0E-4                    0.0195                   3.6786446950673896E-5
5.0E-4                    0.0205                   1.7866224686882345E-5
5.0E-4                    0.0215                   9.811774917536875E-6
5.0E-4                    0.0225                   6.581621171839454E-6
5.0E-4                    0.0235                   5.592173868575191E-6
5.0E-4                    0.0245                   5.314513040150921E-6
5.0E-4                    0.0255                   5.095795558656202E-6
5.0E-4                    0.0265                   4.8965413481403314E-6
5.0E-4                    0.0275                   4.681932784644966E-6
5.0E-4                    0.0285                   4.360564525512601E-6
5.0E-4                    0.0295                   3.921000756413462E-6
5.0E-4                    0.0305                   3.592230829411706E-6
5.0E-4                    0.0315                   1.7998159906043354E-6
0.0015                    -0.0315                  3.917985615522092E-6
0.0015                    -0.0305                  7.902474365030366E-6
0.0015                    -0.0295                  8.689932032869265E-6
0.0015                    -0.0285                  9.389191286159499E-6
0.0015                    -0.0275                  9.696329792813098E-6
0.0015                    -0.0265                  9.912006113772296E-6
0.0015                    -0.0255                  1.0057699691759878E-5
0.0015                    -0.0245                  1.0250281796191282E-5
0.0015                    -0.0235                  1.0542227420936168E-5
0.0015                    -0.0225                  1.1065632582865311E-5
0.0015                    -0.0215                  1.217459146235158E-5
0.0015                    -0.0205                  1.5169251953375393E-5
0.0015                    -0.0195                  2.4627158470757736E-5
0.0015                    -0.0185                  5.358645601480193E-5
0.0015                    -0.0175                  1.335283506227879E-4
0.0015                    -0.0165                  2.9939894583902015E-4
0.0015                    -0.0155                  5.194902861503769E-4
0.0015                    -0.0145                  7.3265885078802E-4
0.0015                    -0.0135                  0.0011849461709459036
0.0015                    -0.0125                  0.0027935180441336182
0.0015                    -0.0115                  0.005878049378729111
0.0015                    -0.0105                  0.009845692618829224
0.0015                    -0.0095                  0.013920412229891488
0.0015                    -0.0085                  0.01734054247741474
0.0015                    -0.0075                  0.01961053400131182
0.0015                    -0.0065                  0.020502630934448585
0.0015                    -0.0055                  0.01999777673695087
0.0015                    -0.0045                  0.018199735285099987
0.0015                    -0.0035                  0.015240006983847233
0.0015                    -0.0025                  0.011310740936054865
0.0015                    -0.0015                  0.0068595842988343385
0.0015                    -5.0E-4                  0.0028543559319073293
0.0015                    5.0E-4                   0.0013884027846492208
0.0015                    0.0015                   0.0022522069694707156
0.0015                    0.0025                   0.0023195868099511927
0.0015                    0.0035                   0.012389014565516228
0.0015                    0.0045                   0.03314724801966
0.0015                    0.0055                   0.04865430451357779
0.0015                    0.0065                   0.05231254854712799
0.0015                    0.0075                   0.05102752012516999
0.0015                    0.0085                   0.04625754488030438
0.0015                    0.0095                   0.038053725013108074
0.0015                    0.0105                   0.027765171876162283
0.0015                    0.0115                   0.01544101703946372
0.0015                    0.0125                   0.0047300880544869865
0.0015                    0.0135                   8.191155696913315E-4
0.0015                    0.0145                   0.0013164883808481926
0.0015                    0.0155                   9.9873340517746E-4
0.0015                    0.0165                   4.7624792246649567E-4
0.0015                    0.0175                   2.4802720684867453E-4
0.0015                    0.0185                   1.5865368715449612E-4
0.0015                    0.0195                   7.885025779791895E-5
0.0015                    0.0205                   3.826624413186594E-5
0.0015                    0.0215                   2.0006432817409182E-5
0.0015                    0.0225                   1.2595920536416266E-5
0.0015                    0.0235                   9.953258988404749E-6
0.0015                    0.0245                   9.047218621474417E-6
0.0015                    0.0255                   8.624706465539432E-6
0.0015                    0.0265                   8.400983352599792E-6
0.0015                    0.0275                   8.24261241403317E-6
0.0015                    0.0285                   8.015425105343348E-6
0.0015                    0.0295                   7.532971708859722E-6
0.0015                    0.0305                   7.032269700393766E-6
0.0015                    0.0315                   3.53164323063892E-6
0.0025                    -0.0315                  3.985094439980009E-6
0.0025                    -0.0305                  7.935513149963395E-6
0.0025                    -0.0295                  8.564578818224538E-6
0.0025                    -0.0285                  9.011294895870742E-6
0.0025                    -0.0275                  8.902184131090179E-6
0.0025                    -0.0265                  8.700649032372464E-6
0.0025                    -0.0255                  8.50024931477282E-6
0.0025                    -0.0245                  8.401317688774079E-6
0.0025                    -0.0235                  8.515192689831236E-6
0.0025                    -0.0225                  9.056819081568038E-6
0.0025                    -0.0215                  1.0576649872766449E-5
0.0025                    -0.0205                  1.4671232404876125E-5
0.0025                    -0.0195                  2.5795558020433446E-5
0.0025                    -0.0185                  5.712720138556132E-5
0.0025                    -0.0175                  1.4333346117456687E-4
0.0025                    -0.0165                  3.524301909807698E-4
0.0025                    -0.0155                  7.21050284086318E-4
0.0025                    -0.0145                  0.0015636746089392616
0.0025                    -0.0135                  0.004170661680662143
0.0025                    -0.0125                  0.009256498850002709
0.0025                    -0.0115                  0.015567272913386438
0.0025                    -0.0105                  0.021572694371671676
0.0025                    -0.0095                  0.02640135229891912
0.0025                    -0.0085                  0.02984344100813302
0.0025                    -0.0075                  0.03207298273010174
0.0025                    -0.0065                  0.03333455993383722
0.0025                    -0.0055                  0.0337793005446848
0.0025                    -0.0045                  0.033367319977860105
0.0025                    -0.0035                  0.0318664613576962
0.0025                    -0.0025                  0.028951861687000858
0.0025                    -0.0015                  0.02453779768149113
0.0025                    -5.0E-4                  0.019228780934912662
0.0025                    5.0E-4                   0.014276383614097717
0.0025                    0.0015                   0.011587191718207537
0.0025                    0.0025                   0.014073999938407
0.0025                    0.0035                   0.02393978525767145
0.0025                    0.0045                   0.03734720119385651
0.0025                    0.0055                   0.045763492466156526
0.0025                    0.0065                   0.04715481933442617
0.0025                    0.0075                   0.0454672769123834
0.0025                    0.0085                   0.04174139244333761
0.0025                    0.0095                   0.03587451931090439
0.0025                    0.0105                   0.02862771198280396
0.0025                    0.0115                   0.0198475615262034
0.0025                    0.0125                   0.010697802104626375
0.0025                    0.0135                   0.0038106830270232895
0.0025                    0.0145                   4.4985809045906345E-4
0.0025                    0.0155                   0.0011752250355182828
0.0025                    0.0165                   8.574121367866133E-4
0.0025                    0.0175                   3.3966908081349496E-4
0.0025                    0.0185                   1.8455780162296537E-4
0.0025                    0.0195                   1.0596152117298042E-4
0.0025                    0.0205                   4.978134019380405E-5
0.0025                    0.0215                   2.4807564445034066E-5
0.0025                    0.0225                   1.445165049953742E-5
0.0025                    0.0235                   1.0131543857257445E-5
0.0025                    0.0245                   8.439401379516407E-6
0.0025                    0.0255                   7.873445571015072E-6
0.0025                    0.0265                   7.799969767416446E-6
0.0025                    0.0275                   7.924684268521567E-6
0.0025                    0.0285                   8.065773604044497E-6
0.0025                    0.0295                   7.76266650649314E-6
0.0025                    0.0305                   7.226001398802549E-6
0.0025                    0.0315                   3.6386011257403673E-6
0.0035                    -0.0315                  4.096056409102863E-6
0.0035                    -0.0305                  8.030866859659593E-6
0.0035                    -0.0295                  8.776831039135135E-6
0.0035                    -0.0285                  9.563151681903044E-6
0.0035                    -0.0275                  9.632695797975513E-6
0.0035                    -0.0265                  9.475251063950457E-6
0.0035                    -0.0255                  9.252842542447427E-6
0.0035                    -0.0245                  9.146162058537124E-6
0.0035                    -0.0235                  9.345918380742715E-6
0.0035                    -0.0225                  1.0201665216943508E-5
0.0035                    -0.0215                  1.2489536127578788E-5
0.0035                    -0.0205                  1.819883659473266E-5
0.0035                    -0.0195                  3.294241291450304E-5
0.0035                    -0.0185                  7.389577486876579E-5
0.0035                    -0.0175                  1.8808355213966195E-4
0.0035                    -0.0165                  5.481560156575718E-4
0.0035                    -0.0155                  0.001453264381554788
0.0035                    -0.0145                  0.004231046627043573
0.0035                    -0.0135                  0.010328154501443481
0.0035                    -0.0125                  0.018357180254029756
0.0035                    -0.0115                  0.025527694664751795
0.0035                    -0.0105                  0.030555220075634947
0.0035                    -0.0095                  0.03361556800453728
0.0035                    -0.0085                  0.03537467691034539
0.0035                    -0.0075                  0.036438299432248474
0.0035                    -0.0065                  0.03727847746410237
0.0035                    -0.0055                  0.03822771698830238
0.0035                    -0.0045                  0.03931368438252986
0.0035                    -0.0035                  0.0401490132517111
0.0035                    -0.0025                  0.04006577303262948
0.0035                    -0.0015                  0.038434680176307724
0.0035                    -5.0E-4                  0.03514170464491154
0.0035                    5.0E-4                   0.03110838193962787
0.0035                    0.0015                   0.028238735769572462
0.0035                    0.0025                   0.028709977810067906
0.0035                    0.0035                   0.03305064289756924
0.0035                    0.0045                   0.03846145734403723
0.0035                    0.0055                   0.04092470852950002
0.0035                    0.0065                   0.039912185873332444
0.0035                    0.0075                   0.037851905039811576
0.0035                    0.0085                   0.03568077010425036
0.0035                    0.0095                   0.03322084044766223
0.0035                    0.0105                   0.030248640087653746
0.0035                    0.0115                   0.02577545905090649
0.0035                    0.0125                   0.019375590639929132
0.0035                    0.0135                   0.012147000726073864
0.0035                    0.0145                   0.005857096809695385
0.0035                    0.0155                   0.0018939646855532601
0.0035                    0.0165                   9.17650757302675E-4
0.0035                    0.0175                   4.7866193574158466E-4
0.0035                    0.0185                   2.409110010784182E-4
0.0035                    0.0195                   1.4486452283440996E-4
0.0035                    0.0205                   6.83952363782501E-5
0.0035                    0.0215                   3.497250215577103E-5
0.0035                    0.0225                   1.988581820405882E-5
0.0035                    0.0235                   1.3166169951751339E-5
0.0035                    0.0245                   1.0382362864595162E-5
0.0035                    0.0255                   9.338329419067626E-6
0.0035                    0.0265                   9.054719810864297E-6
0.0035                    0.0275                   9.02939478453091E-6
0.0035                    0.0285                   8.93650388919599E-6
0.0035                    0.0295                   8.249962312557162E-6
0.0035                    0.0305                   7.487373038101545E-6
0.0035                    0.0315                   3.799946395314782E-6
0.0045                    -0.0315                  4.162722716670826E-6
0.0045                    -0.0305                  7.995298605087765E-6
0.0045                    -0.0295                  8.665718163525599E-6
0.0045                    -0.0285                  9.681997196743919E-6
0.0045                    -0.0275                  1.0036389667977256E-5
0.0045                    -0.0265                  1.01039573903697E-5
0.0045                    -0.0255                  1.0052665166280242E-5
0.0045                    -0.0245                  1.0142591830021856E-5
0.0045                    -0.0235                  1.0686362327208781E-5
0.0045                    -0.0225                  1.2231933045417054E-5
0.0045                    -0.0215                  1.5958973753490078E-5
0.0045                    -0.0205                  2.464335247674394E-5
0.0045                    -0.0195                  4.567834524913775E-5
0.0045                    -0.0185                  1.05833596145931E-4
0.0045                    -0.0175                  3.10767799598017E-4
0.0045                    -0.0165                  9.71402380209895E-4
0.0045                    -0.0155                  0.0031776730150636107
0.0045                    -0.0145                  0.00903971644320942
0.0045                    -0.0135                  0.018009061992714265
0.0045                    -0.0125                  0.026200938618748282
0.0045                    -0.0115                  0.03124361871090028
0.0045                    -0.0105                  0.03339433923066552
0.0045                    -0.0095                  0.033570451798375
0.0045                    -0.0085                  0.03252015912682299
0.0045                    -0.0075                  0.03114952011329802
0.0045                    -0.0065                  0.030472278558315635
0.0045                    -0.0055                  0.03114644640045605
0.0045                    -0.0045                  0.03327127776986113
0.0045                    -0.0035                  0.03641743329573647
0.0045                    -0.0025                  0.039655671031069144
0.0045                    -0.0015                  0.04180222283328076
0.0045                    -5.0E-4                  0.0419517616921185
0.0045                    5.0E-4                   0.04018943727177564
0.0045                    0.0015                   0.03780735608279836
0.0045                    0.0025                   0.03646183548981586
0.0045                    0.0035                   0.03646821247218978
0.0045                    0.0045                   0.03632422523395179
0.0045                    0.0055                   0.03435543866809084
0.0045                    0.0065                   0.030898061568939296
0.0045                    0.0075                   0.028363128970249566
0.0045                    0.0085                   0.0284408866806488
0.0045                    0.0095                   0.03055297368324183
0.0045                    0.0105                   0.032531391803245734
0.0045                    0.0115                   0.032328570812737205
0.0045                    0.0125                   0.02909104340406324
0.0045                    0.0135                   0.023133571968031064
0.0045                    0.0145                   0.01567288158881012
0.0045                    0.0155                   0.0083596219580055
0.0045                    0.0165                   0.003152922139594159
0.0045                    0.0175                   0.0010033617903198904
0.0045                    0.0185                   4.5969056544658307E-4
0.0045                    0.0195                   2.506927843032227E-4
0.0045                    0.0205                   1.1187696808179841E-4
0.0045                    0.0215                   5.302018601193145E-5
0.0045                    0.0225                   2.842668046294859E-5
0.0045                    0.0235                   1.7730347426325994E-5
0.0045                    0.0245                   1.2974027778688346E-5
0.0045                    0.0255                   1.1029004634781314E-5
0.0045                    0.0265                   1.0288199757820735E-5
0.0045                    0.0275                   9.922872189566573E-6
0.0045                    0.0285                   9.480807838384073E-6
0.0045                    0.0295                   8.48620971337798E-6
0.0045                    0.0305                   7.646632270112759E-6
0.0045                    0.0315                   3.927443414620225E-6
0.0055                    -0.0315                  4.245494842399163E-6
0.0055                    -0.0305                  8.036148396492537E-6
0.0055                    -0.0295                  8.623799872151556E-6
0.0055                    -0.0285                  9.792671512607595E-6
0.0055                    -0.0275                  1.0451096054191985E-5
0.0055                    -0.0265                  1.0914266889419982E-5
0.0055                    -0.0255                  1.13335919645095E-5
0.0055                    -0.0245                  1.205819503515923E-5
0.0055                    -0.0235                  1.3597253346823357E-5
0.0055                    -0.0225                  1.6867037019939736E-5
0.0055                    -0.0215                  2.3852334056283288E-5
0.0055                    -0.0205                  3.9347460958072935E-5
0.0055                    -0.0195                  7.672340863962559E-5
0.0055                    -0.0185                  1.7398673991466987E-4
0.0055                    -0.0175                  5.616808486580526E-4
0.0055                    -0.0165                  0.0018541195417086337
0.0055                    -0.0155                  0.006280061519684808
0.0055                    -0.0145                  0.015234622740339373
0.0055                    -0.0135                  0.024932412431282705
0.0055                    -0.0125                  0.030875114192282685
0.0055                    -0.0115                  0.032655631356852906
0.0055                    -0.0105                  0.03135653962996381
0.0055                    -0.0095                  0.02771927777308683
0.0055                    -0.0085                  0.023073163807449972
0.0055                    -0.0075                  0.019108999874536757
0.0055                    -0.0065                  0.01691541831267236
0.0055                    -0.0055                  0.016754677005857116
0.0055                    -0.0045                  0.01851809053349753
0.0055                    -0.0035                  0.02210694308066622
0.0055                    -0.0025                  0.02713188673632463
0.0055                    -0.0015                  0.0325320415043438
0.0055                    -5.0E-4                  0.03664434072786352
0.0055                    5.0E-4                   0.03824039255194468
0.0055                    0.0015                   0.037658535578501115
0.0055                    0.0025                   0.03616396680918367
0.0055                    0.0035                   0.03428327356833503
0.0055                    0.0045                   0.03130683893891127
0.0055                    0.0055                   0.02650036611942587
0.0055                    0.0065                   0.020817312477544266
0.0055                    0.0075                   0.01789600050645999
0.0055                    0.0085                   0.020908159732869372
0.0055                    0.0095                   0.027511031745491674
0.0055                    0.0105                   0.033499893904902135
0.0055                    0.0115                   0.03668714935078459
0.0055                    0.0125                   0.03656660679881857
0.0055                    0.0135                   0.03323192468555515
0.0055                    0.0145                   0.027027146100525028
0.0055                    0.0155                   0.018737436358652992
0.0055                    0.0165                   0.010162786256312478
0.0055                    0.0175                   0.00399655860281835
0.0055                    0.0185                   0.0013544148564419664
0.0055                    0.0195                   5.837231649715742E-4
0.0055                    0.0205                   2.3233715166694972E-4
0.0055                    0.0215                   9.152164222015875E-5
0.0055                    0.0225                   4.503678607453044E-5
0.0055                    0.0235                   2.544433670693367E-5
0.0055                    0.0245                   1.6992184665916377E-5
0.0055                    0.0255                   1.33985795678574E-5
0.0055                    0.0265                   1.1820525655372771E-5
0.0055                    0.0275                   1.093958110343711E-5
0.0055                    0.0285                   1.0119467315482212E-5
0.0055                    0.0295                   8.864644218308797E-6
0.0055                    0.0305                   7.925773538041424E-6
0.0055                    0.0315                   4.0870230605064234E-6
0.0065                    -0.0315                  4.34468770559891E-6
0.0065                    -0.0305                  8.137466847956432E-6
0.0065                    -0.0295                  8.664509603361409E-6
0.0065                    -0.0285                  9.974906340805237E-6
0.0065                    -0.0275                  1.0991055948212814E-5
0.0065                    -0.0265                  1.208198686537937E-5
0.0065                    -0.0255                  1.3488040218450473E-5
0.0065                    -0.0245                  1.578619049926083E-5
0.0065                    -0.0235                  1.9933651513537304E-5
0.0065                    -0.0225                  2.7560782277174093E-5
0.0065                    -0.0215                  4.230181507474941E-5
0.0065                    -0.0205                  7.44548683551725E-5
0.0065                    -0.0195                  1.54375066215282E-4
0.0065                    -0.0185                  3.7418323533202946E-4
0.0065                    -0.0175                  0.0010714824142649848
0.0065                    -0.0165                  0.00353828699938986
0.0065                    -0.0155                  0.010628001738083622
0.0065                    -0.0145                  0.021469472514432958
0.0065                    -0.0135                  0.0298160039100668
0.0065                    -0.0125                  0.03263549722841786
0.0065                    -0.0115                  0.030974353651470898
0.0065                    -0.0105                  0.02567486491162405
0.0065                    -0.0095                  0.018403699325238953
0.0065                    -0.0085                  0.011888844158820135
0.0065                    -0.0075                  0.007810812704873838
0.0065                    -0.0065                  0.006009331979167412
0.0065                    -0.0055                  0.005666851923913753
0.0065                    -0.0045                  0.006373611125056159