% Model:              Benchmark260518.mph
% Version:            COMSOL 6.2.0.339
% Date:               May 21 2026, 05:33
% Dimension:          2
% Nodes:              4096
% Expressions:        1
% Description:        速度大小
% Length unit:        m
% x                       y                        spf.U (m/s)
5.0E-4                    -0.0315                  1.0671423256901053E-6
5.0E-4                    -0.0305                  2.134339434486854E-6
5.0E-4                    -0.0295                  2.3779395324064525E-6
5.0E-4                    -0.0285                  2.6377823458231684E-6
5.0E-4                    -0.0275                  2.766612651447662E-6
5.0E-4                    -0.0265                  2.878874386962952E-6
5.0E-4                    -0.0255                  2.962085667884628E-6
5.0E-4                    -0.0245                  3.04550437509669E-6
5.0E-4                    -0.0235                  3.1287878890773803E-6
5.0E-4                    -0.0225                  3.1697781006432325E-6
5.0E-4                    -0.0215                  3.226495595973201E-6
5.0E-4                    -0.0205                  3.296028920121532E-6
5.0E-4                    -0.0195                  3.3630110846500607E-6
5.0E-4                    -0.0185                  3.4594366773224873E-6
5.0E-4                    -0.0175                  3.597157189634166E-6
5.0E-4                    -0.0165                  3.847307870559108E-6
5.0E-4                    -0.0155                  4.303966913486656E-6
5.0E-4                    -0.0145                  5.048486548423129E-6
5.0E-4                    -0.0135                  6.841875356227043E-6
5.0E-4                    -0.0125                  1.3022615517941256E-5
5.0E-4                    -0.0115                  3.4695987023219E-5
5.0E-4                    -0.0105                  1.2136908384789673E-4
5.0E-4                    -0.0095                  3.402912258568165E-4
5.0E-4                    -0.0085                  0.0010773349152692867
5.0E-4                    -0.0075                  0.005555534847491608
5.0E-4                    -0.0065                  0.010435104666844452
5.0E-4                    -0.0055                  0.011090202088936494
5.0E-4                    -0.0045                  0.009496565011270575
5.0E-4                    -0.0035                  0.006407610110262792
5.0E-4                    -0.0025                  0.003186766960372999
5.0E-4                    -0.0015                  0.0010871579535428205
5.0E-4                    -5.0E-4                  2.6250052533440644E-4
5.0E-4                    5.0E-4                   1.0080437313125989E-4
5.0E-4                    0.0015                   2.230903934312224E-4
5.0E-4                    0.0025                   8.650466902441419E-4
5.0E-4                    0.0035                   0.00260287607255051
5.0E-4                    0.0045                   0.005629357532220317
5.0E-4                    0.0055                   0.008776538222732997
5.0E-4                    0.0065                   0.010453859757368981
5.0E-4                    0.0075                   0.006714440438903285
5.0E-4                    0.0085                   0.0016765685437711458
5.0E-4                    0.0095                   5.293132996959043E-4
5.0E-4                    0.0105                   1.9476879353192217E-4
5.0E-4                    0.0115                   5.8227074020089784E-5
5.0E-4                    0.0125                   2.2607261261451227E-5
5.0E-4                    0.0135                   1.1738344173435269E-5
5.0E-4                    0.0145                   8.413615215826071E-6
5.0E-4                    0.0155                   6.9549214350254136E-6
5.0E-4                    0.0165                   6.076824181382061E-6
5.0E-4                    0.0175                   5.56396043317995E-6
5.0E-4                    0.0185                   5.228476008081858E-6
5.0E-4                    0.0195                   5.008358366937321E-6
5.0E-4                    0.0205                   4.857052965228724E-6
5.0E-4                    0.0215                   4.74234264711061E-6
5.0E-4                    0.0225                   4.641966313750157E-6
5.0E-4                    0.0235                   4.54980074263254E-6
5.0E-4                    0.0245                   4.455755446442168E-6
5.0E-4                    0.0255                   4.340563087995881E-6
5.0E-4                    0.0265                   4.20651749156427E-6
5.0E-4                    0.0275                   4.038460835579554E-6
5.0E-4                    0.0285                   3.857485704933997E-6
5.0E-4                    0.0295                   3.4789094439220838E-6
5.0E-4                    0.0305                   3.139354973122913E-6
5.0E-4                    0.0315                   1.5820933939282328E-6
0.0015                    -0.0315                  2.091988692033037E-6
0.0015                    -0.0305                  4.120312746483314E-6
0.0015                    -0.0295                  4.38994716604704E-6
0.0015                    -0.0285                  4.665966560845138E-6
0.0015                    -0.0275                  4.744694492294693E-6
0.0015                    -0.0265                  4.817778683002034E-6
0.0015                    -0.0255                  4.873422705516901E-6
0.0015                    -0.0245                  4.9408679496548624E-6
0.0015                    -0.0235                  5.014491241322695E-6
0.0015                    -0.0225                  5.054649035255938E-6
0.0015                    -0.0215                  5.11429928220602E-6
0.0015                    -0.0205                  5.194459126479327E-6
0.0015                    -0.0195                  5.287113050917377E-6
0.0015                    -0.0185                  5.436326812081049E-6
0.0015                    -0.0175                  5.6863416164048295E-6
0.0015                    -0.0165                  6.161151709565981E-6
0.0015                    -0.0155                  7.058452957345717E-6
0.0015                    -0.0145                  8.753631833245723E-6
0.0015                    -0.0135                  1.286717048751128E-5
0.0015                    -0.0125                  2.538517465666729E-5
0.0015                    -0.0115                  6.504439201739552E-5
0.0015                    -0.0105                  2.0407203568730011E-4
0.0015                    -0.0095                  6.087732293150918E-4
0.0015                    -0.0085                  0.002202616114524596
0.0015                    -0.0075                  0.006592614651680284
0.0015                    -0.0065                  0.01100357345664106
0.0015                    -0.0055                  0.011586473715211574
0.0015                    -0.0045                  0.008888473908411517
0.0015                    -0.0035                  0.004923660230286658
0.0015                    -0.0025                  0.00194670174979526
0.0015                    -0.0015                  6.341186055437377E-4
0.0015                    -5.0E-4                  2.0359740719016705E-4
0.0015                    5.0E-4                   8.947102440141676E-5
0.0015                    0.0015                   1.4606274501475006E-4
0.0015                    0.0025                   4.3596931976968493E-4
0.0015                    0.0035                   0.0014097060003435287
0.0015                    0.0045                   0.003942594268692137
0.0015                    0.0055                   0.007726432268543471
0.0015                    0.0065                   0.01029390933188786
0.0015                    0.0075                   0.008241470488015129
0.0015                    0.0085                   0.0036174789145143383
0.0015                    0.0095                   0.0011363512558740015
0.0015                    0.0105                   4.0538973719907964E-4
0.0015                    0.0115                   1.2096576300825318E-4
0.0015                    0.0125                   4.5677367319332126E-5
0.0015                    0.0135                   2.2362086024108152E-5
0.0015                    0.0145                   1.4676483248438449E-5
0.0015                    0.0155                   1.1443559624631717E-5
0.0015                    0.0165                   9.714722839235627E-6
0.0015                    0.0175                   8.730392077827788E-6
0.0015                    0.0185                   8.130645202020378E-6
0.0015                    0.0195                   7.765257708809072E-6
0.0015                    0.0205                   7.54107728485583E-6
0.0015                    0.0215                   7.396507343112048E-6
0.0015                    0.0225                   7.292188001276952E-6
0.0015                    0.0235                   7.212253128159596E-6
0.0015                    0.0245                   7.142266793356289E-6
0.0015                    0.0255                   7.062623362972128E-6
0.0015                    0.0265                   6.976845426162436E-6
0.0015                    0.0275                   6.8705783802740285E-6
0.0015                    0.0285                   6.767526475486218E-6
0.0015                    0.0295                   6.3784452830279816E-6
0.0015                    0.0305                   6.031141659796558E-6
0.0015                    0.0315                   3.0846666735302418E-6
0.0025                    -0.0315                  2.2377532183640682E-6
0.0025                    -0.0305                  4.236232890210605E-6
0.0025                    -0.0295                  4.2686444246345195E-6
0.0025                    -0.0285                  4.406937760770914E-6
0.0025                    -0.0275                  4.336330380480766E-6
0.0025                    -0.0265                  4.256402876881542E-6
0.0025                    -0.0255                  4.181972129681319E-6
0.0025                    -0.0245                  4.1292003899810495E-6
0.0025                    -0.0235                  4.094795129546871E-6
0.0025                    -0.0225                  4.079414825956666E-6
0.0025                    -0.0215                  4.079316204968745E-6
0.0025                    -0.0205                  4.101437806924828E-6
0.0025                    -0.0195                  4.162135175399404E-6
0.0025                    -0.0185                  4.298043622124493E-6
0.0025                    -0.0175                  4.589577406396589E-6
0.0025                    -0.0165                  5.1868867094965614E-6
0.0025                    -0.0155                  6.408913379731055E-6
0.0025                    -0.0145                  9.059830415273459E-6
0.0025                    -0.0135                  1.540173948931455E-5
0.0025                    -0.0125                  3.170421833105865E-5
0.0025                    -0.0115                  7.7282093573813E-5
0.0025                    -0.0105                  2.089206055129873E-4
0.0025                    -0.0095                  7.150690877097751E-4
0.0025                    -0.0085                  0.0027574178364447354
0.0025                    -0.0075                  0.007526697189667281
0.0025                    -0.0065                  0.011839040790758674
0.0025                    -0.0055                  0.011632051580884942
0.0025                    -0.0045                  0.007789686567102895
0.0025                    -0.0035                  0.003633396124561195
0.0025                    -0.0025                  0.001306601838455514
0.0025                    -0.0015                  4.506938593473371E-4
0.0025                    -5.0E-4                  1.5142318483261902E-4
0.0025                    5.0E-4                   6.887760247465248E-5
0.0025                    0.0015                   8.943171187908527E-5
0.0025                    0.0025                   2.861377862676117E-4
0.0025                    0.0035                   9.646671242211465E-4
0.0025                    0.0045                   0.0028673319370441865
0.0025                    0.0055                   0.006505017794776595
0.0025                    0.0065                   0.009778719385389035
0.0025                    0.0075                   0.008700552437908824
0.0025                    0.0085                   0.0044340926529035105
0.0025                    0.0095                   0.001555037906455456
0.0025                    0.0105                   5.320813721221232E-4
0.0025                    0.0115                   1.567658610153605E-4
0.0025                    0.0125                   5.863793398956764E-5
0.0025                    0.0135                   2.676805679661712E-5
0.0025                    0.0145                   1.5190001951512845E-5
0.0025                    0.0155                   1.039994272003666E-5
0.0025                    0.0165                   8.13607717998944E-6
0.0025                    0.0175                   6.928621885721195E-6
0.0025                    0.0185                   6.2617895351055E-6
0.0025                    0.0195                   5.9029369474402786E-6
0.0025                    0.0205                   5.730477325934536E-6
0.0025                    0.0215                   5.670895045616971E-6
0.0025                    0.0225                   5.6803049213934324E-6
0.0025                    0.0235                   5.733476112768611E-6
0.0025                    0.0245                   5.817355545958026E-6
0.0025                    0.0255                   5.925573432893823E-6
0.0025                    0.0265                   6.055742801986032E-6
0.0025                    0.0275                   6.187145510199352E-6
0.0025                    0.0285                   6.306231323876556E-6
0.0025                    0.0295                   6.1388698574265506E-6
0.0025                    0.0305                   6.180615836968522E-6
0.0025                    0.0315                   3.2985371503657036E-6
0.0035                    -0.0315                  2.4497727825366784E-6
0.0035                    -0.0305                  4.443184060179893E-6
0.0035                    -0.0295                  4.357038956629069E-6
0.0035                    -0.0285                  4.62313923082943E-6
0.0035                    -0.0275                  4.627115834693E-6
0.0035                    -0.0265                  4.572973920793407E-6
0.0035                    -0.0255                  4.487582544976052E-6
0.0035                    -0.0245                  4.41129443064563E-6
0.0035                    -0.0235                  4.353477607535827E-6
0.0035                    -0.0225                  4.316500231491264E-6
0.0035                    -0.0215                  4.300263908806737E-6
0.0035                    -0.0205                  4.30858667205618E-6
0.0035                    -0.0195                  4.360459950106605E-6
0.0035                    -0.0185                  4.5089866642864685E-6
0.0035                    -0.0175                  4.874228610441159E-6
0.0035                    -0.0165                  5.717745690501065E-6
0.0035                    -0.0155                  7.628960172322126E-6
0.0035                    -0.0145                  1.2047722358874822E-5
0.0035                    -0.0135                  2.2597872012771647E-5
0.0035                    -0.0125                  4.957499772609103E-5
0.0035                    -0.0115                  1.2307452202600292E-4
0.0035                    -0.0105                  3.6367338130844983E-4
0.0035                    -0.0095                  0.0011803237154040217
0.0035                    -0.0085                  0.003998884676882862
0.0035                    -0.0075                  0.009205919729829062
0.0035                    -0.0065                  0.012727797050297245
0.0035                    -0.0055                  0.011079241660167043
0.0035                    -0.0045                  0.006382215467567405
0.0035                    -0.0035                  0.002558381853894533
0.0035                    -0.0025                  8.49525942589707E-4
0.0035                    -0.0015                  2.807042925978042E-4
0.0035                    -5.0E-4                  9.979908211048846E-5
0.0035                    5.0E-4                   5.10092406230215E-5
0.0035                    0.0015                   6.618289956608312E-5
0.0035                    0.0025                   2.0382384067525606E-4
0.0035                    0.0035                   6.809624801633136E-4
0.0035                    0.0045                   0.0020729238288043792
0.0035                    0.0055                   0.005288658251243875
0.0035                    0.0065                   0.00917865583861317
0.0035                    0.0075                   0.009514764116933944
0.0035                    0.0085                   0.0055715898404286495
0.0035                    0.0095                   0.0019831977967295716
0.0035                    0.0105                   6.479819851197589E-4
0.0035                    0.0115                   2.2866733957789531E-4
0.0035                    0.0125                   8.804055755950519E-5
0.0035                    0.0135                   3.874925205869922E-5
0.0035                    0.0145                   2.0037098802678897E-5
0.0035                    0.0155                   1.2299262332762565E-5
0.0035                    0.0165                   8.83578126978606E-6
0.0035                    0.0175                   7.17865868690455E-6
0.0035                    0.0185                   6.365473375732241E-6
0.0035                    0.0195                   5.9873110779813416E-6
0.0035                    0.0205                   5.848079929943323E-6
0.0035                    0.0215                   5.843381020131373E-6
0.0035                    0.0225                   5.91467547868642E-6
0.0035                    0.0235                   6.029443089611831E-6
0.0035                    0.0245                   6.170206489844132E-6
0.0035                    0.0255                   6.323868365045748E-6
0.0035                    0.0265                   6.4767899512696284E-6
0.0035                    0.0275                   6.576170889514824E-6
0.0035                    0.0285                   6.593717429742436E-6
0.0035                    0.0295                   6.250164030481746E-6
0.0035                    0.0305                   6.482994295365039E-6
0.0035                    0.0315                   3.615597581641344E-6
0.0045                    -0.0315                  2.5947635221001826E-6
0.0045                    -0.0305                  4.534253637476506E-6
0.0045                    -0.0295                  4.271743180752643E-6
0.0045                    -0.0285                  4.608308413011791E-6
0.0045                    -0.0275                  4.718182229683504E-6
0.0045                    -0.0265                  4.743762766934357E-6
0.0045                    -0.0255                  4.695808298237861E-6
0.0045                    -0.0245                  4.62967554505338E-6
0.0045                    -0.0235                  4.569838261050197E-6
0.0045                    -0.0225                  4.529803767099492E-6
0.0045                    -0.0215                  4.514001254015869E-6
0.0045                    -0.0205                  4.528404508776428E-6
0.0045                    -0.0195                  4.5972197366134E-6
0.0045                    -0.0185                  4.795814242024916E-6
0.0045                    -0.0175                  5.316888993933812E-6
0.0045                    -0.0165                  6.618797821895975E-6
0.0045                    -0.0155                  9.805740808834649E-6
0.0045                    -0.0145                  1.751251263286051E-5
0.0045                    -0.0135                  3.686156764103121E-5
0.0045                    -0.0125                  8.803510778066432E-5
0.0045                    -0.0115                  2.486825372771911E-4
0.0045                    -0.0105                  7.416539210006555E-4
0.0045                    -0.0095                  0.002205934371710429
0.0045                    -0.0085                  0.006049055377537517
0.0045                    -0.0075                  0.01125272841559041
0.0045                    -0.0065                  0.01310548962889106
0.0045                    -0.0055                  0.009717866529249825
0.0045                    -0.0045                  0.004729107007415017
0.0045                    -0.0035                  0.001650157381117009
0.0045                    -0.0025                  4.99239427095033E-4
0.0045                    -0.0015                  1.513991445090469E-4
0.0045                    -5.0E-4                  5.943925272279708E-5
0.0045                    5.0E-4                   3.678526760292227E-5
0.0045                    0.0015                   5.023878641087485E-5
0.0045                    0.0025                   1.3608538184674775E-4
0.0045                    0.0035                   4.360916275278503E-4
0.0045                    0.0045                   0.001364925499784979
0.0045                    0.0055                   0.003921499879614604
0.0045                    0.0065                   0.008156036869562936
0.0045                    0.0075                   0.010286846318073934
0.0045                    0.0085                   0.00734905880904305
0.0045                    0.0095                   0.0030952130410732796
0.0045                    0.0105                   0.0010910083707026095
0.0045                    0.0115                   4.3759776040741674E-4
0.0045                    0.0125                   1.5140656868698634E-4
0.0045                    0.0135                   6.273480842523282E-5
0.0045                    0.0145                   2.9113513974713668E-5
0.0045                    0.0155                   1.5843340101302932E-5
0.0045                    0.0165                   1.0140322178399029E-5
0.0045                    0.0175                   7.648132536564879E-6
0.0045                    0.0185                   6.553576102070923E-6
0.0045                    0.0195                   6.111965465834434E-6
0.0045                    0.0205                   5.989114193334634E-6
0.0045                    0.0215                   6.026502822124891E-6
0.0045                    0.0225                   6.1425214049704475E-6
0.0045                    0.0235                   6.293703004876814E-6
0.0045                    0.0245                   6.455064179513064E-6
0.0045                    0.0255                   6.603049047220532E-6
0.0045                    0.0265                   6.706679601161395E-6
0.0045                    0.0275                   6.695195734219656E-6
0.0045                    0.0285                   6.564217602857884E-6
0.0045                    0.0295                   6.12418029574566E-6
0.0045                    0.0305                   6.597607462450347E-6
0.0045                    0.0315                   3.8088498119297726E-6
0.0055                    -0.0315                  2.711605373150644E-6
0.0055                    -0.0305                  4.615960341480957E-6
0.0055                    -0.0295                  4.191125372976247E-6
0.0055                    -0.0285                  4.548085238480501E-6
0.0055                    -0.0275                  4.735968671962808E-6
0.0055                    -0.0265                  4.854119407379702E-6
0.0055                    -0.0255                  4.873788710837764E-6
0.0055                    -0.0245                  4.845946831999477E-6
0.0055                    -0.0235                  4.804750807934619E-6
0.0055                    -0.0225                  4.776226391389716E-6
0.0055                    -0.0215                  4.775525401222679E-6
0.0055                    -0.0205                  4.816989600927644E-6
0.0055                    -0.0195                  4.936813706990763E-6
0.0055                    -0.0185                  5.248486691338607E-6
0.0055                    -0.0175                  6.065607930295028E-6
0.0055                    -0.0165                  8.181318652407575E-6
0.0055                    -0.0155                  1.3594096797957556E-5
0.0055                    -0.0145                  2.7676813896860885E-5
0.0055                    -0.0135                  6.509371786100761E-5
0.0055                    -0.0125                  1.7809999899602073E-4
0.0055                    -0.0115                  5.215272457989069E-4
0.0055                    -0.0105                  0.0014517420951918965
0.0055                    -0.0095                  0.003999915151701393
0.0055                    -0.0085                  0.008790655183232212
0.0055                    -0.0075                  0.012968808988622514
0.0055                    -0.0065                  0.012354346620565929
0.0055                    -0.0055                  0.0075510514055408305
0.0055                    -0.0045                  0.0030757730497820808
0.0055                    -0.0035                  9.93570997402054E-4
0.0055                    -0.0025                  2.90602197354791E-4
0.0055                    -0.0015                  8.603825459273298E-5
0.0055                    -5.0E-4                  3.867463807439153E-5
0.0055                    5.0E-4                   2.671791169451495E-5
0.0055                    0.0015                   3.568806011785484E-5
0.0055                    0.0025                   7.903328340351508E-5
0.0055                    0.0035                   2.3434083695405577E-4
0.0055                    0.0045                   7.669128032956809E-4
0.0055                    0.0055                   0.0024658783470167993
0.0055                    0.0065                   0.006364107558923838
0.0055                    0.0075                   0.010177259245472147
0.0055                    0.0085                   0.009492022539873309
0.0055                    0.0095                   0.005416207918286698
0.0055                    0.0105                   0.0022727096440920656
0.0055                    0.0115                   8.936552271138743E-4
0.0055                    0.0125                   3.0870144440384476E-4
0.0055                    0.0135                   1.1064522997208246E-4
0.0055                    0.0145                   4.6577772177375296E-5
0.0055                    0.0155                   2.2271167075343392E-5
0.0055                    0.0165                   1.2528951363130867E-5
0.0055                    0.0175                   8.535790892726477E-6
0.0055                    0.0185                   6.95298707220895E-6
0.0055                    0.0195                   6.382927649471102E-6
0.0055                    0.0205                   6.2531997154956596E-6
0.0055                    0.0215                   6.315175370020014E-6
0.0055                    0.0225                   6.45310535214471E-6
0.0055                    0.0235                   6.610408820081932E-6
0.0055                    0.0245                   6.7536702636915554E-6
0.0055                    0.0255                   6.84891689613471E-6
0.0055                    0.0265                   6.856942366781705E-6
0.0055                    0.0275                   6.71568080323857E-6
0.0055                    0.0285                   6.47649242564694E-6
0.0055                    0.0295                   6.0098310065574574E-6
0.0055                    0.0305                   6.725841497296469E-6
0.0055                    0.0315                   3.988085104267788E-6
0.0065                    -0.0315                  2.811563207970196E-6
0.0065                    -0.0305                  4.690459478455603E-6
0.0065                    -0.0295                  4.1122521442998366E-6
0.0065                    -0.0285                  4.455306075788301E-6
0.0065                    -0.0275                  4.680741838475759E-6
0.0065                    -0.0265                  4.869435111248087E-6
0.0065                    -0.0255                  4.957907628354136E-6
0.0065                    -0.0245                  4.979631161695121E-6
0.0065                    -0.0235                  4.967533726208747E-6
0.0065                    -0.0225                  4.957767851483212E-6
0.0065                    -0.0215                  4.980266207311846E-6
0.0065                    -0.0205                  5.067221181595784E-6
0.0065                    -0.0195                  5.2821976647665165E-6
0.0065                    -0.0185                  5.80404558905298E-6
0.0065                    -0.0175                  7.1424379107613845E-6
0.0065                    -0.0165                  1.0649737947173159E-5
0.0065                    -0.0155                  1.9844270389346657E-5
0.0065                    -0.0145                  4.5419745646761004E-5
0.0065                    -0.0135                  1.2571259594169242E-4
0.0065                    -0.0125                  3.680659724695737E-4
0.0065                    -0.0115                  0.001016343276421858
0.0065                    -0.0105                  0.0027625040492849215
0.0065                    -0.0095                  0.006623241596632712
0.0065                    -0.0085                  0.011477484230349113
0.0065                    -0.0075                  0.013401526276212501
0.0065                    -0.0065                  0.010238478325066275
0.0065                    -0.0055                  0.005030989646589812