% Model:              Benchmark260518.mph
% Version:            COMSOL 6.2.0.339
% Date:               May 19 2026, 13:34
% Dimension:          2
% Nodes:              4096
% Expressions:        1
% Description:        速度大小
% Length unit:        m
% x                       y                        spf.U (m/s)
% mirrored_by_python_y_to_minus_y, coord_match_decimals=12
0.0005 -0.0315 2.33011086176e-06
0.0005 -0.0305 4.59034319226e-06
0.0005 -0.0295 4.76937904524e-06
0.0005 -0.0285 5.0172562055e-06
0.0005 -0.0275 5.20103217666e-06
0.0005 -0.0265 5.40102449866e-06
0.0005 -0.0255 5.60556774577e-06
0.0005 -0.0245 5.81154864027e-06
0.0005 -0.0235 6.00555016881e-06
0.0005 -0.0225 6.17685916887e-06
0.0005 -0.0215 6.33040318218e-06
0.0005 -0.0205 6.52357442375e-06
0.0005 -0.0195 6.96099535939e-06
0.0005 -0.0185 8.25077369948e-06
0.0005 -0.0175 1.21218839179e-05
0.0005 -0.0165 2.35095882191e-05
0.0005 -0.0155 5.87217764151e-05
0.0005 -0.0145 0.000170269400947
0.0005 -0.0135 0.000339740804307
0.0005 -0.0125 0.00051787840876
0.0005 -0.0115 0.000964079681577
0.0005 -0.0105 0.00109195233617
0.0005 -0.0095 0.104386426763
0.0005 -0.0085 0.254417900809
0.0005 -0.0075 0.297226296201
0.0005 -0.0065 0.155619632771
0.0005 -0.0055 0.00715889893854
0.0005 -0.0045 0.00317336123991
0.0005 -0.0035 0.00115958953466
0.0005 -0.0025 0.000944829187995
0.0005 -0.0015 0.000519373446249
0.0005 -0.0005 0.000186314185073
0.0005 0.0005 7.5294616687e-05
0.0005 0.0015 3.85843342573e-05
0.0005 0.0025 2.56381632233e-05
0.0005 0.0035 2.10794656221e-05
0.0005 0.0045 1.92953843093e-05
0.0005 0.0055 1.82238764501e-05
0.0005 0.0065 1.71562287007e-05
0.0005 0.0075 1.59122658602e-05
0.0005 0.0085 1.4512551987e-05
0.0005 0.0095 1.30393942076e-05
0.0005 0.0105 1.15761718441e-05
0.0005 0.0115 1.01847384881e-05
0.0005 0.0125 8.90261659598e-06
0.0005 0.0135 7.74796805785e-06
0.0005 0.0145 6.72489120735e-06
0.0005 0.0155 5.82799545249e-06
0.0005 0.0165 5.04653090763e-06
0.0005 0.0175 4.36790177043e-06
0.0005 0.0185 3.78017356161e-06
0.0005 0.0195 3.273679422e-06
0.0005 0.0205 2.84192125222e-06
0.0005 0.0215 2.48157784082e-06
0.0005 0.0225 2.19139435173e-06
0.0005 0.0235 1.97018105384e-06
0.0005 0.0245 1.81430998502e-06
0.0005 0.0255 1.71592816612e-06
0.0005 0.0265 1.66222812863e-06
0.0005 0.0275 1.63790006212e-06
0.0005 0.0285 1.62620223441e-06
0.0005 0.0295 1.59659632169e-06
0.0005 0.0305 1.56465281174e-06
0.0005 0.0315 8.02673673897e-07
0.0015 -0.0315 4.5558945379e-06
0.0015 -0.0305 9.01759306335e-06
0.0015 -0.0295 9.44335609343e-06
0.0015 -0.0285 9.91549376053e-06
0.0015 -0.0275 1.01956116559e-05
0.0015 -0.0265 1.0569490977e-05
0.0015 -0.0255 1.09906334985e-05
0.0015 -0.0245 1.14428299894e-05
0.0015 -0.0235 1.18790355301e-05
0.0015 -0.0225 1.2258718621e-05
0.0015 -0.0215 1.25731696622e-05
0.0015 -0.0205 1.29180681159e-05
0.0015 -0.0195 1.36679374109e-05
0.0015 -0.0185 1.59292081735e-05
0.0015 -0.0175 2.2729275849e-05
0.0015 -0.0165 4.22102814234e-05
0.0015 -0.0155 9.98498761366e-05
0.0015 -0.0145 0.000267738786403
0.0015 -0.0135 0.000515284156891
0.0015 -0.0125 0.00083546607458
0.0015 -0.0115 0.00185597014195
0.0015 -0.0105 0.00198764717636
0.0015 -0.0095 0.10059918139
0.0015 -0.0085 0.248829520469
0.0015 -0.0075 0.295818471952
0.0015 -0.0065 0.171929060835
0.0015 -0.0055 0.0196682064008
0.0015 -0.0045 0.00772605280076
0.0015 -0.0035 0.00238420862792
0.0015 -0.0025 0.00164257694159
0.0015 -0.0015 0.000911247872483
0.0015 -0.0005 0.000351714545722
0.0015 0.0005 0.000151211610812
0.0015 0.0015 8.09895958025e-05
0.0015 0.0025 5.58300999499e-05
0.0015 0.0035 4.73647286088e-05
0.0015 0.0045 4.45292645048e-05
0.0015 0.0055 4.30236907904e-05
0.0015 0.0065 4.13124900081e-05
0.0015 0.0075 3.90052658512e-05
0.0015 0.0085 3.61691881797e-05
0.0015 0.0095 3.30169991703e-05
0.0015 0.0105 2.97654662953e-05
0.0015 0.0115 2.65824480253e-05
0.0015 0.0125 2.35780059177e-05
0.0015 0.0135 2.0811479697e-05
0.0015 0.0145 1.83033215498e-05
0.0015 0.0155 1.60480986092e-05
0.0015 0.0165 1.40263631631e-05
0.0015 0.0175 1.22134180114e-05
0.0015 0.0185 1.05851523656e-05
0.0015 0.0195 9.12217848066e-06
0.0015 0.0205 7.81250361016e-06
0.0015 0.0215 6.65238782718e-06
0.0015 0.0225 5.64583616623e-06
0.0015 0.0235 4.80355438251e-06
0.0015 0.0245 4.14012442155e-06
0.0015 0.0255 3.66790638325e-06
0.0015 0.0265 3.38421880301e-06
0.0015 0.0275 3.26198818732e-06
0.0015 0.0285 3.24811504611e-06
0.0015 0.0295 3.21359590239e-06
0.0015 0.0305 3.11559724708e-06
0.0015 0.0315 1.58720144189e-06
0.0025 -0.0315 4.66737088389e-06
0.0025 -0.0305 9.28225302653e-06
0.0025 -0.0295 1.00644457771e-05
0.0025 -0.0285 1.09611634717e-05
0.0025 -0.0275 1.14321621679e-05
0.0025 -0.0265 1.19907190325e-05
0.0025 -0.0255 1.26118918861e-05
0.0025 -0.0245 1.32824720659e-05
0.0025 -0.0235 1.39348074094e-05
0.0025 -0.0225 1.45058808329e-05
0.0025 -0.0215 1.4964880593e-05
0.0025 -0.0205 1.53907787848e-05
0.0025 -0.0195 1.614630948e-05
0.0025 -0.0185 1.82965471967e-05
0.0025 -0.0175 2.45574490981e-05
0.0025 -0.0165 4.13632804497e-05
0.0025 -0.0155 8.4064941763e-05
0.0025 -0.0145 0.000182850014294
0.0025 -0.0135 0.000353641936194
0.0025 -0.0125 0.000759655038935
0.0025 -0.0115 0.00221410374401
0.0025 -0.0105 0.00229490701863
0.0025 -0.0095 0.0946606186725
0.0025 -0.0085 0.241671315399
0.0025 -0.0075 0.293829493343
0.0025 -0.0065 0.187202297421
0.0025 -0.0055 0.0311504967516
0.0025 -0.0045 0.0111574556201
0.0025 -0.0035 0.00281530376937
0.0025 -0.0025 0.00162089782422
0.0025 -0.0015 0.00091239107972
0.0025 -0.0005 0.000395155357232
0.0025 0.0005 0.000185842296699
0.0025 0.0015 0.000105174251442
0.0025 0.0025 7.52807119342e-05
0.0025 0.0035 6.53965433601e-05
0.0025 0.0045 6.23272385953e-05
0.0025 0.0055 6.07177142454e-05
0.0025 0.0065 5.86426768993e-05
0.0025 0.0075 5.56328131163e-05
0.0025 0.0085 5.18073561605e-05
0.0025 0.0095 4.74785466551e-05
0.0025 0.0105 4.29755482141e-05
0.0025 0.0115 3.85634367328e-05
0.0025 0.0125 3.44104257802e-05
0.0025 0.0135 3.05910799863e-05
0.0025 0.0145 2.71141668065e-05
0.0025 0.0155 2.39551850751e-05
0.0025 0.0165 2.10785133392e-05
0.0025 0.0175 1.8448449884e-05
0.0025 0.0185 1.60351114904e-05
0.0025 0.0195 1.38183100824e-05
0.0025 0.0205 1.17886564832e-05
0.0025 0.0215 9.9463362072e-06
0.0025 0.0225 8.30051070712e-06
0.0025 0.0235 6.87008145147e-06
0.0025 0.0245 5.68416546317e-06
0.0025 0.0255 4.77971948531e-06
0.0025 0.0265 4.18400628549e-06
0.0025 0.0275 3.88118016625e-06
0.0025 0.0285 3.77321845669e-06
0.0025 0.0295 3.60192496387e-06
0.0025 0.0305 3.31185444844e-06
0.0025 0.0315 1.66069364166e-06
0.0035 -0.0315 4.78911990553e-06
0.0035 -0.0305 9.37651682883e-06
0.0035 -0.0295 1.03271544108e-05
0.0035 -0.0285 1.18276117034e-05
0.0035 -0.0275 1.27859739863e-05
0.0035 -0.0265 1.37363920452e-05
0.0035 -0.0255 1.47017035759e-05
0.0035 -0.0245 1.57082507213e-05
0.0035 -0.0235 1.67050876204e-05
0.0035 -0.0225 1.76386485349e-05
0.0035 -0.0215 1.84804087381e-05
0.0035 -0.0205 1.93038542671e-05
0.0035 -0.0195 2.04681817368e-05
0.0035 -0.0185 2.30552841784e-05
0.0035 -0.0175 2.98347203167e-05
0.0035 -0.0165 4.69281532265e-05
0.0035 -0.0155 8.58397969512e-05
0.0035 -0.0145 0.000166852063828
0.0035 -0.0135 0.00037221486433
0.0035 -0.0125 0.000946912717491
0.0035 -0.0115 0.00291674937588
0.0035 -0.0105 0.00356574618956
0.0035 -0.0095 0.0869741663173
0.0035 -0.0085 0.232760060637
0.0035 -0.0075 0.291086076597
0.0035 -0.0065 0.203317280023
0.0035 -0.0055 0.0444195591452
0.0035 -0.0045 0.0150103977972
0.0035 -0.0035 0.00399825788845
0.0035 -0.0025 0.00219060770516
0.0035 -0.0015 0.00117295705815
0.0035 -0.0005 0.000516892463722
0.0035 0.0005 0.000246713105792
0.0035 0.0015 0.000143525259633
0.0035 0.0025 0.000105756357198
0.0035 0.0035 9.28620138987e-05
0.0035 0.0045 8.79256211305e-05
0.0035 0.0055 8.44724795103e-05
0.0035 0.0065 8.03621266784e-05
0.0035 0.0075 7.50897007915e-05
0.0035 0.0085 6.87938651078e-05
0.0035 0.0095 6.19310465519e-05
0.0035 0.0105 5.5075047855e-05
0.0035 0.0115 4.87015998951e-05
0.0035 0.0125 4.30443957827e-05
0.0035 0.0135 3.81108659248e-05
0.0035 0.0145 3.3791651562e-05
0.0035 0.0155 2.99550657715e-05
0.0035 0.0165 2.64898424148e-05
0.0035 0.0175 2.33148332998e-05
0.0035 0.0185 2.03804367501e-05
0.0035 0.0195 1.76646350413e-05
0.0035 0.0205 1.51637357191e-05
0.0035 0.0215 1.28856016296e-05
0.0035 0.0225 1.08471041442e-05
0.0035 0.0235 9.07297182338e-06
0.0035 0.0245 7.59374224066e-06
0.0035 0.0255 6.43940222278e-06
0.0035 0.0265 5.61778625334e-06
0.0035 0.0275 5.08042897669e-06
0.0035 0.0285 4.68447816467e-06
0.0035 0.0295 4.15609183273e-06
0.0035 0.0305 3.57686652958e-06
0.0035 0.0315 1.76835596108e-06
0.0045 -0.0315 4.84063185434e-06
0.0045 -0.0305 9.24356910755e-06
0.0045 -0.0295 1.00203122856e-05
0.0045 -0.0285 1.18494820622e-05
0.0045 -0.0275 1.32793275454e-05
0.0045 -0.0265 1.46908281325e-05
0.0045 -0.0255 1.60595454007e-05
0.0045 -0.0245 1.74393591959e-05
0.0045 -0.0235 1.88126732606e-05
0.0045 -0.0225 2.01570408185e-05
0.0045 -0.0215 2.14661898584e-05
0.0045 -0.0205 2.28129153487e-05
0.0045 -0.0195 2.45158122508e-05
0.0045 -0.0185 2.75700329628e-05
0.0045 -0.0175 3.46412929369e-05
0.0045 -0.0165 5.16563690587e-05
0.0045 -0.0155 9.10212200324e-05
0.0045 -0.0145 0.000183360775353
0.0045 -0.0135 0.000465635553291
0.0045 -0.0125 0.00121289518027
0.0045 -0.0115 0.00377882802468
0.0045 -0.0105 0.00504650653212
0.0045 -0.0095 0.0778900482053
0.0045 -0.0085 0.221828573834
0.0045 -0.0075 0.287152954689
0.0045 -0.0065 0.219092118087
0.0045 -0.0055 0.0609785721079
0.0045 -0.0045 0.0172116444286
0.0045 -0.0035 0.00612613146861
0.0045 -0.0025 0.00264865591256
0.0045 -0.0015 0.00137887246343
0.0045 -0.0005 0.000619677308901
0.0045 0.0005 0.000308502550941
0.0045 0.0015 0.000196366705325
0.0045 0.0025 0.000157693089353
0.0045 0.0035 0.000144184493459
0.0045 0.0045 0.000136786304581
0.0045 0.0055 0.000129410219148
0.0045 0.0065 0.000120652180386
0.0045 0.0075 0.000110132990877
0.0045 0.0085 9.78362840055e-05
0.0045 0.0095 8.45582224688e-05
0.0045 0.0105 7.17712380172e-05
0.0045 0.0115 6.07056100064e-05
0.0045 0.0125 5.17861872519e-05
0.0045 0.0135 4.47711912108e-05
0.0045 0.0145 3.91783005259e-05
0.0045 0.0155 3.45667702353e-05
0.0045 0.0165 3.05978204532e-05
0.0045 0.0175 2.70442019816e-05
0.0045 0.0185 2.37837633402e-05
0.0045 0.0195 2.0766267588e-05
0.0045 0.0205 1.79809313857e-05
0.0045 0.0215 1.54386350588e-05
0.0045 0.0225 1.31609277647e-05
0.0045 0.0235 1.1173401968e-05
0.0045 0.0245 9.49928941224e-06
0.0045 0.0255 8.14927839374e-06
0.0045 0.0265 7.100217769e-06
0.0045 0.0275 6.27106802648e-06
0.0045 0.0285 5.5148883835e-06
0.0045 0.0295 4.62832396774e-06
0.0045 0.0305 3.80085198463e-06
0.0045 0.0315 1.85760775859e-06
0.0055 -0.0315 4.91064780611e-06
0.0055 -0.0305 9.17841708767e-06
0.0055 -0.0295 9.70737666076e-06
0.0055 -0.0285 1.16521573859e-05
0.0055 -0.0275 1.33892493393e-05
0.0055 -0.0265 1.51983414382e-05
0.0055 -0.0255 1.69563652427e-05
0.0055 -0.0245 1.870419495e-05
0.0055 -0.0235 2.04532207751e-05
0.0055 -0.0225 2.22235031881e-05
0.0055 -0.0215 2.40460925776e-05
0.0055 -0.0205 2.60101045072e-05
0.0055 -0.0195 2.83969620861e-05
0.0055 -0.0185 3.20782369078e-05
0.0055 -0.0175 3.9575338965e-05
0.0055 -0.0165 5.70728224289e-05
0.0055 -0.0155 0.000100197195694
0.0055 -0.0145 0.000213412749541
0.0055 -0.0135 0.000568908667519
0.0055 -0.0125 0.00142265187898
0.0055 -0.0115 0.00469988688175
0.0055 -0.0105 0.00627445362276
0.0055 -0.0095 0.06772971124
0.0055 -0.0085 0.208544964011
0.0055 -0.0075 0.281888000113
0.0055 -0.0065 0.232873904001
0.0055 -0.0055 0.0833043182745
0.0055 -0.0045 0.013493425151
0.0055 -0.0035 0.00912697466652
0.0055 -0.0025 0.00260413771674
0.0055 -0.0015 0.00137660550235
0.0055 -0.0005 0.000686339720285
0.0055 0.0005 0.000404534530616
0.0055 0.0015 0.00030774109233
0.0055 0.0025 0.000281058658778
0.0055 0.0035 0.0002695738157
0.0055 0.0045 0.000254075577029
0.0055 0.0055 0.000234329573453
0.0055 0.0065 0.000213542994114
0.0055 0.0075 0.000190509743911
0.0055 0.0085 0.000163161587787
0.0055 0.0095 0.000133163495212
0.0055 0.0105 0.000104916402744
0.0055 0.0115 8.20722836144e-05
0.0055 0.0125 6.52706645879e-05
0.0055 0.0135 5.32509666535e-05
0.0055 0.0145 4.47095540451e-05
0.0055 0.0155 3.85393170917e-05
0.0055 0.0165 3.38031672675e-05
0.0055 0.0175 2.98753017917e-05
0.0055 0.0185 2.64163883037e-05
0.0055 0.0195 2.32665664022e-05
0.0055 0.0205 2.03712577669e-05
0.0055 0.0215 1.7726761895e-05
0.0055 0.0225 1.53490027435e-05
0.0055 0.0235 1.32562010536e-05
0.0055 0.0245 1.14568476362e-05
0.0055 0.0255 9.93832514904e-06
0.0055 0.0265 8.65199755961e-06
0.0055 0.0275 7.50763839629e-06
0.0055 0.0285 6.39093221141e-06
0.0055 0.0295 5.16787197285e-06
0.0055 0.0305 4.0794378709e-06
0.0055 0.0315 1.95749976078e-06
0.0065 -0.0315 5.00979155435e-06
0.0065 -0.0305 9.20433553866e-06
0.0065 -0.0295 9.51534294701e-06
0.0065 -0.0285 1.14908290643e-05
0.0065 -0.0275 1.33883592051e-05
0.0065 -0.0265 1.54584428175e-05
0.0065 -0.0255 1.75129209956e-05
0.0065 -0.0245 1.95643968722e-05
0.0065 -0.0235 2.16386322957e-05
0.0065 -0.0225 2.38031878935e-05
0.0065 -0.0215 2.61433620344e-05
0.0065 -0.0205 2.878761682e-05
0.0065 -0.0195 3.20236579518e-05
0.0065 -0.0185 3.66326167671e-05
0.0065 -0.0175 4.49190720019e-05
0.0065 -0.0165 6.31355212098e-05
0.0065 -0.0155 0.000107837997576
0.0065 -0.0145 0.00022132860591
0.0065 -0.0135 0.000543327364739
0.0065 -0.0125 0.00137879993493
0.0065 -0.0115 0.00545406008803
0.0065 -0.0105 0.00683894795547
0.0065 -0.0095 0.0568390006327
0.0065 -0.0085 0.192668130162
0.0065 -0.0075 0.275077590891
0.0065 -0.0065 0.243613656735
0.0065 -0.0055 0.110753750704
0.0065 -0.0045 0.00272915691133
0.0065 -0.0035 0.0131871906804
0.0065 -0.0025 0.00286773395428
0.0065 -0.0015 0.00151593449556
0.0065 -0.0005 0.000886937347994
0.0065 0.0005 0.000660264977609
0.0065 0.0015 0.000613747050046
0.0065 0.0025 0.000631125968208
0.0065 0.0035 0.000622737099415
0.0065 0.0045 0.000568545830356
0.0065 0.0055 0.00050129646085
0.0065 0.0065 0.00044153014867
0.0065 0.0075 0.000383819009455
0.0065 0.0085 0.000315229643422
0.0065 0.0095 0.000238410470258
0.0065 0.0105 0.000172517642007
0.0065 0.0115 0.000125557886736
0.0065 0.0125 9.20092606803e-05
0.0065 0.0135 6.83144727063e-05
0.0065 0.0145 5.28911393794e-05
0.0065 0.0155 4.31500292089e-05
0.0065 0.0165 3.67448842224e-05
0.0065 0.0175 3.2148850295e-05
0.0065 0.0185 2.847233902e-05
0.0065 0.0195 2.52863683018e-05
0.0065 0.0205 2.24117845069e-05
0.0065 0.0215 1.97904807458e-05
0.0065 0.0225 1.74126687325e-05
0.0065 0.0235 1.52796407291e-05
0.0065 0.0245 1.33837576192e-05
0.0065 0.0255 1.16973580426e-05
0.0065 0.0265 1.01659462955e-05
0.0065 0.0275 8.71459929576e-06
0.0065 0.0285 7.26793546226e-06
0.0065 0.0295 5.73554448753e-06
0.0065 0.0305 4.38450989486e-06
0.0065 0.0315 2.06200430382e-06
0.0075 -0.0315 5.10974320322e-06
0.0075 -0.0305 9.31313248605e-06
0.0075 -0.0295 9.53620193678e-06
0.0075 -0.0285 1.15426542788e-05
0.0075 -0.0275 1.35213375175e-05
0.0075 -0.0265 1.57233925897e-05
0.0075 -0.0255 1.79478434801e-05
0.0075 -0.0245 2.02037296398e-05
0.0075 -0.0235 2.25356942768e-05
0.0075 -0.0225 2.50683696517e-05
0.0075 -0.0215 2.79846216769e-05
0.0075 -0.0205 3.15163006658e-05
0.0075 -0.0195 3.60275782194e-05
0.0075 -0.0185 4.23391923156e-05
0.0075 -0.0175 5.2572027277e-05
0.0075 -0.0165 7.23713904237e-05
0.0075 -0.0155 0.000116483650269
0.0075 -0.0145 0.000215695557338
0.0075 -0.0135 0.000469429485948
0.0075 -0.0125 0.00124100530818
0.0075 -0.0115 0.00580552604695
0.0075 -0.0105 0.00659530681707
0.0075 -0.0095 0.0454299762086
0.0075 -0.0085 0.174284451165
0.0075 -0.0075 0.266274909195
0.0075 -0.0065 0.251145666491
0.0075 -0.0055 0.138610586635
0.0075 -0.0045 0.0134718043035
0.0075 -0.0035 0.0168527932371
0.0075 -0.0025 0.00514597453147
0.0075 -0.0015 0.00239216335277
0.0075 -0.0005 0.00165916198938
0.0075 0.0005 0.00144083497189
0.0075 0.0015 0.00144694021599
0.0075 0.0025 0.00156760045635
0.0075 0.0035 0.00157317585864
0.0075 0.0045 0.00138894980648
0.0075 0.0055 0.00116582189341
0.0075 0.0065 0.000990332700291
0.0075 0.0075 0.000830883936591
0.0075 0.0085 0.000631949462234
0.0075 0.0095 0.000433063008758
0.0075 0.0105 0.000299292761929
0.0075 0.0115 0.000212256320487
0.0075 0.0125 0.000143748029631
0.0075 0.0135 9.67459493337e-05
0.0075 0.0145 6.7576835353e-05
0.0075 0.0155 5.03938554421e-05
0.0075 0.0165 4.05002409856e-05
0.0075 0.0175 3.44240647607e-05
0.0075 0.0185 3.02494725595e-05
0.0075 0.0195 2.69888222555e-05
0.0075 0.0205 2.41909038429e-05
0.0075 0.0215 2.16671607909e-05
0.0075 0.0225 1.93473207421e-05
0.0075 0.0235 1.72045827716e-05
0.0075 0.0245 1.52195122331e-05
0.0075 0.0255 1.33639515096e-05
0.0075 0.0265 1.15957242749e-05
0.0075 0.0275 9.86430230696e-06
0.0075 0.0285 8.1246835291e-06
0.0075 0.0295 6.31082045538e-06
0.0075 0.0305 4.70547811986e-06
0.0075 0.0315 2.17039746021e-06
0.0085 -0.0315 5.17421675211e-06
0.0085 -0.0305 9.48025583557e-06
0.0085 -0.0295 9.81433028082e-06
0.0085 -0.0285 1.18941203325e-05
0.0085 -0.0275 1.3926458378e-05
0.0085 -0.0265 1.61721753047e-05
0.0085 -0.0255 1.84605450858e-05
0.0085 -0.0245 2.08384474508e-05
0.0085 -0.0235 2.34149171101e-05
0.0085 -0.0225 2.64209129426e-05
0.0085 -0.0215 3.02206880037e-05
0.0085 -0.0205 3.53427425835e-05
0.0085 -0.0195 4.24763085806e-05
0.0085 -0.0185 5.26662758596e-05
0.0085 -0.0175 6.81093126582e-05
0.0085 -0.0165 9.38517817891e-05
0.0085 -0.0155 0.000142582466469
0.0085 -0.0145 0.00024403187703
0.0085 -0.0135 0.000497823559996
0.0085 -0.0125 0.00127484639185
0.0085 -0.0115 0.00547956949395
0.0085 -0.0105 0.00600437557243
0.0085 -0.0095 0.0335864495766
0.0085 -0.0085 0.154076663697
0.0085 -0.0075 0.254904612236
0.0085 -0.0065 0.254939929054
0.0085 -0.0055 0.164959711779
0.0085 -0.0045 0.0347877035811
0.0085 -0.0035 0.017630429432
0.0085 -0.0025 0.0112913534767
0.0085 -0.0015 0.00740450367277
0.0085 -0.0005 0.00545420143393
0.0085 0.0005 0.00470720292217
0.0085 0.0015 0.00458678500181
0.0085 0.0025 0.00474695067672
0.0085 0.0035 0.00471008385243
0.0085 0.0045 0.00425403200281
0.0085 0.0055 0.00354818280699
0.0085 0.0065 0.0027201863729
0.0085 0.0075 0.0018444987853
0.0085 0.0085 0.00113010273248
0.0085 0.0095 0.000717763244268
0.0085 0.0105 0.00051280182148
0.0085 0.0115 0.000362514793531
0.0085 0.0125 0.000234346813184
0.0085 0.0135 0.000146325618836
0.0085 0.0145 9.31180898333e-05
0.0085 0.0155 6.33811856645e-05
0.0085 0.0165 4.68353759258e-05
0.0085 0.0175 3.76880117316e-05
0.0085 0.0185 3.22602281819e-05
0.0085 0.0195 2.86302762596e-05
0.0085 0.0205 2.5822085318e-05
0.0085 0.0215 2.33841236526e-05
0.0085 0.0225 2.11244467315e-05
0.0085 0.0235 1.89699392652e-05
0.0085 0.0245 1.68925437166e-05
0.0085 0.0255 1.48742959718e-05
0.0085 0.0265 1.28923459546e-05
0.0085 0.0275 1.09177052249e-05
0.0085 0.0285 8.92585315068e-06
0.0085 0.0295 6.86329475532e-06
0.0085 0.0305 5.02459742255e-06
0.0085 0.0315 2.27909830105e-06
0.0095 -0.0315 5.21632408091e-06
0.0095 -0.0305 9.72695010018e-06
0.0095 -0.0295 1.03639178362e-05
0.0095 -0.0285 1.25741626841e-05
0.0095 -0.0275 1.46631397407e-05
0.0095 -0.0265 1.69114786928e-05
0.0095 -0.0255 1.92222092378e-05
0.0095 -0.0245 2.17412107046e-05
0.0095 -0.0235 2.47398577495e-05
0.0095 -0.0225 2.87202247308e-05
0.0095 -0.0215 3.44473521472e-05
0.0095 -0.0205 4.3069040099e-05
0.0095 -0.0195 5.6376369167e-05
0.0095 -0.0185 7.67158105397e-05
0.0095 -0.0175 0.000106984313313
0.0095 -0.0165 0.000152425241703
0.0095 -0.0155 0.000223849492734
0.0095 -0.0145 0.000356957401476
0.0095 -0.0135 0.000692463853923
0.0095 -0.0125 0.00161258882705
0.0095 -0.0115 0.00452654992015
0.0095 -0.0105 0.00554219900491
0.0095 -0.0095 0.0223487958533
0.0095 -0.0085 0.133761331792
0.0095 -0.0075 0.240280563946
0.0095 -0.0065 0.253406633476
0.0095 -0.0055 0.188041394049
0.0095 -0.0045 0.0654825563872
0.0095 -0.0035 0.0113436699016
0.0095 -0.0025 0.022136295972
0.0095 -0.0015 0.022150506248
0.0095 -0.0005 0.0197599188323
0.0095 0.0005 0.0174377806136
0.0095 0.0015 0.0154357244041
0.0095 0.0025 0.0134126235042
0.0095 0.0035 0.0112235108276
0.0095 0.0045 0.00888808856757
0.0095 0.0055 0.0066537208699
0.0095 0.0065 0.00484836368937
0.0095 0.0075 0.00329369188824
0.0095 0.0085 0.00187741965946
0.0095 0.0095 0.00111686302452
0.0095 0.0105 0.000793394103058
0.0095 0.0115 0.000566872018128
0.0095 0.0125 0.00037370030511
0.0095 0.0135 0.000222572220931
0.0095 0.0145 0.000136294112146
0.0095 0.0155 8.62130406512e-05
0.0095 0.0165 5.88655263641e-05
0.0095 0.0175 4.36805844912e-05
0.0095 0.0185 3.542841853e-05
0.0095 0.0195 3.06503426782e-05
0.0095 0.0205 2.74839155122e-05
0.0095 0.0215 2.49796135562e-05
0.0095 0.0225 2.27103960128e-05
0.0095 0.0235 2.05125495887e-05
0.0095 0.0245 1.83380948322e-05
0.0095 0.0255 1.61753714469e-05
0.0095 0.0265 1.40149386325e-05
0.0095 0.0275 1.1841463136e-05
0.0095 0.0285 9.64257566089e-06
0.0095 0.0295 7.36965007535e-06
0.0095 0.0305 5.32849075623e-06
0.0095 0.0315 2.38539777351e-06
0.0105 -0.0315 5.26062213636e-06
0.0105 -0.0305 1.008082291e-05
0.0105 -0.0295 1.11714057663e-05
0.0105 -0.0285 1.35690468981e-05
0.0105 -0.0275 1.57379490833e-05
0.0105 -0.0265 1.80032194079e-05
0.0105 -0.0255 2.04057290333e-05
0.0105 -0.0245 2.33110404953e-05
0.0105 -0.0235 2.73636371491e-05
0.0105 -0.0225 3.36639176516e-05
0.0105 -0.0215 4.401935895e-05
0.0105 -0.0205 6.10306194318e-05
0.0105 -0.0195 8.86797131134e-05
0.0105 -0.0185 0.000135091837881
0.0105 -0.0175 0.000210091376714
0.0105 -0.0165 0.000319270248292
0.0105 -0.0155 0.000486364636493
0.0105 -0.0145 0.00077455267472
0.0105 -0.0135 0.00133348656336
0.0105 -0.0125 0.00289924445168
0.0105 -0.0115 0.00602761987028
0.0105 -0.0105 0.00790660258686
0.0105 -0.0095 0.0161743762897
0.0105 -0.0085 0.116520317798
0.0105 -0.0075 0.221507219811
0.0105 -0.0065 0.243775503069
0.0105 -0.0055 0.201989498224
0.0105 -0.0045 0.104665717165
0.0105 -0.0035 0.0240779848493
0.0105 -0.0025 0.00760412564706
0.0105 -0.0015 0.013789348894
0.0105 -0.0005 0.01350335554
0.0105 0.0005 0.0102471162507
0.0105 0.0015 0.00709311576378
0.0105 0.0025 0.00794119477339
0.0105 0.0035 0.0110016163837
0.0105 0.0045 0.0129954138628
0.0105 0.0055 0.0127578084592
0.0105 0.0065 0.00975567947711
0.0105 0.0075 0.00478472301939
0.0105 0.0085 0.000425333587845
0.0105 0.0095 0.00165841347253
0.0105 0.0105 0.0022374538702
0.0105 0.0115 0.00143008770108
0.0105 0.0125 0.000570368123875
0.0105 0.0135 0.000340878021467
0.0105 0.0145 0.000206396672704
0.0105 0.0155 0.000130820925967
0.0105 0.0165 8.20358793971e-05
0.0105 0.0175 5.57698780726e-05
0.0105 0.0185 4.14052194593e-05
0.0105 0.0195 3.37874847648e-05
0.0105 0.0205 2.94507601317e-05
0.0105 0.0215 2.6515474324e-05
0.0105 0.0225 2.40749218337e-05
0.0105 0.0235 2.17744506899e-05
0.0105 0.0245 1.95011645377e-05
0.0105 0.0255 1.72225842102e-05
0.0105 0.0265 1.49286187496e-05
0.0105 0.0275 1.2607278691e-05
0.0105 0.0285 1.02511586613e-05
0.0105 0.0295 7.81143298109e-06
0.0105 0.0305 5.60653697385e-06
0.0105 0.0315 2.48701944664e-06
0.0115 -0.0315 5.27726180373e-06
0.0115 -0.0305 1.05108382226e-05
0.0115 -0.0295 1.22055432897e-05
0.0115 -0.0285 1.48430597446e-05
0.0115 -0.0275 1.71418343645e-05
0.0115 -0.0265 1.95217900876e-05
0.0115 -0.0255 2.22748771152e-05
0.0115 -0.0245 2.62111852173e-05
0.0115 -0.0235 3.28256887974e-05
0.0115 -0.0225 4.45678226235e-05
0.0115 -0.0215 6.52708636481e-05
0.0115 -0.0205 0.000102680650973
0.0115 -0.0195 0.000167805916503
0.0115 -0.0185 0.000279650236459
0.0115 -0.0175 0.00050329030922
0.0115 -0.0165 0.000861239557549
0.0115 -0.0155 0.00125677505038
0.0115 -0.0145 0.0019694008889
0.0115 -0.0135 0.00418706457356
0.0115 -0.0125 0.00875725971427
0.0115 -0.0115 0.0137738971187
0.0115 -0.0105 0.0136072345762
0.0115 -0.0095 0.0186196854179
0.0115 -0.0085 0.106993660653
0.0115 -0.0075 0.197508193305
0.0115 -0.0065 0.222309668441
0.0115 -0.0055 0.199345689277
0.0115 -0.0045 0.137392366634
0.0115 -0.0035 0.0763840932656
0.0115 -0.0025 0.0481662954705
0.0115 -0.0015 0.0431681239712
0.0115 -0.0005 0.0469909001649
0.0115 0.0005 0.0543605783326
0.0115 0.0015 0.0621603639082
0.0115 0.0025 0.0681324961749
0.0115 0.0035 0.0712496213966
0.0115 0.0045 0.0710105743209
0.0115 0.0055 0.0671312530511
0.0115 0.0065 0.0594575258856
0.0115 0.0075 0.0485935020933
0.0115 0.0085 0.0360166114972
0.0115 0.0095 0.0229418743121
0.0115 0.0105 0.0104758991689
0.0115 0.0115 0.00254116113044
0.0115 0.0125 0.00103710222014
0.0115 0.0135 0.000727445331967
0.0115 0.0145 0.000463232673109
0.0115 0.0155 0.000222362267073
0.0115 0.0165 0.000134970919328
0.0115 0.0175 8.07205027589e-05
0.0115 0.0185 5.32277250737e-05
0.0115 0.0195 3.91652758262e-05
0.0115 0.0205 3.21331882263e-05
0.0115 0.0215 2.80993898598e-05
0.0115 0.0225 2.52094524879e-05
0.0115 0.0235 2.27202694936e-05
0.0115 0.0245 2.03438606178e-05
0.0115 0.0255 1.79845596273e-05
0.0115 0.0265 1.56087532929e-05
0.0115 0.0275 1.31947771617e-05
0.0115 0.0285 1.07346636978e-05
0.0115 0.0295 8.17568616974e-06
0.0115 0.0305 5.85140561106e-06
0.0115 0.0315 2.58244874634e-06
0.0125 -0.0315 5.26625555731e-06
0.0125 -0.0305 1.10045317028e-05
0.0125 -0.0295 1.34235149341e-05
0.0125 -0.0285 1.63619762204e-05
0.0125 -0.0275 1.88931014386e-05
0.0125 -0.0265 2.163640437e-05
0.0125 -0.0255 2.53337281575e-05
0.0125 -0.0245 3.1595273058e-05
0.0125 -0.0235 4.35429202668e-05
0.0125 -0.0225 6.72189724428e-05
0.0125 -0.0215 0.000112484434378
0.0125 -0.0205 0.000198695121722
0.0125 -0.0195 0.000389612416437
0.0125 -0.0185 0.000713497165792
0.0125 -0.0175 0.00122347024162
0.0125 -0.0165 0.00234702429846
0.0125 -0.0155 0.00457551964941
0.0125 -0.0145 0.00760068842169
0.0125 -0.0135 0.0115255446084
0.0125 -0.0125 0.0154388370062
0.0125 -0.0115 0.0154205359819
0.0125 -0.0105 0.00353636881556
0.0125 -0.0095 0.0384134083117
0.0125 -0.0085 0.10825710532
0.0125 -0.0075 0.168274558083
0.0125 -0.0065 0.185476914869
0.0125 -0.0055 0.17449678509
0.0125 -0.0045 0.147987458242
0.0125 -0.0035 0.124225207415
0.0125 -0.0025 0.11368274522
0.0125 -0.0015 0.113095209215
0.0125 -0.0005 0.11699093106
0.0125 0.0005 0.121242078348
0.0125 0.0015 0.12361709643
0.0125 0.0025 0.123769845688
0.0125 0.0035 0.122106067994
0.0125 0.0045 0.11905531186
0.0125 0.0055 0.114760464897
0.0125 0.0065 0.108957361189
0.0125 0.0075 0.100762894457
0.0125 0.0085 0.0886946171502
0.0125 0.0095 0.0712842975886
0.0125 0.0105 0.0490592514308
0.0125 0.0115 0.0264607907902
0.0125 0.0125 0.00969006665829
0.0125 0.0135 0.00237603390081
0.0125 0.0145 0.00105823020583
0.0125 0.0155 0.000637486627945
0.0125 0.0165 0.000258432061015
0.0125 0.0175 0.000138073786495
0.0125 0.0185 7.54664358359e-05
0.0125 0.0195 4.85586366974e-05
0.0125 0.0205 3.61804690935e-05
0.0125 0.0215 2.9923309792e-05
0.0125 0.0225 2.61696698985e-05
0.0125 0.0235 2.33487511878e-05
0.0125 0.0245 2.08524330075e-05
0.0125 0.0255 1.84480724188e-05
0.0125 0.0265 1.60424919226e-05
0.0125 0.0275 1.35919632668e-05
0.0125 0.0285 1.10825849911e-05
0.0125 0.0295 8.45404455771e-06
0.0125 0.0305 6.0584266714e-06
0.0125 0.0315 2.67081523208e-06
0.0135 -0.0315 5.25564613853e-06
0.0135 -0.0305 1.15670995219e-05
0.0135 -0.0295 1.47805574026e-05
0.0135 -0.0285 1.81120955035e-05
0.0135 -0.0275 2.10791141731e-05
0.0135 -0.0265 2.47001545214e-05
0.0135 -0.0255 3.05250039969e-05
0.0135 -0.0245 4.14856959954e-05
0.0135 -0.0235 6.32696170543e-05
0.0135 -0.0225 0.000109970412371
0.0135 -0.0215 0.000220002401235
0.0135 -0.0205 0.000470449684462
0.0135 -0.0195 0.000962779659081
0.0135 -0.0185 0.00206774275607
0.0135 -0.0175 0.00407596242674
0.0135 -0.0165 0.00676498826714
0.0135 -0.0155 0.0100403906492
0.0135 -0.0145 0.0126218136869
0.0135 -0.0135 0.0123049644031
0.0135 -0.0125 0.00410232715657
0.0135 -0.0115 0.0169718146872
0.0135 -0.0105 0.0462145464588
0.0135 -0.0095 0.0842684968484
0.0135 -0.0085 0.120135949188
0.0135 -0.0075 0.13823526179
0.0135 -0.0065 0.134720918032
0.0135 -0.0055 0.127868341111
0.0135 -0.0045 0.130515790519
0.0135 -0.0035 0.139304321172
0.0135 -0.0025 0.146428885451
0.0135 -0.0015 0.149516214294
0.0135 -0.0005 0.148717156971
0.0135 0.0005 0.144989434953
0.0135 0.0015 0.139601387266
0.0135 0.0025 0.133757598304
0.0135 0.0035 0.128554698146
0.0135 0.0045 0.124623274062
0.0135 0.0055 0.121931878131
0.0135 0.0065 0.119821782954
0.0135 0.0075 0.117141597117
0.0135 0.0085 0.112363390181
0.0135 0.0095 0.103606744253
0.0135 0.0105 0.0887496861796
0.0135 0.0115 0.0662835787104
0.0135 0.0125 0.0387045572571
0.0135 0.0135 0.0153424842636
0.0135 0.0145 0.00415864733177
0.0135 0.0155 0.0015481189708
0.0135 0.0165 0.000723570452369
0.0135 0.0175 0.000250530863456
0.0135 0.0185 0.000118012879671
0.0135 0.0195 6.51639960297e-05
0.0135 0.0205 4.2633852151e-05
0.0135 0.0215 3.24109938071e-05
0.0135 0.0225 2.70884395513e-05
0.0135 0.0235 2.37052353618e-05
0.0135 0.0245 2.1047733262e-05
0.0135 0.0255 1.86192271494e-05
0.0135 0.0265 1.62295651721e-05
0.0135 0.0275 1.3795870781e-05
0.0135 0.0285 1.12906178216e-05
0.0135 0.0295 8.6421390638e-06
0.0135 0.0305 6.22514233835e-06
0.0135 0.0315 2.75177633569e-06
0.0145 -0.0315 5.22755098197e-06
0.0145 -0.0305 1.215809396e-05
0.0145 -0.0295 1.62461929924e-05
0.0145 -0.0285 2.01213946221e-05
0.0145 -0.0275 2.38893448735e-05
0.0145 -0.0265 2.92907643839e-05
0.0145 -0.0255 3.93453078339e-05
0.0145 -0.0245 5.92331334058e-05
0.0145 -0.0235 9.94108343362e-05
0.0145 -0.0225 0.000193097925198
0.0145 -0.0215 0.000472588946511
0.0145 -0.0205 0.00120063519043
0.0145 -0.0195 0.00288835989787
0.0145 -0.0185 0.00582998164028
0.0145 -0.0175 0.00855757856927
0.0145 -0.0165 0.0093701209899
0.0145 -0.0155 0.00423392507397
0.0145 -0.0145 0.0111731189452
0.0145 -0.0135 0.0296491106586
0.0145 -0.0125 0.0530431813801
0.0145 -0.0115 0.0812563496408
0.0145 -0.0105 0.107898160986
0.0145 -0.0095 0.12654361489
0.0145 -0.0085 0.129994934948
0.0145 -0.0075 0.111741872924
0.0145 -0.0065 0.0816971041694
0.0145 -0.0055 0.0705906623586
0.0145 -0.0045 0.0855862721329
0.0145 -0.0035 0.103613389008
0.0145 -0.0025 0.113249332042
0.0145 -0.0015 0.114181831951
0.0145 -0.0005 0.109120550195
0.0145 0.0005 0.101070358536
0.0145 0.0015 0.0923834086079
0.0145 0.0025 0.0851063509706