% Model:              Benchmark260518.mph
% Version:            COMSOL 6.2.0.339
% Date:               May 21 2026, 15:41
% Dimension:          2
% Nodes:              4096
% Expressions:        1
% Description:        速度大小
% Length unit:        m
% x                       y                        spf.U (m/s)
% mirrored_by_python_y_to_minus_y, coord_match_decimals=12
0.0005 -0.0315 2.10355634799e-06
0.0005 -0.0305 3.44715564528e-06
0.0005 -0.0295 2.84221842645e-06
0.0005 -0.0285 3.22949546514e-06
0.0005 -0.0275 3.77694496222e-06
0.0005 -0.0265 8.94569268199e-06
0.0005 -0.0255 0.000128734641045
0.0005 -0.0245 0.000549113464197
0.0005 -0.0235 0.00114061625182
0.0005 -0.0225 0.00554421302128
0.0005 -0.0215 0.0153392424538
0.0005 -0.0205 0.028361458569
0.0005 -0.0195 0.0433470352259
0.0005 -0.0185 0.0539078023369
0.0005 -0.0175 0.0557475016341
0.0005 -0.0165 0.032880610519
0.0005 -0.0155 0.00469987555226
0.0005 -0.0145 0.00232458242245
0.0005 -0.0135 0.00263099135486
0.0005 -0.0125 0.0034451166157
0.0005 -0.0115 0.00422620201902
0.0005 -0.0105 0.0045900886854
0.0005 -0.0095 0.00415881084142
0.0005 -0.0085 0.00287675273742
0.0005 -0.0075 0.0015099603829
0.0005 -0.0065 0.00226978511005
0.0005 -0.0055 0.00405785224457
0.0005 -0.0045 0.00583293101894
0.0005 -0.0035 0.00739919872422
0.0005 -0.0025 0.00861148933525
0.0005 -0.0015 0.00941550650036
0.0005 -0.0005 0.00984917099748
0.0005 0.0005 0.00999903751381
0.0005 0.0015 0.00995398869314
0.0005 0.0025 0.00978124477405
0.0005 0.0035 0.00951588295669
0.0005 0.0045 0.00916201797586
0.0005 0.0055 0.00870260013326
0.0005 0.0065 0.00810730440496
0.0005 0.0075 0.00733927286566
0.0005 0.0085 0.00637187149265
0.0005 0.0095 0.00521985516789
0.0005 0.0105 0.0039497448986
0.0005 0.0115 0.00268298782213
0.0005 0.0125 0.0015911809912
0.0005 0.0135 0.000836583554734
0.0005 0.0145 0.000497185338266
0.0005 0.0155 0.000385107785556
0.0005 0.0165 0.000265714004564
0.0005 0.0175 0.000125331674029
0.0005 0.0185 4.31418171178e-05
0.0005 0.0195 1.84382627266e-05
0.0005 0.0205 1.00505341568e-05
0.0005 0.0215 7.04451311328e-06
0.0005 0.0225 5.74367809313e-06
0.0005 0.0235 4.97103940158e-06
0.0005 0.0245 4.48240753725e-06
0.0005 0.0255 4.13371154468e-06
0.0005 0.0265 3.85338900137e-06
0.0005 0.0275 3.59712146491e-06
0.0005 0.0285 3.32955719937e-06
0.0005 0.0295 2.94471706011e-06
0.0005 0.0305 2.59433094908e-06
0.0005 0.0315 1.27633307721e-06
0.0015 -0.0315 1.64611567745e-06
0.0015 -0.0305 3.06386637573e-06
0.0015 -0.0295 3.21039974256e-06
0.0015 -0.0285 4.02676606669e-06
0.0015 -0.0275 6.26285305171e-06
0.0015 -0.0265 1.57862730441e-05
0.0015 -0.0255 4.80726496505e-05
0.0015 -0.0245 0.000138108509521
0.0015 -0.0235 0.000811284198864
0.0015 -0.0225 0.00452102495143
0.0015 -0.0215 0.0134495715847
0.0015 -0.0205 0.0259225329111
0.0015 -0.0195 0.0406885298962
0.0015 -0.0185 0.0519035686851
0.0015 -0.0175 0.0550167285504
0.0015 -0.0165 0.0414262022766
0.0015 -0.0155 0.0148507095541
0.0015 -0.0145 0.00329081759218
0.0015 -0.0135 0.0051705419573
0.0015 -0.0125 0.00595034742375
0.0015 -0.0115 0.00593297377757
0.0015 -0.0105 0.0047012404953
0.0015 -0.0095 0.00281988570169
0.0015 -0.0085 0.0042338178033
0.0015 -0.0075 0.00832153213451
0.0015 -0.0065 0.0124258691466
0.0015 -0.0055 0.0159294384789
0.0015 -0.0045 0.0188317807172
0.0015 -0.0035 0.0211625029332
0.0015 -0.0025 0.0228845514761
0.0015 -0.0015 0.0240053661599
0.0015 -0.0005 0.0245973945098
0.0015 0.0005 0.024778562774
0.0015 0.0015 0.0246780966076
0.0015 0.0025 0.0243980154834
0.0015 0.0035 0.0239931315122
0.0015 0.0045 0.0234684151841
0.0015 0.0055 0.0227815206932
0.0015 0.0065 0.0218541476435
0.0015 0.0075 0.0205893097438
0.0015 0.0085 0.0188904761944
0.0015 0.0095 0.0166884590702
0.0015 0.0105 0.0139704542879
0.0015 0.0115 0.0108353233191
0.0015 0.0125 0.00756017661666
0.0015 0.0135 0.00458048564172
0.0015 0.0145 0.0023729417871
0.0015 0.0155 0.00117842178068
0.0015 0.0165 0.000616106392391
0.0015 0.0175 0.000266820212701
0.0015 0.0185 9.22102673735e-05
0.0015 0.0195 3.92348194102e-05
0.0015 0.0205 1.9599145254e-05
0.0015 0.0215 1.24228289541e-05
0.0015 0.0225 9.48189035575e-06
0.0015 0.0235 7.99988771478e-06
0.0015 0.0245 7.19062116849e-06
0.0015 0.0255 6.71072993403e-06
0.0015 0.0265 6.40010564787e-06
0.0015 0.0275 6.16460811325e-06
0.0015 0.0285 5.9428629936e-06
0.0015 0.0295 5.50325450821e-06
0.0015 0.0305 5.02534068865e-06
0.0015 0.0315 2.49812981544e-06
0.0025 -0.0315 1.66306814362e-06
0.0025 -0.0305 3.10927068455e-06
0.0025 -0.0295 3.69470214503e-06
0.0025 -0.0285 5.7133643642e-06
0.0025 -0.0275 1.05102263672e-05
0.0025 -0.0265 2.41526915784e-05
0.0025 -0.0255 7.42526132518e-05
0.0025 -0.0245 0.000224882125532
0.0025 -0.0235 0.000863796733484
0.0025 -0.0225 0.00391833302648
0.0025 -0.0215 0.0117501218286
0.0025 -0.0205 0.0231635839565
0.0025 -0.0195 0.0370859477433
0.0025 -0.0185 0.0483557909023
0.0025 -0.0175 0.0524938743025
0.0025 -0.0165 0.0456029983506
0.0025 -0.0155 0.0266459565152
0.0025 -0.0145 0.00966599727415
0.0025 -0.0135 0.00290604216568
0.0025 -0.0125 0.00191921718165
0.0025 -0.0115 0.00430286951755
0.0025 -0.0105 0.00881623017621
0.0025 -0.0095 0.0143085555171
0.0025 -0.0085 0.0196071038255
0.0025 -0.0075 0.0238647449874
0.0025 -0.0065 0.0267688577504
0.0025 -0.0055 0.0285181726797
0.0025 -0.0045 0.0294754868723
0.0025 -0.0035 0.0299391615217
0.0025 -0.0025 0.0301056105694
0.0025 -0.0015 0.0300843835496
0.0025 -0.0005 0.029941971888
0.0025 0.0005 0.029733906737
0.0025 0.0015 0.0295017540539
0.0025 0.0025 0.0292654762819
0.0025 0.0035 0.0290283070274
0.0025 0.0045 0.0287792538468
0.0025 0.0055 0.0284866024575
0.0025 0.0065 0.0280921054658
0.0025 0.0075 0.0275005728882
0.0025 0.0085 0.0265774010139
0.0025 0.0095 0.0251780089049
0.0025 0.0105 0.0231387662968
0.0025 0.0115 0.0202600913584
0.0025 0.0125 0.0163969184342
0.0025 0.0135 0.0117157053848
0.0025 0.0145 0.00693913117057
0.0025 0.0155 0.00327334620364
0.0025 0.0165 0.00133150307777
0.0025 0.0175 0.000518008027099
0.0025 0.0185 0.00017716895486
0.0025 0.0195 6.13671320423e-05
0.0025 0.0205 2.59936547082e-05
0.0025 0.0215 1.37850927335e-05
0.0025 0.0225 8.88118650587e-06
0.0025 0.0235 6.81486840005e-06
0.0025 0.0245 5.93146749653e-06
0.0025 0.0255 5.60244021513e-06
0.0025 0.0265 5.54987409824e-06
0.0025 0.0275 5.61083853976e-06
0.0025 0.0285 5.67867859646e-06
0.0025 0.0295 5.43290127012e-06
0.0025 0.0305 5.09406514627e-06
0.0025 0.0315 2.57800047356e-06
0.0035 -0.0315 1.8166388438e-06
0.0035 -0.0305 3.50803653068e-06
0.0035 -0.0295 4.62057327211e-06
0.0035 -0.0285 8.14194746021e-06
0.0035 -0.0275 1.65518784326e-05
0.0035 -0.0265 3.7244438494e-05
0.0035 -0.0255 0.000108744070698
0.0035 -0.0245 0.000309471385526
0.0035 -0.0235 0.000971641408797
0.0035 -0.0225 0.00374464922074
0.0035 -0.0215 0.010612744137
0.0035 -0.0205 0.0205145196708
0.0035 -0.0195 0.0326899514296
0.0035 -0.0185 0.0430108545905
0.0035 -0.0175 0.0477069957284
0.0035 -0.0165 0.0456448711534
0.0035 -0.0155 0.0358235643243
0.0035 -0.0145 0.0244302238316
0.0035 -0.0135 0.0183172540806
0.0035 -0.0125 0.0181078532953
0.0035 -0.0115 0.0212699308784
0.0035 -0.0105 0.0257386144027
0.0035 -0.0095 0.0299514676768
0.0035 -0.0085 0.0328861352186
0.0035 -0.0075 0.0342255714504
0.0035 -0.0065 0.034240956235
0.0035 -0.0055 0.0334119697457
0.0035 -0.0045 0.0321707718453
0.0035 -0.0035 0.0308366955407
0.0035 -0.0025 0.0295855055037
0.0035 -0.0015 0.0284810110628
0.0035 -0.0005 0.027554120223
0.0035 0.0005 0.0268219512806
0.0035 0.0015 0.0262824910265
0.0035 0.0025 0.0259163898821
0.0035 0.0035 0.025699493334
0.0035 0.0045 0.0256137419704
0.0035 0.0055 0.0256529152352
0.0035 0.0065 0.0258172649187
0.0035 0.0075 0.0260870288758
0.0035 0.0085 0.0263818429558
0.0035 0.0095 0.026519416632
0.0035 0.0105 0.0262145526534
0.0035 0.0115 0.0251503541981
0.0035 0.0125 0.0229452717307
0.0035 0.0135 0.0191572448447
0.0035 0.0145 0.0137388397686
0.0035 0.0155 0.00781863728298
0.0035 0.0165 0.0033745863867
0.0035 0.0175 0.00119512309982
0.0035 0.0185 0.000388735197694
0.0035 0.0195 0.000114721005982
0.0035 0.0205 4.55202661585e-05
0.0035 0.0215 2.11406791493e-05
0.0035 0.0225 1.19425958668e-05
0.0035 0.0235 8.15083826911e-06
0.0035 0.0245 6.62040391145e-06
0.0035 0.0255 6.07812959985e-06
0.0035 0.0265 5.98220727705e-06
0.0035 0.0275 6.02459532177e-06
0.0035 0.0285 6.010622187e-06
0.0035 0.0295 5.5812939344e-06
0.0035 0.0305 5.23385816052e-06
0.0035 0.0315 2.71735247572e-06
0.0045 -0.0315 2.07247284552e-06
0.0045 -0.0305 4.2343450943e-06
0.0045 -0.0295 6.27913379455e-06
0.0045 -0.0285 1.21674789163e-05
0.0045 -0.0275 2.77246186084e-05
0.0045 -0.0265 7.48751385233e-05
0.0045 -0.0255 0.000213107044895
0.0045 -0.0245 0.000543697354245
0.0045 -0.0235 0.00150073197483
0.0045 -0.0225 0.00461225465523
0.0045 -0.0215 0.0108722732879
0.0045 -0.0205 0.0188679270393
0.0045 -0.0195 0.0280558050277
0.0045 -0.0185 0.035840421435
0.0045 -0.0175 0.0400539199237
0.0045 -0.0165 0.0409614389923
0.0045 -0.0155 0.0383260825851
0.0045 -0.0145 0.0347006563244
0.0045 -0.0135 0.0328567485796
0.0045 -0.0125 0.0334266962007
0.0045 -0.0115 0.0353966653684
0.0045 -0.0105 0.0373336451723
0.0045 -0.0095 0.0381482410567
0.0045 -0.0085 0.0374092093509
0.0045 -0.0075 0.0353256819112
0.0045 -0.0065 0.0323911282565
0.0045 -0.0055 0.029136388656
0.0045 -0.0045 0.0260470431843
0.0045 -0.0035 0.0234068446913
0.0045 -0.0025 0.0212772371179
0.0045 -0.0015 0.0196008815856
0.0045 -0.0005 0.0183068623448
0.0045 0.0005 0.0173562527937
0.0045 0.0015 0.0167277160746
0.0045 0.0025 0.0163864375754
0.0045 0.0035 0.0162901758951
0.0045 0.0045 0.016416116631
0.0045 0.0055 0.0167748660847
0.0045 0.0065 0.0174092580199
0.0045 0.0075 0.0183887138989
0.0045 0.0085 0.0197710295124
0.0045 0.0095 0.0214929320804
0.0045 0.0105 0.0232817522738
0.0045 0.0115 0.0246393823655
0.0045 0.0125 0.0249730752876
0.0045 0.0135 0.0237197624735
0.0045 0.0145 0.020130790418
0.0045 0.0155 0.0140123348771
0.0045 0.0165 0.0072427422429
0.0045 0.0175 0.00269948526025
0.0045 0.0185 0.000848716907851
0.0045 0.0195 0.00026158476511
0.0045 0.0205 8.73459345582e-05
0.0045 0.0215 3.62096635963e-05
0.0045 0.0225 1.77628384629e-05
0.0045 0.0235 1.0664445207e-05
0.0045 0.0245 7.79829880221e-06
0.0045 0.0255 6.71229803739e-06
0.0045 0.0265 6.37379376679e-06
0.0045 0.0275 6.25845091667e-06
0.0045 0.0285 6.08801269962e-06
0.0045 0.0295 5.53621129301e-06
0.0045 0.0305 5.24863094438e-06
0.0045 0.0315 2.78461175114e-06
0.0055 -0.0315 2.46996968272e-06
0.0055 -0.0305 5.36483662581e-06
0.0055 -0.0295 8.98844808324e-06
0.0055 -0.0285 1.9666631194e-05
0.0055 -0.0275 4.83886124316e-05
0.0055 -0.0265 0.0001519310203
0.0055 -0.0255 0.000448197160475
0.0055 -0.0245 0.00114526740147
0.0055 -0.0235 0.00312923033655
0.0055 -0.0225 0.007593220949
0.0055 -0.0215 0.0138972710646
0.0055 -0.0205 0.0198154817755
0.0055 -0.0195 0.0245252351156
0.0055 -0.0185 0.0275511259509
0.0055 -0.0175 0.0296063482933
0.0055 -0.0165 0.0320126037926
0.0055 -0.0155 0.0342134290244
0.0055 -0.0145 0.0360699520225
0.0055 -0.0135 0.0376524537739
0.0055 -0.0125 0.0388066520663
0.0055 -0.0115 0.0390206411776
0.0055 -0.0105 0.0377661956075
0.0055 -0.0095 0.0349064314968
0.0055 -0.0085 0.0307725563289
0.0055 -0.0075 0.0260101449576
0.0055 -0.0065 0.0212815633293
0.0055 -0.0055 0.01710955502
0.0055 -0.0045 0.0137606241746
0.0055 -0.0035 0.0112045417452
0.0055 -0.0025 0.00927740758702
0.0055 -0.0015 0.00783371633756
0.0055 -0.0005 0.00681413510513
0.0055 0.0005 0.00621364060737
0.0055 0.0015 0.00599662679286
0.0055 0.0025 0.00604886829667
0.0055 0.0035 0.00625962196593
0.0055 0.0045 0.00658827592166
0.0055 0.0055 0.00705835479961
0.0055 0.0065 0.00773873579251
0.0055 0.0075 0.00875277629043
0.0055 0.0085 0.0102950323835
0.0055 0.0095 0.0126097650951
0.0055 0.0105 0.0158185788352
0.0055 0.0115 0.0195643721741
0.0055 0.0125 0.0229053460398
0.0055 0.0135 0.0247597546145
0.0055 0.0145 0.024163179791
0.0055 0.0155 0.0200021096434
0.0055 0.0165 0.012655866623
0.0055 0.0175 0.0056209015292
0.0055 0.0185 0.00187514690906
0.0055 0.0195 0.000621950103041
0.0055 0.0205 0.000197033366356
0.0055 0.0215 6.8394602641e-05
0.0055 0.0225 2.96337443369e-05
0.0055 0.0235 1.56097640048e-05
0.0055 0.0245 1.01103031908e-05
0.0055 0.0255 7.86408082992e-06
0.0055 0.0265 6.98216771376e-06
0.0055 0.0275 6.566198738e-06
0.0055 0.0285 6.21135089144e-06
0.0055 0.0295 5.57101420496e-06
0.0055 0.0305 5.27890231563e-06
0.0055 0.0315 2.81455747414e-06
0.0065 -0.0315 3.07184991757e-06
0.0065 -0.0305 7.11497321125e-06
0.0065 -0.0295 1.33178513575e-05
0.0065 -0.0285 3.2956603064e-05
0.0065 -0.0275 9.8771964107e-05
0.0065 -0.0265 0.000319416206697
0.0065 -0.0255 0.000919437982334
0.0065 -0.0245 0.00259821710537
0.0065 -0.0235 0.00671682738445
0.0065 -0.0225 0.0132626364977
0.0065 -0.0215 0.0197773084184
0.0065 -0.0205 0.0236426572673
0.0065 -0.0195 0.0236987728377
0.0065 -0.0185 0.0205295811547
0.0065 -0.0175 0.0180217329057
0.0065 -0.0165 0.0199058038883
0.0065 -0.0155 0.0243443865187
0.0065 -0.0145 0.0283166728405
0.0065 -0.0135 0.0305412467634
0.0065 -0.0125 0.0307114162535
0.0065 -0.0115 0.0288291264885
0.0065 -0.0105 0.0252996224332
0.0065 -0.0095 0.0208005060704
0.0065 -0.0085 0.0161014637238
0.0065 -0.0075 0.0118459124429
0.0065 -0.0065 0.00840455074242
0.0065 -0.0055 0.00584763874888
0.0065 -0.0045 0.00403158147279
0.0065 -0.0035 0.00297498049712
0.0065 -0.0025 0.00290884140307
0.0065 -0.0015 0.00304289601217
0.0065 -0.0005 0.00262156686023
0.0065 0.0005 0.00193864338687
0.0065 0.0015 0.00147856108741
0.0065 0.0025 0.00135876320783
0.0065 0.0035 0.00145856907451
0.0065 0.0045 0.00166189419118
0.0065 0.0055 0.00192987879651
0.0065 0.0065 0.00228277340453
0.0065 0.0075 0.00279972455466
0.0065 0.0085 0.00364899816673
0.0065 0.0095 0.00514519254116
0.0065 0.0105 0.00780028156403
0.0065 0.0115 0.0120682618099
0.0065 0.0125 0.0175403216296
0.0065 0.0135 0.0226004769173
0.0065 0.0145 0.02537155829
0.0065 0.0155 0.0242575667834
0.0065 0.0165 0.0183922225434
0.0065 0.0175 0.010045048732
0.0065 0.0185 0.00387928314
0.0065 0.0195 0.00130043552183
0.0065 0.0205 0.000453202310899
0.0065 0.0215 0.000147085292066
0.0065 0.0225 5.40897699476e-05
0.0065 0.0235 2.50820155257e-05
0.0065 0.0245 1.41752141983e-05
0.0065 0.0255 9.80766697556e-06
0.0065 0.0265 7.96417299892e-06
0.0065 0.0275 7.06473132727e-06
0.0065 0.0285 6.47022193508e-06
0.0065 0.0295 5.72471757917e-06
0.0065 0.0305 5.40634628226e-06
0.0065 0.0315 2.88820170518e-06
0.0075 -0.0315 3.93421860913e-06
0.0075 -0.0305 9.7361691591e-06
0.0075 -0.0295 2.08210210659e-05
0.0075 -0.0285 5.4995452192e-05
0.0075 -0.0275 0.000190131976469
0.0075 -0.0265 0.000629917235174
0.0075 -0.0255 0.00188709801344
0.0075 -0.0245 0.00552182821908
0.0075 -0.0235 0.0124029533405
0.0075 -0.0225 0.0201620966943
0.0075 -0.0215 0.0253836762422
0.0075 -0.0205 0.0262086483066
0.0075 -0.0195 0.0222244997953
0.0075 -0.0185 0.0149755827606
0.0075 -0.0175 0.00882300628661
0.0075 -0.0165 0.00811248287781
0.0075 -0.0155 0.0113283606888
0.0075 -0.0145 0.0142599141533
0.0075 -0.0135 0.0154246474359
0.0075 -0.0125 0.0148084243779
0.0075 -0.0115 0.0127811300399
0.0075 -0.0105 0.0100516177027
0.0075 -0.0095 0.00733410418018
0.0075 -0.0085 0.00507185007391
0.0075 -0.0075 0.00340660900652
0.0075 -0.0065 0.00227901121501
0.0075 -0.0055 0.00160941942251
0.0075 -0.0045 0.00165802545734
0.0075 -0.0035 0.00275283687168
0.0075 -0.0025 0.00392022095109
0.0075 -0.0015 0.00382385069465
0.0075 -0.0005 0.00270650462645
0.0075 0.0005 0.00172154633269
0.0075 0.0015 0.00119676762217
0.0075 0.0025 0.000900608105386
0.0075 0.0035 0.000718308693348
0.0075 0.0045 0.000624987253067
0.0075 0.0055 0.000612824418386
0.0075 0.0065 0.000670241445138
0.0075 0.0075 0.000799994237934
0.0075 0.0085 0.00105860476433
0.0075 0.0095 0.00163703029512
0.0075 0.0105 0.00294566489683
0.0075 0.0115 0.00579844032732
0.0075 0.0125 0.0110004285694
0.0075 0.0135 0.0178570146816
0.0075 0.0145 0.0238128140735
0.0075 0.0155 0.0261486336313
0.0075 0.0165 0.0231039989846
0.0075 0.0175 0.0153315562677
0.0075 0.0185 0.00718865977492
0.0075 0.0195 0.00256253017509
0.0075 0.0205 0.000909154860877
0.0075 0.0215 0.00032262425019
0.0075 0.0225 0.000110215425207
0.0075 0.0235 4.22204175967e-05
0.0075 0.0245 2.12489703186e-05
0.0075 0.0255 1.33840989497e-05
0.0075 0.0265 9.84197928968e-06
0.0075 0.0275 8.0842728425e-06
0.0075 0.0285 7.05798470428e-06
0.0075 0.0295 6.0990170064e-06
0.0075 0.0305 5.68762410536e-06
0.0075 0.0315 3.03100907103e-06
0.0085 -0.0315 5.04171109023e-06
0.0085 -0.0305 1.33254024939e-05
0.0085 -0.0295 3.27881074658e-05
0.0085 -0.0285 0.000103853905314
0.0085 -0.0275 0.000356712769393
0.0085 -0.0265 0.00113070345861
0.0085 -0.0255 0.00366011626501
0.0085 -0.0245 0.00987891959559
0.0085 -0.0235 0.0185588167593
0.0085 -0.0225 0.0251480376775
0.0085 -0.0215 0.0267726235464
0.0085 -0.0205 0.0229910173062
0.0085 -0.0195 0.0154470114391
0.0085 -0.0185 0.00790123063842
0.0085 -0.0175 0.00357317227076
0.0085 -0.0165 0.00235306563226
0.0085 -0.0155 0.0028948911941
0.0085 -0.0145 0.00385959799046
0.0085 -0.0135 0.00428545798899
0.0085 -0.0125 0.00411395391685
0.0085 -0.0115 0.00354157124779
0.0085 -0.0105 0.00282283831983
0.0085 -0.0095 0.00213014353733
0.0085 -0.0085 0.00154343839891
0.0085 -0.0075 0.00111236927929
0.0085 -0.0065 0.0009109803285
0.0085 -0.0055 0.00106140363862
0.0085 -0.0045 0.00174710497599
0.0085 -0.0035 0.00327836439049
0.0085 -0.0025 0.0045634332237
0.0085 -0.0015 0.00379911736589
0.0085 -0.0005 0.00206830824884
0.0085 0.0005 0.00115439513357
0.0085 0.0015 0.000841077498013
0.0085 0.0025 0.000656949328309
0.0085 0.0035 0.000521507906491
0.0085 0.0045 0.00041921007526
0.0085 0.0055 0.000347029932682
0.0085 0.0065 0.000304195097583
0.0085 0.0075 0.000296098983368
0.0085 0.0085 0.000346892708418
0.0085 0.0095 0.000562226651495
0.0085 0.0105 0.00110256023931
0.0085 0.0115 0.00243194024828
0.0085 0.0125 0.00580007892742
0.0085 0.0135 0.0121433263038
0.0085 0.0145 0.0199153066689
0.0085 0.0155 0.025517357897
0.0085 0.0165 0.0259307648102
0.0085 0.0175 0.020387313123
0.0085 0.0185 0.0117154425545
0.0085 0.0195 0.00485077098598
0.0085 0.0205 0.00169535437238
0.0085 0.0215 0.000621506525276
0.0085 0.0225 0.000208988750847
0.0085 0.0235 7.25614875958e-05
0.0085 0.0245 3.53177324521e-05
0.0085 0.0255 2.05904387517e-05
0.0085 0.0265 1.37783352296e-05
0.0085 0.0275 1.02509242664e-05
0.0085 0.0285 8.29596218613e-06
0.0085 0.0295 6.83992299714e-06
0.0085 0.0305 6.17985911751e-06
0.0085 0.0315 3.25855423599e-06
0.0095 -0.0315 6.28444003748e-06
0.0095 -0.0305 1.75618160259e-05
0.0095 -0.0295 4.66598010888e-05
0.0095 -0.0285 0.000171921642158
0.0095 -0.0275 0.000594772789646
0.0095 -0.0265 0.00189141707391
0.0095 -0.0255 0.00615054129421
0.0095 -0.0245 0.0145979239621
0.0095 -0.0235 0.0231196839022
0.0095 -0.0225 0.0265905306529
0.0095 -0.0215 0.0235193818933
0.0095 -0.0205 0.0156871568692
0.0095 -0.0195 0.00777703313393
0.0095 -0.0185 0.00296352936528
0.0095 -0.0175 0.00119181356999
0.0095 -0.0165 0.000948019761972
0.0095 -0.0155 0.000876596363008
0.0095 -0.0145 0.000860522270716
0.0095 -0.0135 0.000923866785221
0.0095 -0.0125 0.00093491100852
0.0095 -0.0115 0.000860448648813
0.0095 -0.0105 0.000732667062305
0.0095 -0.0095 0.000597186081411
0.0095 -0.0085 0.000497042695728
0.0095 -0.0075 0.000471421651334
0.0095 -0.0065 0.00054957441067
0.0095 -0.0055 0.000768439795253
0.0095 -0.0045 0.00128760587222
0.0095 -0.0035 0.00297716137807
0.0095 -0.0025 0.00481879532331
0.0095 -0.0015 0.0038207937737
0.0095 -0.0005 0.00162282567785
0.0095 0.0005 0.000751053045438
0.0095 0.0015 0.000478202378277
0.0095 0.0025 0.000354413997587
0.0095 0.0035 0.000280744735721
0.0095 0.0045 0.000228398231655
0.0095 0.0055 0.000188260158649
0.0095 0.0065 0.000157350103374
0.0095 0.0075 0.00013775912532
0.0095 0.0085 0.000141920011879
0.0095 0.0095 0.000216641364566
0.0095 0.0105 0.000462567651747
0.0095 0.0115 0.00107639795199
0.0095 0.0125 0.00278624983728
0.0095 0.0135 0.00722334581976
0.0095 0.0145 0.0148164616258
0.0095 0.0155 0.0226311770632
0.0095 0.0165 0.0264835025395
0.0095 0.0175 0.024166872028
0.0095 0.0185 0.016751033169
0.0095 0.0195 0.00844341455489
0.0095 0.0205 0.00321394224859
0.0095 0.0215 0.00114528781417
0.0095 0.0225 0.000422541299267
0.0095 0.0235 0.000154379952973
0.0095 0.0245 6.84200128793e-05
0.0095 0.0255 3.71752052596e-05
0.0095 0.0265 2.25416367607e-05
0.0095 0.0275 1.50122791395e-05
0.0095 0.0285 1.08782257444e-05
0.0095 0.0295 8.26349773859e-06
0.0095 0.0305 7.03091853358e-06
0.0095 0.0315 3.62676406167e-06
0.0105 -0.0315 7.54217515732e-06
0.0105 -0.0305 2.16512727261e-05
0.0105 -0.0295 5.87576572037e-05
0.0105 -0.0285 0.000229593133785
0.0105 -0.0275 0.000837163480398
0.0105 -0.0265 0.00285606175228
0.0105 -0.0255 0.00883674777542
0.0105 -0.0245 0.0185056550352
0.0105 -0.0235 0.0255383678391
0.0105 -0.0225 0.0253649087083
0.0105 -0.0215 0.0183849897943
0.0105 -0.0205 0.00936875827323
0.0105 -0.0195 0.00387941961199
0.0105 -0.0185 0.00163693353039
0.0105 -0.0175 0.000654120337926
0.0105 -0.0165 0.000381857130792
0.0105 -0.0155 0.000303111947866
0.0105 -0.0145 0.000262664902933
0.0105 -0.0135 0.000248187303536
0.0105 -0.0125 0.000242266208818
0.0105 -0.0115 0.000230486718221
0.0105 -0.0105 0.00021380546957
0.0105 -0.0095 0.000200955104212
0.0105 -0.0085 0.000202490457544
0.0105 -0.0075 0.00022796518432
0.0105 -0.0065 0.000286541437797
0.0105 -0.0055 0.00041841077192
0.0105 -0.0045 0.000755912201259
0.0105 -0.0035 0.00238393839595
0.0105 -0.0025 0.00489945980765
0.0105 -0.0015 0.00435811299203
0.0105 -0.0005 0.00182301604309
0.0105 0.0005 0.000709918411745
0.0105 0.0015 0.00035341462513
0.0105 0.0025 0.00021719501131
0.0105 0.0035 0.000159102669805
0.0105 0.0045 0.000127786644733
0.0105 0.0055 0.000106722758968
0.0105 0.0065 9.14232427123e-05
0.0105 0.0075 8.2971755248e-05
0.0105 0.0085 8.70399365029e-05
0.0105 0.0095 0.000115181982976
0.0105 0.0105 0.00020711504712
0.0105 0.0115 0.000508004612609
0.0105 0.0125 0.00135799794094
0.0105 0.0135 0.00389897087264
0.0105 0.0145 0.00983790853232
0.0105 0.0155 0.0182599517038
0.0105 0.0165 0.0248457331271
0.0105 0.0175 0.0259723610841
0.0105 0.0185 0.0211879170484
0.0105 0.0195 0.0130887976137
0.0105 0.0205 0.00598827949
0.0105 0.0215 0.00225728980671
0.0105 0.0225 0.000903922199197
0.0105 0.0235 0.000390487469558
0.0105 0.0245 0.000168285292864
0.0105 0.0255 8.01061950644e-05
0.0105 0.0265 4.39107449034e-05
0.0105 0.0275 2.58116948562e-05
0.0105 0.0285 1.64399694492e-05
0.0105 0.0295 1.10809987754e-05
0.0105 0.0305 8.58245812798e-06
0.0105 0.0315 4.26794998391e-06
0.0115 -0.0315 8.77153476491e-06
0.0115 -0.0305 2.50431783044e-05
0.0115 -0.0295 6.81180925761e-05
0.0115 -0.0285 0.000275726516954
0.0115 -0.0275 0.00105856120701
0.0115 -0.0265 0.0038444331717
0.0115 -0.0255 0.0111934060584
0.0115 -0.0245 0.0211870732599
0.0115 -0.0235 0.0264361594356
0.0115 -0.0225 0.0231296465646
0.0115 -0.0215 0.013975029651
0.0115 -0.0205 0.00584189453126
0.0115 -0.0195 0.00229827909767
0.0115 -0.0185 0.000992406501964
0.0115 -0.0175 0.000379052369617
0.0115 -0.0165 0.000196979388291
0.0115 -0.0155 0.000136543935491
0.0115 -0.0145 0.000115867270046
0.0115 -0.0135 0.000107264802395
0.0115 -0.0125 0.000103240629116
0.0115 -0.0115 0.000100447244018
0.0115 -0.0105 9.86044063555e-05
0.0115 -0.0095 9.97447237697e-05
0.0115 -0.0085 0.000106892886392
0.0115 -0.0075 0.000124590664489
0.0115 -0.0065 0.00016255491475
0.0115 -0.0055 0.000263316350671
0.0115 -0.0045 0.000573444928406
0.0115 -0.0035 0.00202337914244
0.0115 -0.0025 0.00494565237973
0.0115 -0.0015 0.00540149130145
0.0115 -0.0005 0.00279997368328
0.0115 0.0005 0.000999340638749
0.0115 0.0015 0.000376633013377
0.0115 0.0025 0.000178917133232
0.0115 0.0035 0.000111549187384
0.0115 0.0045 8.34740834579e-05
0.0115 0.0055 6.90891332766e-05
0.0115 0.0065 6.09228890704e-05
0.0115 0.0075 5.83082711393e-05
0.0115 0.0085 6.36758365863e-05
0.0115 0.0095 8.23070297373e-05
0.0115 0.0105 0.000127873705397
0.0115 0.0115 0.000275328550922
0.0115 0.0125 0.000714408162346
0.0115 0.0135 0.00201966355633
0.0115 0.0145 0.00590981333927
0.0115 0.0155 0.0133860519858
0.0115 0.0165 0.0214949239251
0.0115 0.0175 0.025581549737
0.0115 0.0185 0.0239523042768
0.0115 0.0195 0.0178014969392
0.0115 0.0205 0.0102040857905
0.0115 0.0215 0.00465662486889
0.0115 0.0225 0.00201670658042
0.0115 0.0235 0.000980948510208
0.0115 0.0245 0.000481620163755
0.0115 0.0255 0.000217798519106
0.0115 0.0265 0.000100839350288
0.0115 0.0275 5.2375311683e-05
0.0115 0.0285 2.88398332707e-05
0.0115 0.0295 1.69788740471e-05
0.0115 0.0305 1.16173195575e-05
0.0115 0.0315 5.49255810705e-06
0.0125 -0.0315 9.96388853342e-06
0.0125 -0.0305 2.77126633829e-05
0.0125 -0.0295 7.49551991255e-05
0.0125 -0.0285 0.000312723417571
0.0125 -0.0275 0.00124408546029
0.0125 -0.0265 0.00464033175133
0.0125 -0.0255 0.0128923405942
0.0125 -0.0245 0.022822201349
0.0125 -0.0235 0.0266282166165
0.0125 -0.0225 0.0211915403422
0.0125 -0.0215 0.0112114760434
0.0125 -0.0205 0.00416562084242
0.0125 -0.0195 0.00156206546148
0.0125 -0.0185 0.000632667906564
0.0125 -0.0175 0.000247723327213
0.0125 -0.0165 0.000124366946206
0.0125 -0.0155 8.11096911111e-05
0.0125 -0.0145 6.66090965263e-05
0.0125 -0.0135 6.17107727329e-05
0.0125 -0.0125 5.96662338056e-05
0.0125 -0.0115 5.86345886975e-05
0.0125 -0.0105 5.86635977963e-05
0.0125 -0.0095 6.05978518891e-05
0.0125 -0.0085 6.5988455044e-05
0.0125 -0.0075 7.86407956824e-05
0.0125 -0.0065 0.000109564440125
0.0125 -0.0055 0.000200094030183
0.0125 -0.0045 0.000490052904209
0.0125 -0.0035 0.00172789032059
0.0125 -0.0025 0.00469666380028
0.0125 -0.0015 0.00611694679284
0.0125 -0.0005 0.00381142731555
0.0125 0.0005 0.00134037580228
0.0125 0.0015 0.000435235463103
0.0125 0.0025 0.000185906231661
0.0125 0.0035 0.000101162138384
0.0125 0.0045 6.87420098995e-05
0.0125 0.0055 5.50752499316e-05
0.0125 0.0065 4.91432281655e-05
0.0125 0.0075 4.81885048259e-05
0.0125 0.0085 5.3595560372e-05
0.0125 0.0095 6.97046608519e-05
0.0125 0.0105 0.000107353963816
0.0125 0.0115 0.000192224399369
0.0125 0.0125 0.000409058990104
0.0125 0.0135 0.00107863915608
0.0125 0.0145 0.00332347701259
0.0125 0.0155 0.00897013547652
0.0125 0.0165 0.0171392716217
0.0125 0.0175 0.0232451837466
0.0125 0.0185 0.0244146282844
0.0125 0.0195 0.0211120107236
0.0125 0.0205 0.015070623577
0.0125 0.0215 0.00896700623321
0.0125 0.0225 0.00479542084319
0.0125 0.0235 0.00255371243228
0.0125 0.0245 0.00136303218936
0.0125 0.0255 0.000667311907024
0.0125 0.0265 0.000287380346613
0.0125 0.0275 0.000122201299523
0.0125 0.0285 5.87688825773e-05
0.0125 0.0295 2.98412125116e-05
0.0125 0.0305 1.8022746007e-05
0.0125 0.0315 8.03088102155e-06
0.0135 -0.0315 1.10078943136e-05
0.0135 -0.0305 2.96810149025e-05
0.0135 -0.0295 7.95059463939e-05
0.0135 -0.0285 0.000337707435646
0.0135 -0.0275 0.00136778963544
0.0135 -0.0265 0.00510356479339
0.0135 -0.0255 0.0138424440766
0.0135 -0.0245 0.0237111502584
0.0135 -0.0235 0.0266665395372
0.0135 -0.0225 0.0200574136797
0.0135 -0.0215 0.00983436936268
0.0135 -0.0205 0.00342365072857
0.0135 -0.0195 0.00118501172428
0.0135 -0.0185 0.000440941998317
0.0135 -0.0175 0.000176227688456
0.0135 -0.0165 9.31861817119e-05
0.0135 -0.0155 6.15191803825e-05
0.0135 -0.0145 4.99973351309e-05
0.0135 -0.0135 4.6064930695e-05
0.0135 -0.0125 4.45705398822e-05
0.0135 -0.0115 4.38028600733e-05
0.0135 -0.0105 4.37386026975e-05
0.0135 -0.0095 4.50014450286e-05
0.0135 -0.0085 4.88648556418e-05
0.0135 -0.0075 5.89502917978e-05
0.0135 -0.0065 8.60561665651e-05
0.0135 -0.0055 0.000166650779506
0.0135 -0.0045 0.000419695161363
0.0135 -0.0035 0.00144534871459
0.0135 -0.0025 0.00423638521119
0.0135 -0.0015 0.00639152287395
0.0135 -0.0005 0.00455312531981
0.0135 0.0005 0.00162028576411
0.0135 0.0015 0.000507991640284
0.0135 0.0025 0.000217694854878
0.0135 0.0035 0.000109267875742
0.0135 0.0045 6.98176070488e-05
0.0135 0.0055 5.5237826299e-05
0.0135 0.0065 5.01034315163e-05
0.0135 0.0075 4.96176656068e-05
0.0135 0.0085 5.44984153798e-05
0.0135 0.0095 6.91911301026e-05
0.0135 0.0105 0.000101706442321
0.0135 0.0115 0.000164437874397
0.0135 0.0125 0.000313239193587
0.0135 0.0135 0.000693864162807
0.0135 0.0145 0.0019072581941
0.0135 0.0155 0.00567414153887
0.0135 0.0165 0.0126331963717
0.0135 0.0175 0.0194324229592
0.0135 0.0185 0.022539574722
0.0135 0.0195 0.0218703052344
0.0135 0.0205 0.0187349334136
0.0135 0.0215 0.0144346689786
0.0135 0.0225 0.0101612486197
0.0135 0.0235 0.00658093449976
0.0135 0.0245 0.00385394004968
0.0135 0.0255 0.00197448989803
0.0135 0.0265 0.000879495706803
0.0135 0.0275 0.000347309850549
0.0135 0.0285 0.000134468340663
0.0135 0.0295 6.02120042689e-05
0.0135 0.0305 3.21658847441e-05
0.0135 0.0315 1.37429579468e-05
0.0145 -0.0315 1.18233744047e-05
0.0145 -0.0305 3.10378278588e-05
0.0145 -0.0295 8.2058930107e-05
0.0145 -0.0285 0.000350110437302
0.0145 -0.0275 0.00141661857044
0.0145 -0.0265 0.00523489015631
0.0145 -0.0255 0.0141293136595
0.0145 -0.0245 0.0240714323753
0.0145 -0.0235 0.0267542213462
0.0145 -0.0225 0.0196718748013
0.0145 -0.0215 0.0093703791647
0.0145 -0.0205 0.00315916907207
0.0145 -0.0195 0.00102633171035
0.0145 -0.0185 0.000377330273692
0.0145 -0.0175 0.000157244465276
0.0145 -0.0165 8.74449377063e-05
0.0145 -0.0155 5.98074453057e-05
0.0145 -0.0145 4.89626227537e-05
0.0145 -0.0135 4.45265748927e-05
0.0145 -0.0125 4.21460342544e-05
0.0145 -0.0115 4.04152056598e-05
0.0145 -0.0105 3.93938396342e-05
0.0145 -0.0095 3.95943996124e-05
0.0145 -0.0085 4.20588017034e-05
0.0145 -0.0075 4.99470884925e-05
0.0145 -0.0065 7.25514927132e-05
0.0145 -0.0055 0.000139648829088
0.0145 -0.0045 0.000348478147912
0.0145 -0.0035 0.00118301901546
0.0145 -0.0025 0.0036653080097
0.0145 -0.0015 0.00636769620523
0.0145 -0.0005 0.00534226721392
0.0145 0.0005 0.00223504777865
0.0145 0.0015 0.000713649995308
0.0145 0.0025 0.000267788360378
0.0145 0.0035 0.00012696358386
0.0145 0.0045 8.23446200002e-05
0.0145 0.0055 6.89962557408e-05
0.0145 0.0065 6.63932168312e-05
0.0145 0.0075 6.75772952162e-05
0.0145 0.0085 7.25020830955e-05
0.0145 0.0095 8.62229746154e-05