% Model:              Benchmark260518.mph
% Version:            COMSOL 6.2.0.339
% Date:               May 20 2026, 16:59
% Dimension:          2
% Nodes:              4096
% Expressions:        1
% Description:        速度大小
% Length unit:        m
% x                       y                        spf.U (m/s)
% mirrored_by_python_y_to_minus_y, coord_match_decimals=12
0.0005 -0.0315 6.24191325336e-07
0.0005 -0.0305 1.21982214491e-06
0.0005 -0.0295 1.25737606178e-06
0.0005 -0.0285 1.31973627201e-06
0.0005 -0.0275 1.43725820245e-06
0.0005 -0.0265 1.77030330056e-06
0.0005 -0.0255 2.73802250475e-06
0.0005 -0.0245 5.55044541063e-06
0.0005 -0.0235 1.39680646328e-05
0.0005 -0.0225 3.86473229234e-05
0.0005 -0.0215 6.91506202582e-05
0.0005 -0.0205 0.000140398504241
0.0005 -0.0195 0.000605887239463
0.0005 -0.0185 0.000697802790639
0.0005 -0.0175 0.0227373715011
0.0005 -0.0165 0.0570880497866
0.0005 -0.0155 0.0688657188893
0.0005 -0.0145 0.0384619195636
0.0005 -0.0135 0.0036796432022
0.0005 -0.0125 0.00178981545976
0.0005 -0.0115 0.00104288184259
0.0005 -0.0105 0.00111817485406
0.0005 -0.0095 0.00151731089878
0.0005 -0.0085 0.00238650830521
0.0005 -0.0075 0.00297905844232
0.0005 -0.0065 0.0025160786083
0.0005 -0.0055 0.001419742918
0.0005 -0.0045 0.00120318788925
0.0005 -0.0035 0.00184614433041
0.0005 -0.0025 0.00224032228744
0.0005 -0.0015 0.00212522468996
0.0005 -0.0005 0.0016426259125
0.0005 0.0005 0.00110273893732
0.0005 0.0015 0.00064969876821
0.0005 0.0025 0.000298491690446
0.0005 0.0035 0.000106187049921
0.0005 0.0045 4.10011354487e-05
0.0005 0.0055 1.86659305733e-05
0.0005 0.0065 1.1454157337e-05
0.0005 0.0075 8.76717730926e-06
0.0005 0.0085 7.17159806458e-06
0.0005 0.0095 6.1996811065e-06
0.0005 0.0105 5.55356316456e-06
0.0005 0.0115 5.10009379844e-06
0.0005 0.0125 4.76371025216e-06
0.0005 0.0135 4.50746923159e-06
0.0005 0.0145 4.30980038559e-06
0.0005 0.0155 4.15602845189e-06
0.0005 0.0165 4.03394016538e-06
0.0005 0.0175 3.93317021205e-06
0.0005 0.0185 3.84452946467e-06
0.0005 0.0195 3.76088441568e-06
0.0005 0.0205 3.67802916082e-06
0.0005 0.0215 3.59338573628e-06
0.0005 0.0225 3.50602773329e-06
0.0005 0.0235 3.41507651643e-06
0.0005 0.0245 3.31961038496e-06
0.0005 0.0255 3.2166653446e-06
0.0005 0.0265 3.10120410462e-06
0.0005 0.0275 2.96631584606e-06
0.0005 0.0285 2.79234841579e-06
0.0005 0.0295 2.51493121682e-06
0.0005 0.0305 2.27762954752e-06
0.0005 0.0315 1.13313662736e-06
0.0015 -0.0315 1.23449486588e-06
0.0015 -0.0305 2.42457490341e-06
0.0015 -0.0295 2.51194967362e-06
0.0015 -0.0285 2.59116593632e-06
0.0015 -0.0275 2.7550732512e-06
0.0015 -0.0265 3.33137871492e-06
0.0015 -0.0255 5.06810027841e-06
0.0015 -0.0245 1.00862855756e-05
0.0015 -0.0235 2.47867644028e-05
0.0015 -0.0225 6.71575353597e-05
0.0015 -0.0215 0.000140334876471
0.0015 -0.0205 0.000396541308616
0.0015 -0.0195 0.00137452820225
0.0015 -0.0185 0.00104670949441
0.0015 -0.0175 0.0206848092639
0.0015 -0.0165 0.0532108432559
0.0015 -0.0155 0.0680368638252
0.0015 -0.0145 0.0465218377432
0.0015 -0.0135 0.010678918904
0.0015 -0.0125 0.00346672593951
0.0015 -0.0115 0.00312545499892
0.0015 -0.0105 0.00390839637497
0.0015 -0.0095 0.00504569727956
0.0015 -0.0085 0.00569200569975
0.0015 -0.0075 0.00464716789716
0.0015 -0.0065 0.00322849382253
0.0015 -0.0055 0.00478550454945
0.0015 -0.0045 0.00686031357635
0.0015 -0.0035 0.00806488415223
0.0015 -0.0025 0.00821139090796
0.0015 -0.0015 0.00719590342024
0.0015 -0.0005 0.00523602657843
0.0015 0.0005 0.00306036890729
0.0015 0.0015 0.00147471294377
0.0015 0.0025 0.000600839643445
0.0015 0.0035 0.000205229244188
0.0015 0.0045 8.33862464082e-05
0.0015 0.0055 3.94699495437e-05
0.0015 0.0065 2.32517445424e-05
0.0015 0.0075 1.65620365128e-05
0.0015 0.0085 1.29835098995e-05
0.0015 0.0095 1.08916670543e-05
0.0015 0.0105 9.55043055509e-06
0.0015 0.0115 8.61795833757e-06
0.0015 0.0125 7.93325467395e-06
0.0015 0.0135 7.41986716547e-06
0.0015 0.0145 7.03429289568e-06
0.0015 0.0155 6.74518647481e-06
0.0015 0.0165 6.52562699218e-06
0.0015 0.0175 6.35254183085e-06
0.0015 0.0185 6.20710184586e-06
0.0015 0.0195 6.0762643408e-06
0.0015 0.0205 5.95332738761e-06
0.0015 0.0215 5.83579458297e-06
0.0015 0.0225 5.72416573736e-06
0.0015 0.0235 5.61951073797e-06
0.0015 0.0245 5.52271584031e-06
0.0015 0.0255 5.43188658577e-06
0.0015 0.0265 5.34365339524e-06
0.0015 0.0275 5.24426980751e-06
0.0015 0.0285 5.11370359403e-06
0.0015 0.0295 4.78769338374e-06
0.0015 0.0305 4.44310919325e-06
0.0015 0.0315 2.22314561228e-06
0.0025 -0.0315 1.29432879463e-06
0.0025 -0.0305 2.56892176547e-06
0.0025 -0.0295 2.76624895899e-06
0.0025 -0.0285 2.89043764274e-06
0.0025 -0.0275 3.01071285094e-06
0.0025 -0.0265 3.50389405136e-06
0.0025 -0.0255 5.03240152331e-06
0.0025 -0.0245 9.27840501507e-06
0.0025 -0.0235 2.10081487296e-05
0.0025 -0.0225 5.52085546271e-05
0.0025 -0.0215 0.000149506283124
0.0025 -0.0205 0.000543049610136
0.0025 -0.0195 0.00171915546497
0.0025 -0.0185 0.000422435606291
0.0025 -0.0175 0.017168000214
0.0025 -0.0165 0.0480635662989
0.0025 -0.0155 0.0662174006483
0.0025 -0.0145 0.0527009897809
0.0025 -0.0135 0.0192291989147
0.0025 -0.0125 0.0028661858587
0.0025 -0.0115 0.00512216616388
0.0025 -0.0105 0.00671462423106
0.0025 -0.0095 0.00683962725998
0.0025 -0.0085 0.00418285833468
0.0025 -0.0075 0.00507288324162
0.0025 -0.0065 0.010546365929
0.0025 -0.0055 0.0143251434653
0.0025 -0.0045 0.0158821077051
0.0025 -0.0035 0.0159603820719
0.0025 -0.0025 0.0150588162673
0.0025 -0.0015 0.01321911703
0.0025 -0.0005 0.0102059667863
0.0025 0.0005 0.00628483971254
0.0025 0.0015 0.00278172133697
0.0025 0.0025 0.00089893041385
0.0025 0.0035 0.00029229325391
0.0025 0.0045 0.000123543145529
0.0025 0.0055 6.02740038252e-05
0.0025 0.0065 3.37046031516e-05
0.0025 0.0075 2.10792198229e-05
0.0025 0.0085 1.48165840257e-05
0.0025 0.0095 1.14647375083e-05
0.0025 0.0105 9.45324600204e-06
0.0025 0.0115 8.12124141732e-06
0.0025 0.0125 7.18798586077e-06
0.0025 0.0135 6.52204976794e-06
0.0025 0.0145 6.04815529613e-06
0.0025 0.0155 5.71291580662e-06
0.0025 0.0165 5.47373987974e-06
0.0025 0.0175 5.2966528026e-06
0.0025 0.0185 5.15787911665e-06
0.0025 0.0195 5.04423534784e-06
0.0025 0.0205 4.95125913103e-06
0.0025 0.0215 4.88032392453e-06
0.0025 0.0225 4.83546412071e-06
0.0025 0.0235 4.82082782641e-06
0.0025 0.0245 4.83902364631e-06
0.0025 0.0255 4.88898649593e-06
0.0025 0.0265 4.96669838198e-06
0.0025 0.0275 5.04300250241e-06
0.0025 0.0285 5.08980120009e-06
0.0025 0.0295 4.85488603693e-06
0.0025 0.0305 4.56210950906e-06
0.0025 0.0315 2.31219074261e-06
0.0035 -0.0315 1.38556904384e-06
0.0035 -0.0305 2.76583083724e-06
0.0035 -0.0295 3.1189048511e-06
0.0035 -0.0285 3.41813670491e-06
0.0035 -0.0275 3.62056425495e-06
0.0035 -0.0265 4.10219585001e-06
0.0035 -0.0255 5.47128909411e-06
0.0035 -0.0245 9.04481597929e-06
0.0035 -0.0235 1.80574144994e-05
0.0035 -0.0225 4.34676319696e-05
0.0035 -0.0215 0.000134331463995
0.0035 -0.0205 0.000534184666186
0.0035 -0.0195 0.00177475736063
0.0035 -0.0185 0.000655738969442
0.0035 -0.0175 0.0127494013377
0.0035 -0.0165 0.0415178170668
0.0035 -0.0155 0.0630967751721
0.0035 -0.0145 0.0576456882072
0.0035 -0.0135 0.0301160393913
0.0035 -0.0125 0.0066502529718
0.0035 -0.0115 0.00550651681752
0.0035 -0.0105 0.00596229733699
0.0035 -0.0095 0.00279363980568
0.0035 -0.0085 0.00777985075733
0.0035 -0.0075 0.0158085024693
0.0035 -0.0065 0.0206936876329
0.0035 -0.0055 0.0222419267213
0.0035 -0.0045 0.0217015105936
0.0035 -0.0035 0.0203749949801
0.0035 -0.0025 0.0190679776239
0.0035 -0.0015 0.0178091693262
0.0035 -0.0005 0.0157046273977
0.0035 0.0005 0.0115228258465
0.0035 0.0015 0.00589644933598
0.0035 0.0025 0.00198745527668
0.0035 0.0035 0.000642016826438
0.0035 0.0045 0.000253650734914
0.0035 0.0055 0.000123070245295
0.0035 0.0065 6.26995867837e-05
0.0035 0.0075 3.48699403047e-05
0.0035 0.0085 2.21956721694e-05
0.0035 0.0095 1.56594898438e-05
0.0035 0.0105 1.190862954e-05
0.0035 0.0115 9.5768743608e-06
0.0035 0.0125 8.08462773712e-06
0.0035 0.0135 7.12162038859e-06
0.0035 0.0145 6.49952176678e-06
0.0035 0.0155 6.09543052732e-06
0.0035 0.0165 5.82286252233e-06
0.0035 0.0175 5.62474357789e-06
0.0035 0.0185 5.46909245491e-06
0.0035 0.0195 5.34268078854e-06
0.0035 0.0205 5.2444266345e-06
0.0035 0.0215 5.17926594858e-06
0.0035 0.0225 5.15303705669e-06
0.0035 0.0235 5.16881763594e-06
0.0035 0.0245 5.22504305937e-06
0.0035 0.0255 5.31217121972e-06
0.0035 0.0265 5.41097816333e-06
0.0035 0.0275 5.4654409575e-06
0.0035 0.0285 5.41909581508e-06
0.0035 0.0295 5.00710248872e-06
0.0035 0.0305 4.73776437579e-06
0.0035 0.0315 2.47530510927e-06
0.0045 -0.0315 1.47154049538e-06
0.0045 -0.0305 2.94244347507e-06
0.0045 -0.0295 3.40051012806e-06
0.0045 -0.0285 3.83735141367e-06
0.0045 -0.0275 4.12114700166e-06
0.0045 -0.0265 4.55640550181e-06
0.0045 -0.0255 5.65158161645e-06
0.0045 -0.0245 8.39743179314e-06
0.0045 -0.0235 1.49148851207e-05
0.0045 -0.0225 3.25175969462e-05
0.0045 -0.0215 0.000109382801821
0.0045 -0.0205 0.000441950861536
0.0045 -0.0195 0.00152181261983
0.0045 -0.0185 0.00117911753359
0.0045 -0.0175 0.00791277114795
0.0045 -0.0165 0.0336789085215
0.0045 -0.0155 0.058221879451
0.0045 -0.0145 0.0601167938368
0.0045 -0.0135 0.0410132288894
0.0045 -0.0125 0.0161127462462
0.0045 -0.0115 0.00409765918812
0.0045 -0.0105 0.00140748881411
0.0045 -0.0095 0.00981711711231
0.0045 -0.0085 0.0197199652325
0.0045 -0.0075 0.0256785466784
0.0045 -0.0065 0.0268836599194
0.0045 -0.0055 0.025015559056
0.0045 -0.0045 0.0220693007114
0.0045 -0.0035 0.019732309623
0.0045 -0.0025 0.0189026270953
0.0045 -0.0015 0.0193382813067
0.0045 -0.0005 0.0195938831879
0.0045 0.0005 0.0171434135122
0.0045 0.0015 0.010935305075
0.0045 0.0025 0.00464873309138
0.0045 0.0035 0.00162253517428
0.0045 0.0045 0.000686952349336
0.0045 0.0055 0.000304261165852
0.0045 0.0065 0.000127844114257
0.0045 0.0075 6.50932706782e-05
0.0045 0.0085 3.82118244867e-05
0.0045 0.0095 2.48422768359e-05
0.0045 0.0105 1.70422603693e-05
0.0045 0.0115 1.24086173803e-05
0.0045 0.0125 9.65437911789e-06
0.0045 0.0135 8.01958094857e-06
0.0045 0.0145 7.0719925829e-06
0.0045 0.0155 6.51771631787e-06
0.0045 0.0165 6.16902995785e-06
0.0045 0.0175 5.92266646986e-06
0.0045 0.0185 5.73023783939e-06
0.0045 0.0195 5.57624130392e-06
0.0045 0.0205 5.46226167793e-06
0.0045 0.0215 5.39521267604e-06
0.0045 0.0225 5.37955315363e-06
0.0045 0.0235 5.41313420312e-06
0.0045 0.0245 5.48534839328e-06
0.0045 0.0255 5.57297413594e-06
0.0045 0.0265 5.63870056764e-06
0.0045 0.0275 5.60732153585e-06
0.0045 0.0285 5.4375503552e-06
0.0045 0.0295 4.93456675322e-06
0.0045 0.0305 4.83621558424e-06
0.0045 0.0315 2.62602272114e-06
0.0055 -0.0315 1.57755669291e-06
0.0055 -0.0305 3.18134578935e-06
0.0055 -0.0295 3.7491148359e-06
0.0055 -0.0285 4.29319840294e-06
0.0055 -0.0275 4.6393474859e-06
0.0055 -0.0265 5.03654141745e-06
0.0055 -0.0255 5.92332785842e-06
0.0055 -0.0245 8.15714627242e-06
0.0055 -0.0235 1.37318230554e-05
0.0055 -0.0225 2.98887857869e-05
0.0055 -0.0215 9.81239375629e-05
0.0055 -0.0205 0.000345402126269
0.0055 -0.0195 0.00110384742869
0.0055 -0.0185 0.00136712882698
0.0055 -0.0175 0.00355018625105
0.0055 -0.0165 0.0251774449767
0.0055 -0.0155 0.0513736096319
0.0055 -0.0145 0.0592982557091
0.0055 -0.0135 0.0486642164415
0.0055 -0.0125 0.0282707045036
0.0055 -0.0115 0.0132163889606
0.0055 -0.0105 0.0132491601884
0.0055 -0.0095 0.0220171929751
0.0055 -0.0085 0.0289860219471
0.0055 -0.0075 0.0301975092917
0.0055 -0.0065 0.0266914348559
0.0055 -0.0055 0.0212329565982
0.0055 -0.0045 0.0164484820762
0.0055 -0.0035 0.0140894008439
0.0055 -0.0025 0.0147091397106
0.0055 -0.0015 0.0176061123559
0.0055 -0.0005 0.0207699516148
0.0055 0.0005 0.0212682188768
0.0055 0.0015 0.0168058903795
0.0055 0.0025 0.00941028796107
0.0055 0.0035 0.00397787631773
0.0055 0.0045 0.00167785927262
0.0055 0.0055 0.000754228404923
0.0055 0.0065 0.000303640556094
0.0055 0.0075 0.000138421530161
0.0055 0.0085 7.85969123884e-05
0.0055 0.0095 4.61421627429e-05
0.0055 0.0105 2.84925136475e-05
0.0055 0.0115 1.87503262023e-05
0.0055 0.0125 1.3003128706e-05
0.0055 0.0135 9.80336416511e-06
0.0055 0.0145 8.10658395043e-06
0.0055 0.0155 7.18867694374e-06
0.0055 0.0165 6.65130135661e-06
0.0055 0.0175 6.29335349644e-06
0.0055 0.0185 6.02743934503e-06
0.0055 0.0195 5.82615140563e-06
0.0055 0.0205 5.68775790094e-06
0.0055 0.0215 5.61505623218e-06
0.0055 0.0225 5.60517420884e-06
0.0055 0.0235 5.64565649442e-06
0.0055 0.0245 5.71331384167e-06
0.0055 0.0255 5.77081121021e-06
0.0055 0.0265 5.76985465799e-06
0.0055 0.0275 5.63959002596e-06
0.0055 0.0285 5.38335769511e-06
0.0055 0.0295 4.85846511732e-06
0.0055 0.0305 4.93281405556e-06
0.0055 0.0315 2.75555656258e-06
0.0065 -0.0315 1.70121115066e-06
0.0065 -0.0305 3.4691570608e-06
0.0065 -0.0295 4.15566613521e-06
0.0065 -0.0285 4.79516717741e-06
0.0065 -0.0275 5.19343007246e-06
0.0065 -0.0265 5.57790203086e-06
0.0065 -0.0255 6.35939538184e-06
0.0065 -0.0245 8.372154737e-06
0.0065 -0.0235 1.35821408789e-05
0.0065 -0.0225 2.89122133297e-05
0.0065 -0.0215 8.88674628546e-05
0.0065 -0.0205 0.000271140337357
0.0065 -0.0195 0.000763201564734
0.0065 -0.0185 0.00140625931362
0.0065 -0.0175 0.000882196380242
0.0065 -0.0165 0.0171551773564
0.0065 -0.0155 0.0428074454572
0.0065 -0.0145 0.0550760005083
0.0065 -0.0135 0.050646094077
0.0065 -0.0125 0.0365110626517
0.0065 -0.0115 0.0240234103257
0.0065 -0.0105 0.0240293264693
0.0065 -0.0095 0.0300758309292
0.0065 -0.0085 0.0318379218971
0.0065 -0.0075 0.0272977237398
0.0065 -0.0065 0.0194714544
0.0065 -0.0055 0.0123306364533
0.0065 -0.0045 0.00798301755614
0.0065 -0.0035 0.00666308454135
0.0065 -0.0025 0.00839332147234
0.0065 -0.0015 0.0129226234931
0.0065 -0.0005 0.018607083485
0.0065 0.0005 0.0224661194916
0.0065 0.0015 0.0215307175284
0.0065 0.0025 0.0156675867022
0.0065 0.0035 0.00866241816416
0.0065 0.0045 0.00399792707296
0.0065 0.0055 0.00179635834078
0.0065 0.0065 0.000817836790215
0.0065 0.0075 0.000389701886644
0.0065 0.0085 0.000197598251939
0.0065 0.0095 9.84464273218e-05
0.0065 0.0105 5.71059015437e-05
0.0065 0.0115 3.31041571448e-05
0.0065 0.0125 2.0036703739e-05
0.0065 0.0135 1.34384536262e-05
0.0065 0.0145 1.00609515779e-05
0.0065 0.0155 8.29642207997e-06
0.0065 0.0165 7.30931200432e-06
0.0065 0.0175 6.69655974463e-06
0.0065 0.0185 6.28133771947e-06
0.0065 0.0195 5.99864464592e-06
0.0065 0.0205 5.82511776136e-06
0.0065 0.0215 5.74580827712e-06
0.0065 0.0225 5.74112084938e-06
0.0065 0.0235 5.78328483922e-06
0.0065 0.0245 5.83569732952e-06
0.0065 0.0255 5.85155257998e-06
0.0065 0.0265 5.78408388734e-06
0.0065 0.0275 5.58184004324e-06
0.0065 0.0285 5.2872334518e-06
0.0065 0.0295 4.77916885301e-06
0.0065 0.0305 5.02024669576e-06
0.0065 0.0315 2.86881574844e-06
0.0075 -0.0315 1.84294542363e-06
0.0075 -0.0305 3.80367002342e-06
0.0075 -0.0295 4.62243647143e-06
0.0075 -0.0285 5.36565465456e-06
0.0075 -0.0275 5.83207626652e-06
0.0075 -0.0265 6.25534840543e-06
0.0075 -0.0255 7.05401978226e-06
0.0075 -0.0245 9.05636585653e-06
0.0075 -0.0235 1.39881860023e-05
0.0075 -0.0225 2.74012479705e-05
0.0075 -0.0215 7.29455434704e-05
0.0075 -0.0205 0.000221047227527
0.0075 -0.0195 0.000655463347
0.0075 -0.0185 0.00169958753999
0.0075 -0.0175 0.00150265563817
0.0075 -0.0165 0.0109159816246
0.0075 -0.0155 0.0337404652891
0.0075 -0.0145 0.0480969705958
0.0075 -0.0135 0.0470772972442
0.0075 -0.0125 0.0373497903197
0.0075 -0.0115 0.0283205634373
0.0075 -0.0105 0.0283161367023
0.0075 -0.0095 0.0303135797059
0.0075 -0.0085 0.0262243301299
0.0075 -0.0075 0.0174723114804
0.0075 -0.0065 0.00947799017279
0.0075 -0.0055 0.00479495405031
0.0075 -0.0045 0.0027414675532
0.0075 -0.0035 0.00231045123876
0.0075 -0.0025 0.00362056983745
0.0075 -0.0015 0.00741453069462
0.0075 -0.0005 0.0136451490112
0.0075 0.0005 0.0200594255771
0.0075 0.0015 0.0232110993802
0.0075 0.0025 0.0212263600493
0.0075 0.0035 0.0154026420337
0.0075 0.0045 0.00904893594489
0.0075 0.0055 0.00456162964119
0.0075 0.0065 0.00218176087532
0.0075 0.0075 0.00109007896916
0.0075 0.0085 0.000555133917485
0.0075 0.0095 0.000279203464552
0.0075 0.0105 0.00014296486099
0.0075 0.0115 6.70065795217e-05
0.0075 0.0125 3.56798232682e-05
0.0075 0.0135 2.11736369485e-05
0.0075 0.0145 1.41128224038e-05
0.0075 0.0155 1.04487398603e-05
0.0075 0.0165 8.45576449944e-06
0.0075 0.0175 7.28277502519e-06
0.0075 0.0185 6.56223982663e-06
0.0075 0.0195 6.12875240852e-06
0.0075 0.0205 5.89681784342e-06
0.0075 0.0215 5.80633618338e-06
0.0075 0.0225 5.80651008086e-06
0.0075 0.0235 5.84886577633e-06
0.0075 0.0245 5.88377661237e-06
0.0075 0.0255 5.86066299554e-06
0.0075 0.0265 5.74208817473e-06
0.0075 0.0275 5.49620341047e-06
0.0075 0.0285 5.19179663556e-06
0.0075 0.0295 4.71543262924e-06
0.0075 0.0305 5.10795450876e-06
0.0075 0.0315 2.97194226065e-06
0.0085 -0.0315 2.0000262917e-06
0.0085 -0.0305 4.17497026391e-06
0.0085 -0.0295 5.13919050815e-06
0.0085 -0.0285 6.00556513805e-06
0.0085 -0.0275 6.57484305581e-06
0.0085 -0.0265 7.11485050565e-06
0.0085 -0.0255 8.09864939377e-06
0.0085 -0.0245 1.03975662612e-05
0.0085 -0.0235 1.56406360244e-05
0.0085 -0.0225 2.84857339012e-05
0.0085 -0.0215 6.59959737475e-05
0.0085 -0.0205 0.00022006716424
0.0085 -0.0195 0.00079183822821
0.0085 -0.0185 0.00225191657131
0.0085 -0.0175 0.00215625412298
0.0085 -0.0165 0.00752774579583
0.0085 -0.0155 0.0265065286726
0.0085 -0.0145 0.0398580387147
0.0085 -0.0135 0.0395293114622
0.0085 -0.0125 0.0314815093116
0.0085 -0.0115 0.0247178552663
0.0085 -0.0105 0.0241945837518
0.0085 -0.0095 0.0218543929362
0.0085 -0.0085 0.0144764970079
0.0085 -0.0075 0.00722205341098
0.0085 -0.0065 0.00336924873658
0.0085 -0.0055 0.0017991071783
0.0085 -0.0045 0.00112197291735
0.0085 -0.0035 0.000932876619549
0.0085 -0.0025 0.00147397203725
0.0085 -0.0015 0.00346856002609
0.0085 -0.0005 0.00796701828606
0.0085 0.0005 0.0146512109671
0.0085 0.0015 0.0207862630188
0.0085 0.0025 0.0233532923331
0.0085 0.0035 0.0214212444087
0.0085 0.0045 0.0163183784602
0.0085 0.0055 0.0104640249827
0.0085 0.0065 0.0058242875804
0.0085 0.0075 0.00299208515323
0.0085 0.0085 0.00152868728955
0.0085 0.0095 0.000803306902702
0.0085 0.0105 0.000397653975232
0.0085 0.0115 0.000169496599655
0.0085 0.0125 7.47800346374e-05
0.0085 0.0135 3.90419410426e-05
0.0085 0.0145 2.28612021114e-05
0.0085 0.0155 1.50216264316e-05
0.0085 0.0165 1.08016380054e-05
0.0085 0.0175 8.41561888606e-06
0.0085 0.0185 7.04654119545e-06
0.0085 0.0195 6.30841702225e-06
0.0085 0.0205 5.9574879507e-06
0.0085 0.0215 5.83404854945e-06
0.0085 0.0225 5.83255644458e-06
0.0085 0.0235 5.87371763312e-06
0.0085 0.0245 5.89244096757e-06
0.0085 0.0255 5.83683978277e-06
0.0085 0.0265 5.68061286523e-06
0.0085 0.0275 5.40797560981e-06
0.0085 0.0285 5.1068695707e-06
0.0085 0.0295 4.6654389236e-06
0.0085 0.0305 5.19169307559e-06
0.0085 0.0315 3.06425536905e-06
0.0095 -0.0315 2.16966631199e-06
0.0095 -0.0305 4.57393439952e-06
0.0095 -0.0295 5.69411378883e-06
0.0095 -0.0285 6.70641916223e-06
0.0095 -0.0275 7.42333992334e-06
0.0095 -0.0265 8.18948192779e-06
0.0095 -0.0255 9.64203899484e-06
0.0095 -0.0245 1.29069412986e-05
0.0095 -0.0235 1.98618523083e-05
0.0095 -0.0225 3.6520244328e-05
0.0095 -0.0215 9.28063155576e-05
0.0095 -0.0205 0.000312689270647
0.0095 -0.0195 0.00118063117904
0.0095 -0.0185 0.00286732087647
0.0095 -0.0175 0.0015238090703
0.0095 -0.0165 0.00842033522177
0.0095 -0.0155 0.0237978206225
0.0095 -0.0145 0.0330912875619
0.0095 -0.0135 0.0309124033199
0.0095 -0.0125 0.022125089289
0.0095 -0.0115 0.0156510544881
0.0095 -0.0105 0.0139438765748
0.0095 -0.0095 0.0100250326977
0.0095 -0.0085 0.00486121999794
0.0095 -0.0075 0.0021042911036
0.0095 -0.0065 0.00122799042659
0.0095 -0.0055 0.000743126238347
0.0095 -0.0045 0.00046087293462
0.0095 -0.0035 0.000391453851166
0.0095 -0.0025 0.000635253778612
0.0095 -0.0015 0.0014796673686
0.0095 -0.0005 0.00371941288577
0.0095 0.0005 0.00837740738092
0.0095 0.0015 0.0148784494224
0.0095 0.0025 0.020630117337
0.0095 0.0035 0.0232684163979
0.0095 0.0045 0.0221337145945
0.0095 0.0055 0.018059966195
0.0095 0.0065 0.0127093985911
0.0095 0.0075 0.00778339400383
0.0095 0.0085 0.00425720382221
0.0095 0.0095 0.00218164500276
0.0095 0.0105 0.00108378494178
0.0095 0.0115 0.000492901706967
0.0095 0.0125 0.000198331725998
0.0095 0.0135 8.44564742149e-05
0.0095 0.0145 4.3628050425e-05
0.0095 0.0155 2.52856719911e-05
0.0095 0.0165 1.60604904715e-05
0.0095 0.0175 1.08716013993e-05
0.0095 0.0185 8.10210172099e-06
0.0095 0.0195 6.73469608371e-06
0.0095 0.0205 6.12056499463e-06
0.0095 0.0215 5.90316434304e-06
0.0095 0.0225 5.87575733841e-06
0.0095 0.0235 5.90509179664e-06
0.0095 0.0245 5.90191592615e-06
0.0095 0.0255 5.81252515067e-06
0.0095 0.0265 5.62193252183e-06
0.0095 0.0275 5.32809335268e-06
0.0095 0.0285 5.03384102481e-06
0.0095 0.0295 4.62528088019e-06
0.0095 0.0305 5.26971747931e-06
0.0095 0.0315 3.14692417574e-06
0.0105 -0.0315 2.34898273007e-06
0.0105 -0.0305 4.99097955992e-06
0.0105 -0.0295 6.27132168124e-06
0.0105 -0.0285 7.44797202332e-06
0.0105 -0.0275 8.35753418268e-06
0.0105 -0.0265 9.47849256877e-06
0.0105 -0.0255 1.17756642246e-05
0.0105 -0.0245 1.7112705406e-05
0.0105 -0.0235 2.84149856317e-05
0.0105 -0.0225 5.20973152435e-05
0.0105 -0.0215 0.000132534328367
0.0105 -0.0205 0.000472329165751
0.0105 -0.0195 0.0016816365604
0.0105 -0.0185 0.00263250071125
0.0105 -0.0175 0.0028394179293
0.0105 -0.0165 0.0144535643987
0.0105 -0.0155 0.0261901262718
0.0105 -0.0145 0.0302693730636
0.0105 -0.0135 0.0247200303731
0.0105 -0.0125 0.0137041654811
0.0105 -0.0115 0.00629288327621
0.0105 -0.0105 0.00464126077012
0.0105 -0.0095 0.00277713781433
0.0105 -0.0085 0.00125275072022
0.0105 -0.0075 0.000635468891863
0.0105 -0.0065 0.000389251469088
0.0105 -0.0055 0.000258813126709
0.0105 -0.0045 0.000184466237419
0.0105 -0.0035 0.000163657766828
0.0105 -0.0025 0.000254873443876
0.0105 -0.0015 0.000608813216491
0.0105 -0.0005 0.00152011261297
0.0105 0.0005 0.0037301714709
0.0105 0.0015 0.00809807365765
0.0105 0.0025 0.01409187616
0.0105 0.0035 0.0196576108202
0.0105 0.0045 0.0228672390813
0.0105 0.0055 0.0229297321507
0.0105 0.0065 0.0201045096571
0.0105 0.0075 0.0153962646915
0.0105 0.0085 0.0102082478558
0.0105 0.0095 0.00583450713003
0.0105 0.0105 0.00293213229566
0.0105 0.0115 0.00135455042802
0.0105 0.0125 0.000581179048739
0.0105 0.0135 0.000227305906174
0.0105 0.0145 9.82846096615e-05
0.0105 0.0155 5.23356656876e-05
0.0105 0.0165 2.81671291085e-05
0.0105 0.0175 1.61000223327e-05
0.0105 0.0185 1.04329342039e-05
0.0105 0.0195 7.76536933598e-06
0.0105 0.0205 6.58158581438e-06
0.0105 0.0215 6.12993426649e-06
0.0105 0.0225 6.01032649286e-06
0.0105 0.0235 5.99009894796e-06
0.0105 0.0245 5.94033898969e-06
0.0105 0.0255 5.80247261375e-06
0.0105 0.0265 5.57139737171e-06
0.0105 0.0275 5.25560228311e-06
0.0105 0.0285 4.96830743292e-06
0.0105 0.0295 4.59020697719e-06
0.0105 0.0305 5.3405152945e-06
0.0105 0.0315 3.22065839949e-06
0.0115 -0.0315 2.53550297909e-06
0.0115 -0.0305 5.41692130216e-06
0.0115 -0.0295 6.85257981981e-06
0.0115 -0.0285 8.20137794142e-06
0.0115 -0.0275 9.33496603135e-06
0.0115 -0.0265 1.09164105383e-05
0.0115 -0.0255 1.43834657087e-05
0.0115 -0.0245 2.2737574658e-05
0.0115 -0.0235 4.21389671665e-05
0.0115 -0.0225 8.32432304305e-05
0.0115 -0.0215 0.000172772502772
0.0115 -0.0205 0.000622410713384
0.0115 -0.0195 0.00174293081307
0.0115 -0.0185 0.0020658573709
0.0115 -0.0175 0.0103176751835
0.0115 -0.0165 0.0222883464703
0.0115 -0.0155 0.0298060263406
0.0115 -0.0145 0.0289803285258
0.0115 -0.0135 0.0198744841172
0.0115 -0.0125 0.00840612832721
0.0115 -0.0115 0.00216045824788
0.0115 -0.0105 0.000994131686525
0.0115 -0.0095 0.000691258034763
0.0115 -0.0085 0.000391222060915
0.0115 -0.0075 0.000226353149033
0.0115 -0.0065 0.000151620177517
0.0115 -0.0055 0.0001123522895
0.0115 -0.0045 9.0854768611e-05
0.0115 -0.0035 8.92747881954e-05
0.0115 -0.0025 0.000119897398565
0.0115 -0.0015 0.000239822260932
0.0115 -0.0005 0.000599762242571
0.0115 0.0005 0.00145430058903
0.0115 0.0015 0.00339809330917
0.0115 0.0025 0.00713494958546
0.0115 0.0035 0.012446819309
0.0115 0.0045 0.0179100911438
0.0115 0.0055 0.0218840942834
0.0115 0.0065 0.0233075420183
0.0115 0.0075 0.0218567332955
0.0115 0.0085 0.0179328835739
0.0115 0.0095 0.0126096039184
0.0115 0.0105 0.00742563998639
0.0115 0.0115 0.00365802100808
0.0115 0.0125 0.00159606225901
0.0115 0.0135 0.000675270242522
0.0115 0.0145 0.000296142772145
0.0115 0.0155 0.000134410432809
0.0115 0.0165 5.62960326696e-05
0.0115 0.0175 2.75353857482e-05
0.0115 0.0185 1.54384002827e-05
0.0115 0.0195 1.00924501548e-05
0.0115 0.0205 7.68864573764e-06
0.0115 0.0215 6.69446914886e-06
0.0115 0.0225 6.32348623727e-06
0.0115 0.0235 6.16563882645e-06
0.0115 0.0245 6.0188125755e-06
0.0115 0.0255 5.80621752636e-06
0.0115 0.0265 5.52456509716e-06
0.0115 0.0275 5.18535087891e-06
0.0115 0.0285 4.90575476979e-06
0.0115 0.0295 4.55715583308e-06
0.0115 0.0305 5.40426126187e-06
0.0115 0.0315 3.28686960505e-06
0.0125 -0.0315 2.72734486736e-06
0.0125 -0.0305 5.84357162294e-06
0.0125 -0.0295 7.41935870593e-06
0.0125 -0.0285 8.93330558051e-06
0.0125 -0.0275 1.02941109894e-05
0.0125 -0.0265 1.23681498569e-05
0.0125 -0.0255 1.70974163447e-05
0.0125 -0.0245 2.86305271563e-05
0.0125 -0.0235 5.66541770666e-05
0.0125 -0.0225 0.00012112837195
0.0125 -0.0215 0.00021812314235
0.0125 -0.0205 0.000670481426681
0.0125 -0.0195 0.00149529047602
0.0125 -0.0185 0.00713082631271
0.0125 -0.0175 0.018282467814
0.0125 -0.0165 0.0275631153848
0.0125 -0.0155 0.0300784555493
0.0125 -0.0145 0.02430630971
0.0125 -0.0135 0.0130920120376
0.0125 -0.0125 0.00422600344409
0.0125 -0.0115 0.00104284787048
0.0125 -0.0105 0.00037265431671
0.0125 -0.0095 0.000201252642104
0.0125 -0.0085 0.000132541605118
0.0125 -0.0075 9.18489189875e-05
0.0125 -0.0065 6.87000552245e-05
0.0125 -0.0055 5.63290263812e-05
0.0125 -0.0045 5.10947837629e-05
0.0125 -0.0035 5.33702276513e-05
0.0125 -0.0025 6.77894813989e-05
0.0125 -0.0015 0.000107356446282
0.0125 -0.0005 0.000226406721471
0.0125 0.0005 0.000559087667333
0.0125 0.0015 0.00128815888741
0.0125 0.0025 0.00280905050587
0.0125 0.0035 0.00572159524041
0.0125 0.0045 0.0101986315441
0.0125 0.0055 0.0154808521291
0.0125 0.0065 0.0201933211177
0.0125 0.0075 0.0229735130759
0.0125 0.0085 0.0229169596565
0.0125 0.0095 0.0198490591084
0.0125 0.0105 0.0145493721755
0.0125 0.0115 0.00873244610478
0.0125 0.0125 0.00425653602517
0.0125 0.0135 0.00184044643298
0.0125 0.0145 0.00082122916627
0.0125 0.0155 0.000358383853488
0.0125 0.0165 0.00013557487372
0.0125 0.0175 5.4708671042e-05
0.0125 0.0185 2.67881289174e-05
0.0125 0.0195 1.51791436572e-05
0.0125 0.0205 1.00920082142e-05
0.0125 0.0215 7.84742051393e-06
0.0125 0.0225 6.90078819947e-06
0.0125 0.0235 6.45093145409e-06
0.0125 0.0245 6.13277011954e-06
0.0125 0.0255 5.81467065496e-06
0.0125 0.0265 5.4744807085e-06
0.0125 0.0275 5.11329207247e-06
0.0125 0.0285 4.84421434951e-06
0.0125 0.0295 4.52554698198e-06
0.0125 0.0305 5.46243738015e-06
0.0125 0.0315 3.34717915726e-06
0.0135 -0.0315 2.92341960048e-06
0.0135 -0.0305 6.2647297453e-06
0.0135 -0.0295 7.95570889544e-06
0.0135 -0.0285 9.61204553885e-06
0.0135 -0.0275 1.11691531523e-05
0.0135 -0.0265 1.36759374161e-05
0.0135 -0.0255 1.94785941661e-05
0.0135 -0.0245 3.3596270983e-05
0.0135 -0.0235 6.76870710981e-05
0.0135 -0.0225 0.000154553885132
0.0135 -0.0215 0.000312572962999
0.0135 -0.0205 0.000800518783875
0.0135 -0.0195 0.00401542903535
0.0135 -0.0185 0.0131205095409
0.0135 -0.0175 0.0234726138415
0.0135 -0.0165 0.0286085706427
0.0135 -0.0155 0.0259228888475
0.0135 -0.0145 0.016493617115
0.0135 -0.0135 0.00672710736175
0.0135 -0.0125 0.00187089717247
0.0135 -0.0115 0.000529161118537
0.0135 -0.0105 0.000188691090045
0.0135 -0.0095 8.75680486384e-05
0.0135 -0.0085 5.65831650768e-05
0.0135 -0.0075 4.36523592496e-05
0.0135 -0.0065 3.69150431266e-05
0.0135 -0.0055 3.33988890041e-05
0.0135 -0.0045 3.23804975262e-05
0.0135 -0.0035 3.45587609389e-05
0.0135 -0.0025 4.1815927962e-05
0.0135 -0.0015 5.85873110687e-05
0.0135 -0.0005 9.69940849162e-05
0.0135 0.0005 0.000204974413684
0.0135 0.0015 0.000488599524799
0.0135 0.0025 0.00103053293837
0.0135 0.0035 0.00208017261682
0.0135 0.0045 0.00418907158313
0.0135 0.0055 0.00779230174971
0.0135 0.0065 0.0127620379061
0.0135 0.0075 0.0180687101077
0.0135 0.0085 0.0220768312212
0.0135 0.0095 0.0233012396247
0.0135 0.0105 0.0210440500653
0.0135 0.0115 0.0158609056339
0.0135 0.0125 0.0096399181028
0.0135 0.0135 0.00471492654986
0.0135 0.0145 0.00204156654443
0.0135 0.0155 0.0008836851554
0.0135 0.0165 0.000360799213545
0.0135 0.0175 0.000134582500335
0.0135 0.0185 5.47833838931e-05
0.0135 0.0195 2.66255875365e-05
0.0135 0.0205 1.47978378081e-05
0.0135 0.0215 9.87670294662e-06
0.0135 0.0225 7.82171387082e-06
0.0135 0.0235 6.85602333214e-06
0.0135 0.0245 6.27516772168e-06
0.0135 0.0255 5.82191378137e-06
0.0135 0.0265 5.41938573201e-06
0.0135 0.0275 5.04055111603e-06
0.0135 0.0285 4.78578683171e-06
0.0135 0.0295 4.49728669222e-06
0.0135 0.0305 5.51762262527e-06
0.0135 0.0315 3.40346557862e-06
0.0145 -0.0315 3.12350185235e-06
0.0145 -0.0305 6.67692351985e-06
0.0145 -0.0295 8.45086796655e-06
0.0145 -0.0285 1.02144779755e-05
0.0145 -0.0275 1.19110654905e-05
0.0145 -0.0265 1.47279243374e-05
0.0145 -0.0255 2.12750962933e-05
0.0145 -0.0245 3.72071941301e-05
0.0145 -0.0235 7.64058029494e-05
0.0145 -0.0225 0.000196464190499
0.0145 -0.0215 0.000508167879825
0.0145 -0.0205 0.00177102513182
0.0145 -0.0195 0.00741765614211
0.0145 -0.0185 0.0176644749674
0.0145 -0.0175 0.0256417447579
0.0145 -0.0165 0.0264472148701
0.0145 -0.0155 0.0195884221541
0.0145 -0.0145 0.00959605850172
0.0145 -0.0135 0.00331716034443
0.0145 -0.0125 0.00111566493587
0.0145 -0.0115 0.000325004304286
0.0145 -0.0105 0.000117949118456
0.0145 -0.0095 5.30049700888e-05
0.0145 -0.0085 3.22175763724e-05
0.0145 -0.0075 2.56697853952e-05
0.0145 -0.0065 2.3576486867e-05
0.0145 -0.0055 2.29181115903e-05
0.0145 -0.0045 2.30334793078e-05
0.0145 -0.0035 2.42951170653e-05
0.0145 -0.0025 2.77811127534e-05
0.0145 -0.0015 3.52560581606e-05
0.0145 -0.0005 5.06491650111e-05
0.0145 0.0005 8.49244643464e-05
0.0145 0.0015 0.000173350273458