% Model:              Benchmark260518.mph
% Version:            COMSOL 6.2.0.339
% Date:               May 21 2026, 07:39
% Dimension:          2
% Nodes:              4096
% Expressions:        1
% Description:        速度大小
% Length unit:        m
% x                       y                        spf.U (m/s)
5.0E-4                    -0.0315                  2.107431599564279E-6
5.0E-4                    -0.0305                  4.222267623245877E-6
5.0E-4                    -0.0295                  4.7505282986650916E-6
5.0E-4                    -0.0285                  5.318916757831407E-6
5.0E-4                    -0.0275                  5.61953076643319E-6
5.0E-4                    -0.0265                  5.897193364203478E-6
5.0E-4                    -0.0255                  6.114767841365457E-6
5.0E-4                    -0.0245                  6.301124405293222E-6
5.0E-4                    -0.0235                  6.458632158385328E-6
5.0E-4                    -0.0225                  6.5931929549269805E-6
5.0E-4                    -0.0215                  6.713913647100287E-6
5.0E-4                    -0.0205                  6.829865419069172E-6
5.0E-4                    -0.0195                  6.9514187923317435E-6
5.0E-4                    -0.0185                  7.084864843380744E-6
5.0E-4                    -0.0175                  7.2418437310389205E-6
5.0E-4                    -0.0165                  7.439102190884876E-6
5.0E-4                    -0.0155                  7.715371303905175E-6
5.0E-4                    -0.0145                  8.151856831093937E-6
5.0E-4                    -0.0135                  8.957330600888663E-6
5.0E-4                    -0.0125                  1.0516476918449554E-5
5.0E-4                    -0.0115                  1.414616664165499E-5
5.0E-4                    -0.0105                  2.4653643172661522E-5
5.0E-4                    -0.0095                  5.578050701444926E-5
5.0E-4                    -0.0085                  1.5800707592945095E-4
5.0E-4                    -0.0075                  3.341805277927874E-4
5.0E-4                    -0.0065                  5.251114984616627E-4
5.0E-4                    -0.0055                  8.193830045524887E-4
5.0E-4                    -0.0045                  0.001456066818147261
5.0E-4                    -0.0035                  0.0024512207862276737
5.0E-4                    -0.0025                  0.0035682433231915573
5.0E-4                    -0.0015                  0.004513295841382896
5.0E-4                    -5.0E-4                  0.005053540728222499
5.0E-4                    5.0E-4                   0.005091830924055042
5.0E-4                    0.0015                   0.004657484475972381
5.0E-4                    0.0025                   0.0038852138902535664
5.0E-4                    0.0035                   0.0029766642790106587
5.0E-4                    0.0045                   0.002149404473613772
5.0E-4                    0.0055                   0.0017403469753595998
5.0E-4                    0.0065                   0.0026389377415824704
5.0E-4                    0.0075                   0.0066284702291347294
5.0E-4                    0.0085                   0.018004606407318675
5.0E-4                    0.0095                   0.026023177574239574
5.0E-4                    0.0105                   0.024125795926477196
5.0E-4                    0.0115                   0.02074306404437029
5.0E-4                    0.0125                   0.016438285947067425
5.0E-4                    0.0135                   0.012578623871074626
5.0E-4                    0.0145                   0.009513057634318102
5.0E-4                    0.0155                   0.007277556162086583
5.0E-4                    0.0165                   0.005565228553255468
5.0E-4                    0.0175                   0.004014088953224233
5.0E-4                    0.0185                   0.002523791447246652
5.0E-4                    0.0195                   0.0012958573104645437
5.0E-4                    0.0205                   5.527382476399952E-4
5.0E-4                    0.0215                   2.2579790860573107E-4
5.0E-4                    0.0225                   1.0087184275530021E-4
5.0E-4                    0.0235                   4.7233514728958675E-5
5.0E-4                    0.0245                   1.3164886428234517E-5
5.0E-4                    0.0255                   7.2099698762378155E-6
5.0E-4                    0.0265                   4.783176392914333E-6
5.0E-4                    0.0275                   3.6617388718007406E-6
5.0E-4                    0.0285                   3.006126541715857E-6
5.0E-4                    0.0295                   2.511582573918893E-6
5.0E-4                    0.0305                   2.161780495497927E-6
5.0E-4                    0.0315                   1.0556673838272904E-6
0.0015                    -0.0315                  4.0950461679786306E-6
0.0015                    -0.0305                  8.096760159271572E-6
0.0015                    -0.0295                  8.710920576617573E-6
0.0015                    -0.0285                  9.32673704086781E-6
0.0015                    -0.0275                  9.538485175662718E-6
0.0015                    -0.0265                  9.743917898791097E-6
0.0015                    -0.0255                  9.906342883425786E-6
0.0015                    -0.0245                  1.0050923170322774E-5
0.0015                    -0.0235                  1.0172959674772667E-5
0.0015                    -0.0225                  1.0273911507075056E-5
0.0015                    -0.0215                  1.036257387852123E-5
0.0015                    -0.0205                  1.0452495153738331E-5
0.0015                    -0.0195                  1.0560844333807466E-5
0.0015                    -0.0185                  1.0702075245362916E-5
0.0015                    -0.0175                  1.0897092159035914E-5
0.0015                    -0.0165                  1.117929077049487E-5
0.0015                    -0.0155                  1.1623671579302237E-5
0.0015                    -0.0145                  1.2406626742107686E-5
0.0015                    -0.0135                  1.3974026595187727E-5
0.0015                    -0.0125                  1.7339278808484015E-5
0.0015                    -0.0115                  2.5630717915707226E-5
0.0015                    -0.0105                  4.823888944599608E-5
0.0015                    -0.0095                  1.0903966100517639E-4
0.0015                    -0.0085                  3.0378719110094846E-4
0.0015                    -0.0075                  7.186858076430101E-4
0.0015                    -0.0065                  0.0015259371278088078
0.0015                    -0.0055                  0.0031805761663866055
0.0015                    -0.0045                  0.005781906094613605
0.0015                    -0.0035                  0.008780998090378887
0.0015                    -0.0025                  0.011546429823385483
0.0015                    -0.0015                  0.013629387643134327
0.0015                    -5.0E-4                  0.01481401905671604
0.0015                    5.0E-4                   0.015069591989169576
0.0015                    0.0015                   0.014500559594234373
0.0015                    0.0025                   0.0133103046547458
0.0015                    0.0035                   0.011813966442920716
0.0015                    0.0045                   0.01046007672351893
0.0015                    0.0055                   0.010028525071058635
0.0015                    0.0065                   0.011903080426850496
0.0015                    0.0075                   0.017496142528138824
0.0015                    0.0085                   0.023587734804177873
0.0015                    0.0095                   0.024627526753729794
0.0015                    0.0105                   0.021635497692391217
0.0015                    0.0115                   0.017641381867331024
0.0015                    0.0125                   0.013567906427861931
0.0015                    0.0135                   0.010554407491665885
0.0015                    0.0145                   0.008773695001651252
0.0015                    0.0155                   0.00787403913298965
0.0015                    0.0165                   0.007113501571815695
0.0015                    0.0175                   0.005960457225965618
0.0015                    0.0185                   0.0043329263972671965
0.0015                    0.0195                   0.002587845527765852
0.0015                    0.0205                   0.0012257777620174246
0.0015                    0.0215                   4.7481854964560936E-4
0.0015                    0.0225                   1.732958089635943E-4
0.0015                    0.0235                   6.967104561928204E-5
0.0015                    0.0245                   3.4029892552195804E-5
0.0015                    0.0255                   1.6581433319329216E-5
0.0015                    0.0265                   9.838937472602298E-6
0.0015                    0.0275                   6.995759931690127E-6
0.0015                    0.0285                   5.6524777314696665E-6
0.0015                    0.0295                   4.803698783547139E-6
0.0015                    0.0305                   4.24969099043933E-6
0.0015                    0.0315                   2.098247967556206E-6
0.0025                    -0.0315                  4.300390771146689E-6
0.0025                    -0.0305                  8.210250201211792E-6
0.0025                    -0.0295                  8.373260391974389E-6
0.0025                    -0.0285                  8.666204496147624E-6
0.0025                    -0.0275                  8.531518478397086E-6
0.0025                    -0.0265                  8.36633813877435E-6
0.0025                    -0.0255                  8.201970276227868E-6
0.0025                    -0.0245                  8.05978623183498E-6
0.0025                    -0.0235                  7.928702565910308E-6
0.0025                    -0.0225                  7.799930364632763E-6
0.0025                    -0.0215                  7.672285809020307E-6
0.0025                    -0.0205                  7.557023621831252E-6
0.0025                    -0.0195                  7.474305299077154E-6
0.0025                    -0.0185                  7.448670728683037E-6
0.0025                    -0.0175                  7.5075732530981315E-6
0.0025                    -0.0165                  7.695243576391919E-6
0.0025                    -0.0155                  8.112107323916735E-6
0.0025                    -0.0145                  9.014189360695837E-6
0.0025                    -0.0135                  1.1066224345189802E-5
0.0025                    -0.0125                  1.6007849979581054E-5
0.0025                    -0.0115                  2.823664332356037E-5
0.0025                    -0.0105                  6.180951933047502E-5
0.0025                    -0.0095                  1.6791142994162042E-4
0.0025                    -0.0085                  4.896316472891608E-4
0.0025                    -0.0075                  0.0013828972075447304
0.0025                    -0.0065                  0.003599833079130992
0.0025                    -0.0055                  0.007423341733704879
0.0025                    -0.0045                  0.011842234462639106
0.0025                    -0.0035                  0.015628722694569663
0.0025                    -0.0025                  0.01834257944552569
0.0025                    -0.0015                  0.020126685878854824
0.0025                    -5.0E-4                  0.02124869009415209
0.0025                    5.0E-4                   0.021888313264346947
0.0025                    0.0015                   0.022096669953918405
0.0025                    0.0025                   0.021862266772220227
0.0025                    0.0035                   0.02122829571532058
0.0025                    0.0045                   0.020462181030505316
0.0025                    0.0055                   0.020174451996263717
0.0025                    0.0065                   0.0210427837296496
0.0025                    0.0075                   0.022696664484652084
0.0025                    0.0085                   0.023467450895126977
0.0025                    0.0095                   0.02168598001877919
0.0025                    0.0105                   0.01784316526718694
0.0025                    0.0115                   0.013529474903463417
0.0025                    0.0125                   0.009994505388825573
0.0025                    0.0135                   0.008411792184941386
0.0025                    0.0145                   0.008543539105715628
0.0025                    0.0155                   0.00918371526701339
0.0025                    0.0165                   0.009417171785464652
0.0025                    0.0175                   0.008863484358663616
0.0025                    0.0185                   0.007428961814091561
0.0025                    0.0195                   0.005219002845750854
0.0025                    0.0205                   0.00281450038372948
0.0025                    0.0215                   0.0011588956769808749
0.0025                    0.0225                   4.303484632693572E-4
0.0025                    0.0235                   1.5922756312362695E-4
0.0025                    0.0245                   6.374905284988731E-5
0.0025                    0.0255                   2.9119580330743198E-5
0.0025                    0.0265                   1.4490646204083809E-5
0.0025                    0.0275                   8.654004100273478E-6
0.0025                    0.0285                   6.2704648610836045E-6
0.0025                    0.0295                   5.065846508755929E-6
0.0025                    0.0305                   4.497903978125153E-6
0.0025                    0.0315                   2.2681826915423664E-6
0.0035                    -0.0315                  4.661334567408313E-6
0.0035                    -0.0305                  8.54581574353318E-6
0.0035                    -0.0295                  8.518297931806208E-6
0.0035                    -0.0285                  9.050426134443397E-6
0.0035                    -0.0275                  9.043542680745435E-6
0.0035                    -0.0265                  8.912913911064457E-6
0.0035                    -0.0255                  8.723763101931565E-6
0.0035                    -0.0245                  8.543517582688124E-6
0.0035                    -0.0235                  8.371387704196884E-6
0.0035                    -0.0225                  8.195917657433301E-6
0.0035                    -0.0215                  8.009555792512137E-6
0.0035                    -0.0205                  7.823408040167933E-6
0.0035                    -0.0195                  7.670080687479258E-6
0.0035                    -0.0185                  7.597252529151896E-6
0.0035                    -0.0175                  7.660818317275158E-6
0.0035                    -0.0165                  7.937955311484087E-6
0.0035                    -0.0155                  8.59051063294435E-6
0.0035                    -0.0145                  1.0031614007077625E-5
0.0035                    -0.0135                  1.3346287909555267E-5
0.0035                    -0.0125                  2.1444189113527928E-5
0.0035                    -0.0115                  4.237598227648922E-5
0.0035                    -0.0105                  1.0040296032353663E-4
0.0035                    -0.0095                  3.2524071283866404E-4
0.0035                    -0.0085                  0.0010248082854729438
0.0035                    -0.0075                  0.003107110158289894
0.0035                    -0.0065                  0.0074055480779408565
0.0035                    -0.0055                  0.01272909957802141
0.0035                    -0.0045                  0.01698541128983429
0.0035                    -0.0035                  0.019470500887960186
0.0035                    -0.0025                  0.020633883073784463
0.0035                    -0.0015                  0.021087013396727854
0.0035                    -5.0E-4                  0.021305886250019307
0.0035                    5.0E-4                   0.021686587577500676
0.0035                    0.0015                   0.022381171183934408
0.0035                    0.0025                   0.02320222409850594
0.0035                    0.0035                   0.023774223354554203
0.0035                    0.0045                   0.023818946769684147
0.0035                    0.0055                   0.023406295921859586
0.0035                    0.0065                   0.02285569598549106
0.0035                    0.0075                   0.02215335957789492
0.0035                    0.0085                   0.020562294432903753
0.0035                    0.0095                   0.017351803200155138
0.0035                    0.0105                   0.013014337546726635
0.0035                    0.0115                   0.008778190046202318
0.0035                    0.0125                   0.006254387019775304
0.0035                    0.0135                   0.0066570133844790205
0.0035                    0.0145                   0.008376316570272819
0.0035                    0.0155                   0.009959134932170974
0.0035                    0.0165                   0.011009441703290736
0.0035                    0.0175                   0.011365482687276135
0.0035                    0.0185                   0.010767978299129868
0.0035                    0.0195                   0.008822583377536558
0.0035                    0.0205                   0.005670770722954293
0.0035                    0.0215                   0.002697649876842559
0.0035                    0.0225                   0.001045033257500905
0.0035                    0.0235                   3.9299352308803026E-4
0.0035                    0.0245                   1.420884222713951E-4
0.0035                    0.0255                   5.512622849765638E-5
0.0035                    0.0265                   2.4584137682231437E-5
0.0035                    0.0275                   1.253967287303572E-5
0.0035                    0.0285                   7.839596848556242E-6
0.0035                    0.0295                   5.648025529489294E-6
0.0035                    0.0305                   4.8839997989227506E-6
0.0035                    0.0315                   2.534311880530111E-6
0.0045                    -0.0315                  4.903314211302184E-6
0.0045                    -0.0305                  8.687174514238152E-6
0.0045                    -0.0295                  8.365343847901466E-6
0.0045                    -0.0285                  9.019539933623581E-6
0.0045                    -0.0275                  9.196008666742254E-6
0.0045                    -0.0265                  9.197617914387328E-6
0.0045                    -0.0255                  9.075808769972736E-6
0.0045                    -0.0245                  8.934131673907537E-6
0.0045                    -0.0235                  8.796165934003383E-6
0.0045                    -0.0225                  8.653304683099171E-6
0.0045                    -0.0215                  8.489057486899612E-6
0.0045                    -0.0205                  8.309129614827927E-6
0.0045                    -0.0195                  8.158809986625094E-6
0.0045                    -0.0185                  8.123638436750496E-6
0.0045                    -0.0175                  8.314629786195954E-6
0.0045                    -0.0165                  8.868376612612184E-6
0.0045                    -0.0155                  1.0039525389763987E-5
0.0045                    -0.0145                  1.2471476085282692E-5
0.0045                    -0.0135                  1.7883663597227436E-5
0.0045                    -0.0125                  3.089900577916807E-5
0.0045                    -0.0115                  6.81268787313387E-5
0.0045                    -0.0105                  1.974046581008214E-4
0.0045                    -0.0095                  6.409304175161836E-4
0.0045                    -0.0085                  0.0020727492825307137
0.0045                    -0.0075                  0.005967850310053318
0.0045                    -0.0065                  0.012043986754398535
0.0045                    -0.0055                  0.017183785476593435
0.0045                    -0.0045                  0.019496816297819193
0.0045                    -0.0035                  0.01949081785450066
0.0045                    -0.0025                  0.01813000664219783
0.0045                    -0.0015                  0.016308546652041105
0.0045                    -5.0E-4                  0.014866763245474028
0.0045                    5.0E-4                   0.014314273728848165
0.0045                    0.0015                   0.014770058841280836
0.0045                    0.0025                   0.01600046028921965
0.0045                    0.0035                   0.017506236134037678
0.0045                    0.0045                   0.018635698533112987
0.0045                    0.0055                   0.018907192687768463
0.0045                    0.0065                   0.01836153115422215
0.0045                    0.0075                   0.0171705231142098
0.0045                    0.0085                   0.015044501850794029
0.0045                    0.0095                   0.011741901000612306
0.0045                    0.0105                   0.007824654438834499
0.0045                    0.0115                   0.004429895422835061
0.0045                    0.0125                   0.0032790959875971352
0.0045                    0.0135                   0.004480972591630675
0.0045                    0.0145                   0.006134049113990022
0.0045                    0.0155                   0.00780791834518366
0.0045                    0.0165                   0.009544490718858427
0.0045                    0.0175                   0.011252402656399457
0.0045                    0.0185                   0.012398058862518062
0.0045                    0.0195                   0.012001047354552288
0.0045                    0.0205                   0.009369997370862082
0.0045                    0.0215                   0.0054444386452664
0.0045                    0.0225                   0.0023581785694067486
0.0045                    0.0235                   8.89814188098445E-4
0.0045                    0.0245                   3.291421019527642E-4
0.0045                    0.0255                   1.1373591439260988E-4
0.0045                    0.0265                   4.096752137509348E-5
0.0045                    0.0275                   1.8083174984425624E-5
0.0045                    0.0285                   9.85609754689828E-6
0.0045                    0.0295                   6.28416420900846E-6
0.0045                    0.0305                   5.26810233115668E-6
0.0045                    0.0315                   2.7898575945288233E-6
0.0055                    -0.0315                  5.1274565602719395E-6
0.0055                    -0.0305                  8.865474960747118E-6
0.0055                    -0.0295                  8.269728004964961E-6
0.0055                    -0.0285                  8.954925699052798E-6
0.0055                    -0.0275                  9.257458116171927E-6
0.0055                    -0.0265                  9.405285925203294E-6
0.0055                    -0.0255                  9.399424210447796E-6
0.0055                    -0.0245                  9.358083445238814E-6
0.0055                    -0.0235                  9.335274143833658E-6
0.0055                    -0.0225                  9.337651505541509E-6
0.0055                    -0.0215                  9.343017613360433E-6
0.0055                    -0.0205                  9.3493144639483E-6
0.0055                    -0.0195                  9.419116588343339E-6
0.0055                    -0.0185                  9.704602823100156E-6
0.0055                    -0.0175                  1.0425302268537099E-5
0.0055                    -0.0165                  1.1828760940227535E-5
0.0055                    -0.0155                  1.4255562688939103E-5
0.0055                    -0.0145                  1.8679526544654454E-5
0.0055                    -0.0135                  2.7879554862593594E-5
0.0055                    -0.0125                  5.058069270610413E-5
0.0055                    -0.0115                  1.1436998869711393E-4
0.0055                    -0.0105                  3.754649197220402E-4
0.0055                    -0.0095                  0.0012198850400544998
0.0055                    -0.0085                  0.0039180124151016495
0.0055                    -0.0075                  0.00972282511258152
0.0055                    -0.0065                  0.01633069855371654
0.0055                    -0.0055                  0.019791078314664534
0.0055                    -0.0045                  0.019374520742413893
0.0055                    -0.0035                  0.01639787557810492
0.0055                    -0.0025                  0.012365614927185188
0.0055                    -0.0015                  0.008863260022129752
0.0055                    -5.0E-4                  0.00673580262173384
0.0055                    5.0E-4                   0.005899076867148747
0.0055                    0.0015                   0.005981865952262273
0.0055                    0.0025                   0.006728352588575831
0.0055                    0.0035                   0.007908064837632284
0.0055                    0.0045                   0.009123530393870675
0.0055                    0.0055                   0.00986301983800414
0.0055                    0.0065                   0.009958716420247588
0.0055                    0.0075                   0.009531284333135532
0.0055                    0.0085                   0.008331737001584091
0.0055                    0.0095                   0.006187225907620237
0.0055                    0.0105                   0.0037074077455005123
0.0055                    0.0115                   0.001854059645259658
0.0055                    0.0125                   0.0013900283256246095
0.0055                    0.0135                   0.001846601514431443
0.0055                    0.0145                   0.002624018620860549
0.0055                    0.0155                   0.0037726418644864106
0.0055                    0.0165                   0.005498159557221508
0.0055                    0.0175                   0.008024704696560412
0.0055                    0.0185                   0.010974466991046235
0.0055                    0.0195                   0.012980582826774998
0.0055                    0.0205                   0.012400249580449083
0.0055                    0.0215                   0.008960489473440917
0.0055                    0.0225                   0.00468319214896533
0.0055                    0.0235                   0.001866723998174716
0.0055                    0.0245                   6.720107422708386E-4
0.0055                    0.0255                   2.1842824574675634E-4
0.0055                    0.0265                   6.732874776264578E-5
0.0055                    0.0275                   2.7317056947299526E-5
0.0055                    0.0285                   1.2883884268864922E-5
0.0055                    0.0295                   7.315141789488188E-6
0.0055                    0.0305                   5.797969633008134E-6
0.0055                    0.0315                   3.0673469843791235E-6
0.0065                    -0.0315                  5.33748856062559E-6
0.0065                    -0.0305                  9.06401207377106E-6
0.0065                    -0.0295                  8.22257642874294E-6
0.0065                    -0.0285                  8.88717765379621E-6
0.0065                    -0.0275                  9.240069467345858E-6
0.0065                    -0.0265                  9.477908202957402E-6
0.0065                    -0.0255                  9.566538528577661E-6
0.0065                    -0.0245                  9.635292709672285E-6
0.0065                    -0.0235                  9.782045659518666E-6
0.0065                    -0.0225                  1.0059107196261753E-5
0.0065                    -0.0215                  1.04665569159236E-5
0.0065                    -0.0205                  1.1012515739161749E-5
0.0065                    -0.0195                  1.181516405552667E-5
0.0065                    -0.0185                  1.318965824523617E-5
0.0065                    -0.0175                  1.5679796241222326E-5
0.0065                    -0.0165                  1.9783949555822772E-5
0.0065                    -0.0155                  2.5804095302997958E-5
0.0065                    -0.0145                  3.479770181904709E-5
0.0065                    -0.0135                  5.198088371132442E-5
0.0065                    -0.0125                  9.457229089818266E-5
0.0065                    -0.0115                  2.3424385147200082E-4
0.0065                    -0.0105                  7.165315300647238E-4
0.0065                    -0.0095                  0.0022722768659537776
0.0065                    -0.0085                  0.006658192064336238
0.0065                    -0.0075                  0.013774122686165492
0.0065                    -0.0065                  0.01946377261374363
0.0065                    -0.0055                  0.020402001892172745