% Model:              Benchmark260518.mph
% Version:            COMSOL 6.2.0.339
% Date:               May 20 2026, 11:58
% Dimension:          2
% Nodes:              4096
% Expressions:        1
% Description:        速度大小
% Length unit:        m
% x                       y                        spf.U (m/s)
5.0E-4                    -0.0315                  1.5098423374001052E-6
5.0E-4                    -0.0305                  2.984999706123653E-6
5.0E-4                    -0.0295                  3.2591773258540124E-6
5.0E-4                    -0.0285                  3.7078665363915137E-6
5.0E-4                    -0.0275                  4.1090813079381096E-6
5.0E-4                    -0.0265                  4.427816758165605E-6
5.0E-4                    -0.0255                  4.659164384843758E-6
5.0E-4                    -0.0245                  4.851291583695996E-6
5.0E-4                    -0.0235                  4.996329769054918E-6
5.0E-4                    -0.0225                  5.0824548195361335E-6
5.0E-4                    -0.0215                  5.068751917858403E-6
5.0E-4                    -0.0205                  5.011809049241219E-6
5.0E-4                    -0.0195                  5.187835012237643E-6
5.0E-4                    -0.0185                  5.630591135469561E-6
5.0E-4                    -0.0175                  6.181278732788468E-6
5.0E-4                    -0.0165                  7.132540435812543E-6
5.0E-4                    -0.0155                  9.237534844887432E-6
5.0E-4                    -0.0145                  1.5759103025214166E-5
5.0E-4                    -0.0135                  3.652617300230227E-5
5.0E-4                    -0.0125                  1.0283817483073872E-4
5.0E-4                    -0.0115                  2.0553045964943624E-4
5.0E-4                    -0.0105                  2.9126141674626533E-4
5.0E-4                    -0.0095                  3.7955087096033666E-4
5.0E-4                    -0.0085                  5.952838581287705E-4
5.0E-4                    -0.0075                  0.0010681505648479763
5.0E-4                    -0.0065                  0.0017990436453155971
5.0E-4                    -0.0055                  0.002679638752798909
5.0E-4                    -0.0045                  0.0035692001801810474
5.0E-4                    -0.0035                  0.004347662251365537
5.0E-4                    -0.0025                  0.004928532896338329
5.0E-4                    -0.0015                  0.005268922522627667
5.0E-4                    -5.0E-4                  0.005356713171896979
5.0E-4                    5.0E-4                   0.005198903015193444
5.0E-4                    0.0015                   0.004816229961254489
5.0E-4                    0.0025                   0.004242319491155411
5.0E-4                    0.0035                   0.003524913287846838
5.0E-4                    0.0045                   0.0027244615084970306
5.0E-4                    0.0055                   0.001909278636070859
5.0E-4                    0.0065                   0.0011527447285923204
5.0E-4                    0.0075                   5.427876341517614E-4
5.0E-4                    0.0085                   2.1007018554767084E-4
5.0E-4                    0.0095                   6.97634490822431E-5
5.0E-4                    0.0105                   9.849068358036871E-4
5.0E-4                    0.0115                   0.005025115414911106
5.0E-4                    0.0125                   0.016661124864602923
5.0E-4                    0.0135                   0.024943599295738524
5.0E-4                    0.0145                   0.02324810493724012
5.0E-4                    0.0155                   0.019304449061779073
5.0E-4                    0.0165                   0.01388408815493039
5.0E-4                    0.0175                   0.008572316079150342
5.0E-4                    0.0185                   0.003989624300284602
5.0E-4                    0.0195                   0.00114097692023195
5.0E-4                    0.0205                   1.9893940646258988E-4
5.0E-4                    0.0215                   8.447706327567083E-5
5.0E-4                    0.0225                   2.8141932792908074E-5
5.0E-4                    0.0235                   1.1602022926020483E-5
5.0E-4                    0.0245                   6.0849450235740905E-6
5.0E-4                    0.0255                   4.301148354473805E-6
5.0E-4                    0.0265                   3.6804571126730316E-6
5.0E-4                    0.0275                   3.2437275613574707E-6
5.0E-4                    0.0285                   2.90571091942952E-6
5.0E-4                    0.0295                   2.557819007947535E-6
5.0E-4                    0.0305                   2.2952975742603514E-6
5.0E-4                    0.0315                   1.1403700916926535E-6
0.0015                    -0.0315                  2.951667826969226E-6
0.0015                    -0.0305                  5.806091261619521E-6
0.0015                    -0.0295                  6.165300875351361E-6
0.0015                    -0.0285                  6.669477253760941E-6
0.0015                    -0.0275                  7.032243901420834E-6
0.0015                    -0.0265                  7.32879036149524E-6
0.0015                    -0.0255                  7.5451621322489934E-6
0.0015                    -0.0245                  7.730511257381591E-6
0.0015                    -0.0235                  7.869940927257103E-6
0.0015                    -0.0225                  7.942695932480485E-6
0.0015                    -0.0215                  7.914831390003899E-6
0.0015                    -0.0205                  7.873398692154976E-6
0.0015                    -0.0195                  8.119673495432518E-6
0.0015                    -0.0185                  8.737004725537256E-6
0.0015                    -0.0175                  9.69697418368764E-6
0.0015                    -0.0165                  1.1608000084962363E-5
0.0015                    -0.0155                  1.6161972216182506E-5
0.0015                    -0.0145                  2.8655625346085633E-5
0.0015                    -0.0135                  6.469104913617708E-5
0.0015                    -0.0125                  1.7575519818199516E-4
0.0015                    -0.0115                  3.700479670822131E-4
0.0015                    -0.0105                  6.652976438430785E-4
0.0015                    -0.0095                  0.001276323701400215
0.0015                    -0.0085                  0.0024925561061923444
0.0015                    -0.0075                  0.004315848510912331
0.0015                    -0.0065                  0.0064719978551464555
0.0015                    -0.0055                  0.008640374417013569
0.0015                    -0.0045                  0.010549544441788886
0.0015                    -0.0035                  0.012041062494356271
0.0015                    -0.0025                  0.013061363957652075
0.0015                    -0.0015                  0.013615021794729664
0.0015                    -5.0E-4                  0.013732372099048309
0.0015                    5.0E-4                   0.013459015798210927
0.0015                    0.0015                   0.012847966291431064
0.0015                    0.0025                   0.011951723538399442
0.0015                    0.0035                   0.010823575886077798
0.0015                    0.0045                   0.009524370275723958
0.0015                    0.0055                   0.008126332398308834
0.0015                    0.0065                   0.006726570400774384
0.0015                    0.0075                   0.005495678822729872
0.0015                    0.0085                   0.00471639510016284
0.0015                    0.0095                   0.0049809330420586715
0.0015                    0.0105                   0.007522410958077355
0.0015                    0.0115                   0.014044775457655768
0.0015                    0.0125                   0.021543542793682573
0.0015                    0.0135                   0.023806201502677937
0.0015                    0.0145                   0.0213698352393574
0.0015                    0.0155                   0.017187794115565484
0.0015                    0.0165                   0.012174995762401856
0.0015                    0.0175                   0.007345006227292757
0.0015                    0.0185                   0.0032947305964343646
0.0015                    0.0195                   0.0010828764140180572
0.0015                    0.0205                   3.745442846308371E-4
0.0015                    0.0215                   1.4730200134483145E-4
0.0015                    0.0225                   5.1259692212089154E-5
0.0015                    0.0235                   2.1884488417361682E-5
0.0015                    0.0245                   1.1495512904054522E-5
0.0015                    0.0255                   7.741998099801758E-6
0.0015                    0.0265                   6.395831190530034E-6
0.0015                    0.0275                   5.721655262414726E-6
0.0015                    0.0285                   5.315691847712542E-6
0.0015                    0.0295                   4.876123778019286E-6
0.0015                    0.0305                   4.477993624760623E-6
0.0015                    0.0315                   2.234834477701219E-6
0.0025                    -0.0315                  3.1089556192312496E-6
0.0025                    -0.0305                  5.987427526533851E-6
0.0025                    -0.0295                  6.1820100707520295E-6
0.0025                    -0.0285                  6.430923155469818E-6
0.0025                    -0.0275                  6.373432139998328E-6
0.0025                    -0.0265                  6.301689829211923E-6
0.0025                    -0.0255                  6.231835245852325E-6
0.0025                    -0.0245                  6.185543000777069E-6
0.0025                    -0.0235                  6.151058077295442E-6
0.0025                    -0.0225                  6.113598854638711E-6
0.0025                    -0.0215                  6.084454154219846E-6
0.0025                    -0.0205                  6.1180428649769654E-6
0.0025                    -0.0195                  6.292580175099855E-6
0.0025                    -0.0185                  6.749209669063108E-6
0.0025                    -0.0175                  7.813962719634946E-6
0.0025                    -0.0165                  1.0296308741295694E-5
0.0025                    -0.0155                  1.6383385326234786E-5
0.0025                    -0.0145                  3.118917198998206E-5
0.0025                    -0.0135                  6.744894188208828E-5
0.0025                    -0.0125                  1.837972427013072E-4
0.0025                    -0.0115                  4.959148474860348E-4
0.0025                    -0.0105                  0.0012931906962787888
0.0025                    -0.0095                  0.003040027508156219
0.0025                    -0.0085                  0.005761407427230772
0.0025                    -0.0075                  0.008829563562096604
0.0025                    -0.0065                  0.011592036149483611
0.0025                    -0.0055                  0.013736346790091503
0.0025                    -0.0045                  0.015257138733351163
0.0025                    -0.0035                  0.016267900109562916
0.0025                    -0.0025                  0.01687891885312881
0.0025                    -0.0015                  0.017203515026154297
0.0025                    -5.0E-4                  0.017343071358827965
0.0025                    5.0E-4                   0.017354544097003453
0.0025                    0.0015                   0.01725979424628939
0.0025                    0.0025                   0.017063209744829017
0.0025                    0.0035                   0.01676152197800086
0.0025                    0.0045                   0.016353006812761188
0.0025                    0.0055                   0.015842202453891792
0.0025                    0.0065                   0.01524335416064761
0.0025                    0.0075                   0.014653262736080834
0.0025                    0.0085                   0.01436545105516794
0.0025                    0.0095                   0.014880524283911895
0.0025                    0.0105                   0.016755925503789498
0.0025                    0.0115                   0.019595284356349087
0.0025                    0.0125                   0.02160788360783843
0.0025                    0.0135                   0.02094533639324879
0.0025                    0.0145                   0.018025616788524643
0.0025                    0.0155                   0.014192136969405113
0.0025                    0.0165                   0.010181741931264464
0.0025                    0.0175                   0.006417370731124105
0.0025                    0.0185                   0.003212184806700858
0.0025                    0.0195                   0.001312798535097284
0.0025                    0.0205                   5.018030871801692E-4
0.0025                    0.0215                   1.800280276799118E-4
0.0025                    0.0225                   6.12668186102247E-5
0.0025                    0.0235                   2.689229390955161E-5
0.0025                    0.0245                   1.3500965943901396E-5
0.0025                    0.0255                   8.294315327979093E-6
0.0025                    0.0265                   6.31347675801911E-6
0.0025                    0.0275                   5.5970285105204046E-6
0.0025                    0.0285                   5.3332923267327485E-6
0.0025                    0.0295                   4.975442490369295E-6
0.0025                    0.0305                   4.580325517194683E-6
0.0025                    0.0315                   2.2997020615694267E-6
0.0035                    -0.0315                  3.3684384082463627E-6
0.0035                    -0.0305                  6.262081282867242E-6
0.0035                    -0.0295                  6.3584989606147196E-6
0.0035                    -0.0285                  6.773179050264219E-6
0.0035                    -0.0275                  6.77422892018251E-6
0.0035                    -0.0265                  6.692297520158797E-6
0.0035                    -0.0255                  6.596045146851553E-6
0.0035                    -0.0245                  6.546633067602947E-6
0.0035                    -0.0235                  6.544838849985328E-6
0.0035                    -0.0225                  6.578236667323464E-6
0.0035                    -0.0215                  6.652474073130158E-6
0.0035                    -0.0205                  6.821608427359926E-6
0.0035                    -0.0195                  7.2100359852438565E-6
0.0035                    -0.0185                  8.054961683496838E-6
0.0035                    -0.0175                  9.865516686147161E-6
0.0035                    -0.0165                  1.3841563732119596E-5
0.0035                    -0.0155                  2.279308109483665E-5
0.0035                    -0.0145                  4.563135176007852E-5
0.0035                    -0.0135                  1.1493648851780966E-4
0.0035                    -0.0125                  3.3282559097085285E-4
0.0035                    -0.0115                  0.0010038887337060094
0.0035                    -0.0105                  0.002792993982337215
0.0035                    -0.0095                  0.0059555928519546796
0.0035                    -0.0085                  0.009619242846062194
0.0035                    -0.0075                  0.01264880768957275
0.0035                    -0.0065                  0.014593651585308223
0.0035                    -0.0055                  0.015598477904810362
0.0035                    -0.0045                  0.01595104184805545
0.0035                    -0.0035                  0.01592710215247001
0.0035                    -0.0025                  0.015786817160660608
0.0035                    -0.0015                  0.015715834736643612
0.0035                    -5.0E-4                  0.01581078793750198
0.0035                    5.0E-4                   0.016100909390452525
0.0035                    0.0015                   0.016569221736284605
0.0035                    0.0025                   0.017171889000940348
0.0035                    0.0035                   0.017851118409704658
0.0035                    0.0045                   0.018542163193320967
0.0035                    0.0055                   0.019186158004707122
0.0035                    0.0065                   0.019729573826383764
0.0035                    0.0075                   0.02012663675907935
0.0035                    0.0085                   0.020377757613185617
0.0035                    0.0095                   0.020530634714436464
0.0035                    0.0105                   0.020551215869973785
0.0035                    0.0115                   0.02017728682248093
0.0035                    0.0125                   0.018912316411247024
0.0035                    0.0135                   0.01637951676695545
0.0035                    0.0145                   0.013308139065320555
0.0035                    0.0155                   0.01061913112924931
0.0035                    0.0165                   0.008515355826832695
0.0035                    0.0175                   0.006552693948671907
0.0035                    0.0185                   0.004295837869830032
0.0035                    0.0195                   0.0022632346777043864
0.0035                    0.0205                   9.706207291335507E-4
0.0035                    0.0215                   3.575880218715127E-4
0.0035                    0.0225                   1.2114299568760389E-4
0.0035                    0.0235                   4.382250559854626E-5
0.0035                    0.0245                   1.9916410751472434E-5
0.0035                    0.0255                   1.1337084334911769E-5
0.0035                    0.0265                   7.899248585850228E-6
0.0035                    0.0275                   6.530801208739465E-6
0.0035                    0.0285                   5.912152336315788E-6
0.0035                    0.0295                   5.251518699445301E-6
0.0035                    0.0305                   4.734621522761209E-6
0.0035                    0.0315                   2.407214698291012E-6
0.0045                    -0.0315                  3.553277167034714E-6
0.0045                    -0.0305                  6.38810550343968E-6
0.0045                    -0.0295                  6.284725876910307E-6
0.0045                    -0.0285                  6.78797342203535E-6
0.0045                    -0.0275                  6.901525016048041E-6
0.0045                    -0.0265                  6.8906968093729085E-6
0.0045                    -0.0255                  6.8399379041088715E-6
0.0045                    -0.0245                  6.863264280384581E-6
0.0045                    -0.0235                  7.002223136491954E-6
0.0045                    -0.0225                  7.26181921728759E-6
0.0045                    -0.0215                  7.653574518742177E-6
0.0045                    -0.0205                  8.268267409141525E-6
0.0045                    -0.0195                  9.322737196530176E-6
0.0045                    -0.0185                  1.1218299302307273E-5
0.0045                    -0.0175                  1.4751091042092598E-5
0.0045                    -0.0165                  2.166032253077815E-5
0.0045                    -0.0155                  3.661101581763727E-5
0.0045                    -0.0145                  7.381828188491568E-5
0.0045                    -0.0135                  2.1106985001101753E-4
0.0045                    -0.0125                  6.471633882583488E-4
0.0045                    -0.0115                  0.002007350156483898
0.0045                    -0.0105                  0.005139888502256388
0.0045                    -0.0095                  0.009373499180051351
0.0045                    -0.0085                  0.012825826731747432
0.0045                    -0.0075                  0.014588824705281599
0.0045                    -0.0065                  0.014883772611547476
0.0045                    -0.0055                  0.014205912121847575
0.0045                    -0.0045                  0.013022210613648832
0.0045                    -0.0035                  0.011795590060046848
0.0045                    -0.0025                  0.010847044431717294
0.0045                    -0.0015                  0.01029307345333843
0.0045                    -5.0E-4                  0.010139217483856686
0.0045                    5.0E-4                   0.010369320060645065
0.0045                    0.0015                   0.010962597670966391
0.0045                    0.0025                   0.011883205394539197
0.0045                    0.0035                   0.013074478250000996
0.0045                    0.0045                   0.014461062219914162
0.0045                    0.0055                   0.015930199207061103
0.0045                    0.0065                   0.01732793002561964
0.0045                    0.0075                   0.01846344264199782
0.0045                    0.0085                   0.01910983801201581
0.0045                    0.0095                   0.01907330979855728
0.0045                    0.0105                   0.018218921507050942
0.0045                    0.0115                   0.016410797978671034
0.0045                    0.0125                   0.013627227334869178
0.0045                    0.0135                   0.010349066676993837
0.0045                    0.0145                   0.007969016911806622
0.0045                    0.0155                   0.007548289794537603
0.0045                    0.0165                   0.008143236991727294
0.0045                    0.0175                   0.008126536763330462
0.0045                    0.0185                   0.006706725591832623
0.0045                    0.0195                   0.004287669148178529
0.0045                    0.0205                   0.002039467441635695
0.0045                    0.0215                   7.531350170654149E-4
0.0045                    0.0225                   2.438017363116828E-4
0.0045                    0.0235                   7.544716485869383E-5
0.0045                    0.0245                   3.1568124947561364E-5
0.0045                    0.0255                   1.588073473203744E-5
0.0045                    0.0265                   9.918744087989006E-6
0.0045                    0.0275                   7.4705156824571765E-6
0.0045                    0.0285                   6.310308516771128E-6
0.0045                    0.0295                   5.3665510449939155E-6
0.0045                    0.0305                   4.835633447488824E-6
0.0045                    0.0315                   2.5066801607076982E-6
0.0055                    -0.0315                  3.694338964391089E-6
0.0055                    -0.0305                  6.506648075036805E-6
0.0055                    -0.0295                  6.2506828722352505E-6
0.0055                    -0.0285                  6.7929833730849106E-6
0.0055                    -0.0275                  6.999093218232527E-6
0.0055                    -0.0265                  7.087105147287994E-6
0.0055                    -0.0255                  7.13536626012823E-6
0.0055                    -0.0245                  7.322178134850046E-6
0.0055                    -0.0235                  7.778223404082948E-6
0.0055                    -0.0225                  8.587261449090726E-6
0.0055                    -0.0215                  9.824955754899729E-6
0.0055                    -0.0205                  1.1699560612535064E-5
0.0055                    -0.0195                  1.4751232286041864E-5
0.0055                    -0.0185                  1.9754913634563008E-5
0.0055                    -0.0175                  2.7916770774518627E-5
0.0055                    -0.0165                  4.259302530015845E-5
0.0055                    -0.0155                  7.248164497055125E-5
0.0055                    -0.0145                  1.5474920123229578E-4
0.0055                    -0.0135                  4.165737951033029E-4
0.0055                    -0.0125                  0.0012300880811465028
0.0055                    -0.0115                  0.003630241568618217
0.0055                    -0.0105                  0.008023852383199527
0.0055                    -0.0095                  0.012439338036113053
0.0055                    -0.0085                  0.014701089978739899
0.0055                    -0.0075                  0.014623440425414969
0.0055                    -0.0065                  0.012940181503311407
0.0055                    -0.0055                  0.010455354586095634
0.0055                    -0.0045                  0.008041718233171262
0.0055                    -0.0035                  0.006244323369206339
0.0055                    -0.0025                  0.0051210622549120515
0.0055                    -0.0015                  0.004513734751989562
0.0055                    -5.0E-4                  0.004279421155222918
0.0055                    5.0E-4                   0.004337310770256737
0.0055                    0.0015                   0.0046552747276122665
0.0055                    0.0025                   0.005233006543720696
0.0055                    0.0035                   0.006092698936443374
0.0055                    0.0045                   0.007264805048365977
0.0055                    0.0055                   0.008690443257928029
0.0055                    0.0065                   0.010153671359648968
0.0055                    0.0075                   0.011363575234209224
0.0055                    0.0085                   0.012066787778883438
0.0055                    0.0095                   0.01206585516507058
0.0055                    0.0105                   0.011203808502128902
0.0055                    0.0115                   0.009447060466313316
0.0055                    0.0125                   0.006999969186844594
0.0055                    0.0135                   0.004549174503155321
0.0055                    0.0145                   0.00383530394289391
0.0055                    0.0155                   0.005567969749629345
0.0055                    0.0165                   0.007823794838877672
0.0055                    0.0175                   0.009297824462762574
0.0055                    0.0185                   0.009164872853034321
0.0055                    0.0195                   0.007092217568931828
0.0055                    0.0205                   0.003954111150483513
0.0055                    0.0215                   0.001545954998780994
0.0055                    0.0225                   4.961184128209535E-4
0.0055                    0.0235                   1.5323446066555486E-4
0.0055                    0.0245                   5.2024394095332237E-5
0.0055                    0.0255                   2.298201811281814E-5
0.0055                    0.0265                   1.2872982550058723E-5
0.0055                    0.0275                   8.70634635784302E-6
0.0055                    0.0285                   6.8152653914589344E-6
0.0055                    0.0295                   5.572814381593633E-6
0.0055                    0.0305                   4.987256858351516E-6
0.0055                    0.0315                   2.6049540368764506E-6
0.0065                    -0.0315                  3.7851419827431414E-6
0.0065                    -0.0305                  6.59820539357144E-6
0.0065                    -0.0295                  6.2574352103360045E-6
0.0065                    -0.0285                  6.829377869170331E-6
0.0065                    -0.0275                  7.1096131650043375E-6
0.0065                    -0.0265                  7.3026042299110925E-6
0.0065                    -0.0255                  7.502619576459293E-6
0.0065                    -0.0245                  7.994420234639243E-6
0.0065                    -0.0235                  9.114063464175963E-6
0.0065                    -0.0225                  1.1189372258338242E-5
0.0065                    -0.0215                  1.453791313054813E-5
0.0065                    -0.0205                  1.9741150177339066E-5
0.0065                    -0.0195                  2.829865018079403E-5
0.0065                    -0.0185                  4.370964404343176E-5
0.0065                    -0.0175                  6.834721606219243E-5
0.0065                    -0.0165                  1.0426543585983072E-4
0.0065                    -0.0155                  1.8617327552457145E-4
0.0065                    -0.0145                  3.8425748885608706E-4
0.0065                    -0.0135                  8.545258084297261E-4
0.0065                    -0.0125                  0.0022742319706211037
0.0065                    -0.0115                  0.005832333490589426
0.0065                    -0.0105                  0.010890011295822842
0.0065                    -0.0095                  0.014562146830435463
0.0065                    -0.0085                  0.015151845615946572
0.0065                    -0.0075                  0.013094712083663258
0.0065                    -0.0065                  0.009606948623897249
0.0065                    -0.0055                  0.006147933248596153