% Model:              Benchmark260518.mph
% Version:            COMSOL 6.2.0.339
% Date:               May 19 2026, 06:05
% Dimension:          2
% Nodes:              4096
% Expressions:        1
% Description:        速度大小
% Length unit:        m
% x                       y                        spf.U (m/s)
% mirrored_by_python_y_to_minus_y, coord_match_decimals=12
0.0005 -0.0315 3.03078296797e-06
0.0005 -0.0305 1.02433203087e-05
0.0005 -0.0295 3.25423286059e-05
0.0005 -0.0285 9.77853226679e-05
0.0005 -0.0275 0.000754383375834
0.0005 -0.0265 0.00300179933843
0.0005 -0.0255 0.00731203043319
0.0005 -0.0245 0.0130112527467
0.0005 -0.0235 0.0193068906691
0.0005 -0.0225 0.0242227127789
0.0005 -0.0215 0.0265188460859
0.0005 -0.0205 0.0176623676619
0.0005 -0.0195 0.00483425202696
0.0005 -0.0185 0.000597481542275
0.0005 -0.0175 0.000686647561691
0.0005 -0.0165 0.000536053581533
0.0005 -0.0155 0.000665838634242
0.0005 -0.0145 0.00160797827643
0.0005 -0.0135 0.00276006160496
0.0005 -0.0125 0.00392496389252
0.0005 -0.0115 0.00496763067484
0.0005 -0.0105 0.0057819163774
0.0005 -0.0095 0.00632097831642
0.0005 -0.0085 0.00659150928799
0.0005 -0.0075 0.00662702869197
0.0005 -0.0065 0.00648643239605
0.0005 -0.0055 0.00623749411928
0.0005 -0.0045 0.00594459441776
0.0005 -0.0035 0.00565539209439
0.0005 -0.0025 0.00539063455798
0.0005 -0.0015 0.00514676092675
0.0005 -0.0005 0.00490278486153
0.0005 0.0005 0.00462285446509
0.0005 0.0015 0.00426614015801
0.0005 0.0025 0.00380028232545
0.0005 0.0035 0.00321489710868
0.0005 0.0045 0.00253302912984
0.0005 0.0055 0.00181909718139
0.0005 0.0065 0.00117831422438
0.0005 0.0075 0.000713373869283
0.0005 0.0085 0.000455815110534
0.0005 0.0095 0.000326301460435
0.0005 0.0105 0.000218344985684
0.0005 0.0115 0.00010643007607
0.0005 0.0125 3.7429844646e-05
0.0005 0.0135 1.6272369127e-05
0.0005 0.0145 9.77338938454e-06
0.0005 0.0155 7.6731389953e-06
0.0005 0.0165 6.62120111501e-06
0.0005 0.0175 6.11013186509e-06
0.0005 0.0185 5.82889943451e-06
0.0005 0.0195 5.63094863688e-06
0.0005 0.0205 5.48461831949e-06
0.0005 0.0215 5.3582527377e-06
0.0005 0.0225 5.2288072729e-06
0.0005 0.0235 5.09196456508e-06
0.0005 0.0245 4.94790465975e-06
0.0005 0.0255 4.78784440453e-06
0.0005 0.0265 4.60553045551e-06
0.0005 0.0275 4.38775126758e-06
0.0005 0.0285 4.15459811189e-06
0.0005 0.0295 3.70912956274e-06
0.0005 0.0305 3.30376008212e-06
0.0005 0.0315 1.65398917948e-06
0.0015 -0.0315 6.49718310121e-06
0.0015 -0.0305 2.17418312086e-05
0.0015 -0.0295 6.36843738722e-05
0.0015 -0.0285 0.000177223015102
0.0015 -0.0275 0.000587775997349
0.0015 -0.0265 0.00213789029373
0.0015 -0.0255 0.00578876330037
0.0015 -0.0245 0.0111858637095
0.0015 -0.0235 0.0173921742396
0.0015 -0.0225 0.022784801484
0.0015 -0.0215 0.0258623023536
0.0015 -0.0205 0.023002571073
0.0015 -0.0195 0.0137943878054
0.0015 -0.0185 0.0060189334353
0.0015 -0.0175 0.00345435096381
0.0015 -0.0165 0.00398032560622
0.0015 -0.0155 0.0057618782757
0.0015 -0.0145 0.00791162349163
0.0015 -0.0135 0.0100488939147
0.0015 -0.0125 0.0119881908481
0.0015 -0.0115 0.0136171958583
0.0015 -0.0105 0.0148530967243
0.0015 -0.0095 0.0156429204749
0.0015 -0.0085 0.0160029698764
0.0015 -0.0075 0.0160041985809
0.0015 -0.0065 0.0157382440458
0.0015 -0.0055 0.0153054435707
0.0015 -0.0045 0.0147981400184
0.0015 -0.0035 0.0142873798978
0.0015 -0.0025 0.0138093278798
0.0015 -0.0015 0.0133573475987
0.0015 -0.0005 0.012895029059
0.0015 0.0005 0.0123626853656
0.0015 0.0015 0.0116826978278
0.0015 0.0025 0.0107766280009
0.0015 0.0035 0.00958211539074
0.0015 0.0045 0.00807179756995
0.0015 0.0055 0.00630247168331
0.0015 0.0065 0.00444845729373
0.0015 0.0075 0.00275999289096
0.0015 0.0085 0.00150372178613
0.0015 0.0095 0.000780143112898
0.0015 0.0105 0.000409815595207
0.0015 0.0115 0.000186394599563
0.0015 0.0125 6.72141589222e-05
0.0015 0.0135 2.9700094629e-05
0.0015 0.0145 1.68871694063e-05
0.0015 0.0155 1.22270773668e-05
0.0015 0.0165 1.01738803508e-05
0.0015 0.0175 9.23077118004e-06
0.0015 0.0185 8.75937566382e-06
0.0015 0.0195 8.47929113588e-06
0.0015 0.0205 8.30061375676e-06
0.0015 0.0215 8.16723066557e-06
0.0015 0.0225 8.04299271699e-06
0.0015 0.0235 7.91822444393e-06
0.0015 0.0245 7.7946202786e-06
0.0015 0.0255 7.66888569066e-06
0.0015 0.0265 7.54075565206e-06
0.0015 0.0275 7.39672700306e-06
0.0015 0.0285 7.25188813545e-06
0.0015 0.0295 6.78774690836e-06
0.0015 0.0305 6.3261981722e-06
0.0015 0.0315 3.20711258495e-06
0.0025 -0.0315 7.38834711547e-06
0.0025 -0.0305 2.46121975736e-05
0.0025 -0.0295 6.79964792165e-05
0.0025 -0.0285 0.000160462136169
0.0025 -0.0275 0.000445475099594
0.0025 -0.0265 0.00149739776179
0.0025 -0.0255 0.00432922541489
0.0025 -0.0245 0.00906389288352
0.0025 -0.0235 0.0148180677655
0.0025 -0.0225 0.0201691802316
0.0025 -0.0215 0.0236491594328
0.0025 -0.0205 0.0235397391848
0.0025 -0.0195 0.0196974214873
0.0025 -0.0185 0.0152692832813
0.0025 -0.0175 0.013228361195
0.0025 -0.0165 0.0135670463982
0.0025 -0.0155 0.0149010963502
0.0025 -0.0145 0.0163317952158
0.0025 -0.0135 0.0174518124808
0.0025 -0.0125 0.0181863610379
0.0025 -0.0115 0.0185989582526
0.0025 -0.0105 0.0187867170725
0.0025 -0.0095 0.0188280929725
0.0025 -0.0085 0.018760677296
0.0025 -0.0075 0.0185925513984
0.0025 -0.0065 0.0183281959137
0.0025 -0.0055 0.0179905173677
0.0025 -0.0045 0.0176145192258
0.0025 -0.0035 0.0172402124317
0.0025 -0.0025 0.0168971919209
0.0025 -0.0015 0.0165854858084
0.0025 -0.0005 0.0162838092052
0.0025 0.0005 0.0159541827693
0.0025 0.0015 0.0155344746653
0.0025 0.0025 0.0149343519005
0.0025 0.0035 0.0140506225195
0.0025 0.0045 0.0127905018541
0.0025 0.0055 0.0110392265439
0.0025 0.0065 0.00872797552287
0.0025 0.0075 0.00602520550434
0.0025 0.0085 0.0034255608673
0.0025 0.0095 0.00155705153075
0.0025 0.0105 0.000600388401404
0.0025 0.0115 0.000214362199774
0.0025 0.0125 7.49796663308e-05
0.0025 0.0135 3.30998640016e-05
0.0025 0.0145 1.68701347605e-05
0.0025 0.0155 1.03796904163e-05
0.0025 0.0165 7.73338452843e-06
0.0025 0.0175 6.59953292572e-06
0.0025 0.0185 6.10859876477e-06
0.0025 0.0195 5.90969657299e-06
0.0025 0.0205 5.85122487807e-06
0.0025 0.0215 5.86285734193e-06
0.0025 0.0225 5.90861135745e-06
0.0025 0.0235 5.97568287063e-06
0.0025 0.0245 6.0684564662e-06
0.0025 0.0255 6.19681161077e-06
0.0025 0.0265 6.36595184802e-06
0.0025 0.0275 6.54816098384e-06
0.0025 0.0285 6.70347106171e-06
0.0025 0.0295 6.51486326194e-06
0.0025 0.0305 6.40539841596e-06
0.0025 0.0315 3.35924830874e-06
0.0035 -0.0315 7.77641557498e-06
0.0035 -0.0305 2.46168009246e-05
0.0035 -0.0295 6.14429166914e-05
0.0035 -0.0285 0.000142397111713
0.0035 -0.0275 0.000358163114822
0.0035 -0.0265 0.00108761891082
0.0035 -0.0255 0.00317697542768
0.0035 -0.0245 0.00702817215004
0.0035 -0.0235 0.0119069529955
0.0035 -0.0225 0.0165652856556
0.0035 -0.0215 0.0199722313614
0.0035 -0.0205 0.0212587728036
0.0035 -0.0195 0.0205710727618
0.0035 -0.0185 0.019536393323
0.0035 -0.0175 0.0193216390475
0.0035 -0.0165 0.0197663741445
0.0035 -0.0155 0.0202238966268
0.0035 -0.0145 0.0202404789273
0.0035 -0.0135 0.019732684208
0.0035 -0.0125 0.0188648269779
0.0035 -0.0115 0.0178781445072
0.0035 -0.0105 0.0170007754151
0.0035 -0.0095 0.0163495530871
0.0035 -0.0085 0.0159132642534
0.0035 -0.0075 0.0156069079939
0.0035 -0.0065 0.0153476424335
0.0035 -0.0055 0.0150930813544
0.0035 -0.0045 0.0148465071543
0.0035 -0.0035 0.014633790953
0.0035 -0.0025 0.0144776571156
0.0035 -0.0015 0.014387558889
0.0035 -0.0005 0.0143662320422
0.0035 0.0005 0.0144134660127
0.0035 0.0015 0.0145186990953
0.0035 0.0025 0.0146381946057
0.0035 0.0035 0.0146678926977
0.0035 0.0045 0.0144305241035
0.0035 0.0055 0.013691914923
0.0035 0.0065 0.0121955326941
0.0035 0.0075 0.00972517141554
0.0035 0.0085 0.00646187522588
0.0035 0.0095 0.00328539127474
0.0035 0.0105 0.00124271326521
0.0035 0.0115 0.000407774757055
0.0035 0.0125 0.000135281387224
0.0035 0.0135 5.01021142514e-05
0.0035 0.0145 2.35760484611e-05
0.0035 0.0155 1.35667716457e-05
0.0035 0.0165 9.32348493377e-06
0.0035 0.0175 7.46306537964e-06
0.0035 0.0185 6.62684424862e-06
0.0035 0.0195 6.26753742387e-06
0.0035 0.0205 6.14389440353e-06
0.0035 0.0215 6.13464814569e-06
0.0035 0.0225 6.18139689704e-06
0.0035 0.0235 6.26888407772e-06
0.0035 0.0245 6.40472594482e-06
0.0035 0.0255 6.59224322166e-06
0.0035 0.0265 6.81385393748e-06
0.0035 0.0275 6.99268286169e-06
0.0035 0.0285 7.05299334491e-06
0.0035 0.0295 6.66323331351e-06
0.0035 0.0305 6.66586860373e-06
0.0035 0.0315 3.62830402902e-06
0.0045 -0.0315 7.8443278627e-06
0.0045 -0.0305 2.27867309314e-05
0.0045 -0.0295 5.20099339071e-05
0.0045 -0.0285 0.000139393824602
0.0045 -0.0275 0.000365249098652
0.0045 -0.0265 0.000983746104014
0.0045 -0.0255 0.00262251817867
0.0045 -0.0245 0.00563101422056
0.0045 -0.0235 0.00929860655714
0.0045 -0.0225 0.0125635950419
0.0045 -0.0215 0.0149951442222
0.0045 -0.0205 0.0165095620033
0.0045 -0.0195 0.0174108737691
0.0045 -0.0185 0.018314156184
0.0045 -0.0175 0.0191572959425
0.0045 -0.0165 0.0194092534856
0.0045 -0.0155 0.0187634884027
0.0045 -0.0145 0.0172954341113
0.0045 -0.0135 0.0153933375305
0.0045 -0.0125 0.0134713617258
0.0045 -0.0115 0.0118397987173
0.0045 -0.0105 0.0106578270881
0.0045 -0.0095 0.0099127455719
0.0045 -0.0085 0.00948745209017
0.0045 -0.0075 0.00923520907814
0.0045 -0.0065 0.0090371032986
0.0045 -0.0055 0.00884408818077
0.0045 -0.0045 0.00868137419718
0.0045 -0.0035 0.0085944276825
0.0045 -0.0025 0.0086015301672
0.0045 -0.0015 0.00870084774271
0.0045 -0.0005 0.00890120035734
0.0045 0.0005 0.00923726349756
0.0045 0.0015 0.00976532933632
0.0045 0.0025 0.0105426122173
0.0045 0.0035 0.0115634658485
0.0045 0.0045 0.0126667787258
0.0045 0.0055 0.0135191811687
0.0045 0.0065 0.0136718608589
0.0045 0.0075 0.0125997066684
0.0045 0.0085 0.00986821739776
0.0045 0.0095 0.00590013122641
0.0045 0.0105 0.0024883576669
0.0045 0.0115 0.000815072137133
0.0045 0.0125 0.000260860980187
0.0045 0.0135 8.50097814247e-05
0.0045 0.0145 3.72583062813e-05
0.0045 0.0155 2.01719389337e-05
0.0045 0.0165 1.31463276736e-05
0.0045 0.0175 9.81700102407e-06
0.0045 0.0185 8.14987207452e-06
0.0045 0.0195 7.30856597528e-06
0.0045 0.0205 6.89638039137e-06
0.0045 0.0215 6.69861197908e-06
0.0045 0.0225 6.61961223181e-06
0.0045 0.0235 6.64013783878e-06
0.0045 0.0245 6.75868623879e-06
0.0045 0.0255 6.9489113996e-06
0.0045 0.0265 7.1459407494e-06
0.0045 0.0275 7.22633649523e-06
0.0045 0.0285 7.12005110054e-06
0.0045 0.0295 6.59091553055e-06
0.0045 0.0305 6.74542633086e-06
0.0045 0.0315 3.77495542803e-06
0.0055 -0.0315 8.62224655607e-06
0.0055 -0.0305 2.42611573039e-05
0.0055 -0.0295 5.75831845633e-05
0.0055 -0.0285 0.00017765342466
0.0055 -0.0275 0.000505963311676
0.0055 -0.0265 0.00132912854141
0.0055 -0.0255 0.00310354906851
0.0055 -0.0245 0.00571746391366
0.0055 -0.0235 0.00811698259845
0.0055 -0.0225 0.00941905528794
0.0055 -0.0215 0.00979874607057
0.0055 -0.0205 0.0101274003187
0.0055 -0.0195 0.0111805853185
0.0055 -0.0185 0.0126186139734
0.0055 -0.0175 0.0133799118441
0.0055 -0.0165 0.0129558671854
0.0055 -0.0155 0.0115581144942
0.0055 -0.0145 0.00968433891265
0.0055 -0.0135 0.00781512880296
0.0055 -0.0125 0.0062553023801
0.0055 -0.0115 0.0051162202021
0.0055 -0.0105 0.00437859609939
0.0055 -0.0095 0.00396513543338
0.0055 -0.0085 0.00376976890754
0.0055 -0.0075 0.00367366000355
0.0055 -0.0065 0.00355668413633
0.0055 -0.0055 0.00335472437696
0.0055 -0.0045 0.00315516325599
0.0055 -0.0035 0.00309109047142
0.0055 -0.0025 0.00317389115043
0.0055 -0.0015 0.00334826164952
0.0055 -0.0005 0.00359407105187
0.0055 0.0005 0.00394189813918
0.0055 0.0015 0.00446956689514
0.0055 0.0025 0.00530900612474
0.0055 0.0035 0.00663969346502
0.0055 0.0045 0.00858462921481
0.0055 0.0055 0.0109414550159
0.0055 0.0065 0.0130409884813
0.0055 0.0075 0.0139665886971
0.0055 0.0085 0.0127374606786
0.0055 0.0095 0.00900447515419
0.0055 0.0105 0.00447226742636
0.0055 0.0115 0.00158889064088
0.0055 0.0125 0.000516004285177
0.0055 0.0135 0.000172590933896
0.0055 0.0145 6.85889340453e-05
0.0055 0.0155 3.66703570367e-05
0.0055 0.0165 2.31964171784e-05
0.0055 0.0175 1.63798534787e-05
0.0055 0.0185 1.24410542522e-05
0.0055 0.0195 1.01584648393e-05
0.0055 0.0205 8.83638936374e-06
0.0055 0.0215 8.0187824578e-06
0.0055 0.0225 7.52904092319e-06
0.0055 0.0235 7.31166629886e-06
0.0055 0.0245 7.31216425674e-06
0.0055 0.0255 7.42903755811e-06
0.0055 0.0265 7.52668971958e-06
0.0055 0.0275 7.45298568643e-06
0.0055 0.0285 7.18260544971e-06
0.0055 0.0295 6.55307081395e-06
0.0055 0.0305 6.81605956937e-06
0.0055 0.0315 3.87922396886e-06
0.0065 -0.0315 1.13130336564e-05
0.0065 -0.0305 3.25866076643e-05
0.0065 -0.0295 8.14433855358e-05
0.0065 -0.0285 0.000269542245856
0.0065 -0.0275 0.000845086067772
0.0065 -0.0265 0.00229289240793
0.0065 -0.0255 0.00479836579839
0.0065 -0.0245 0.00746936580826
0.0065 -0.0235 0.00890376409142
0.0065 -0.0225 0.00844376503056
0.0065 -0.0215 0.00649439532267
0.0065 -0.0205 0.00458020049307
0.0065 -0.0195 0.00453081280608
0.0065 -0.0185 0.0053736262339
0.0065 -0.0175 0.00563909386324
0.0065 -0.0165 0.00517041317944
0.0065 -0.0155 0.00430400026822
0.0065 -0.0145 0.00337332229906
0.0065 -0.0135 0.00257815955065
0.0065 -0.0125 0.00198184020746
0.0065 -0.0115 0.00157260785617
0.0065 -0.0105 0.00133178958812
0.0065 -0.0095 0.0012642906435
0.0065 -0.0085 0.00143942819208
0.0065 -0.0075 0.00188561630185
0.0065 -0.0065 0.00222765436141
0.0065 -0.0055 0.00206054989508
0.0065 -0.0045 0.00157291684704
0.0065 -0.0035 0.00115813013357
0.0065 -0.0025 0.000953133721544
0.0065 -0.0015 0.000921027989942
0.0065 -0.0005 0.000998815221633
0.0065 0.0005 0.00115663320262
0.0065 0.0015 0.00141842219832
0.0065 0.0025 0.00188200834417
0.0065 0.0035 0.00276159050645
0.0065 0.0045 0.00442312767708
0.0065 0.0055 0.00718095090106
0.0065 0.0065 0.010683829825
0.0065 0.0075 0.0136455446964
0.0065 0.0085 0.0144381741045
0.0065 0.0095 0.011945321511
0.0065 0.0105 0.00711637975596
0.0065 0.0115 0.00297345676241
0.0065 0.0125 0.00103610662545
0.0065 0.0135 0.000391009180535
0.0065 0.0145 0.000158821179703
0.0065 0.0155 8.1566658371e-05
0.0065 0.0165 5.27970589374e-05
0.0065 0.0175 3.45824774723e-05
0.0065 0.0185 2.33668983359e-05
0.0065 0.0195 1.71291163271e-05
0.0065 0.0205 1.33015485263e-05
0.0065 0.0215 1.0786252049e-05
0.0065 0.0225 9.20112004228e-06
0.0065 0.0235 8.3652791036e-06
0.0065 0.0245 8.05180909971e-06
0.0065 0.0255 7.98066768055e-06
0.0065 0.0265 7.90514218997e-06
0.0065 0.0275 7.65012357294e-06
0.0065 0.0285 7.22856711155e-06
0.0065 0.0295 6.51505654258e-06
0.0065 0.0305 6.84739234919e-06
0.0065 0.0315 3.93753602833e-06
0.0075 -0.0315 1.78559699395e-05
0.0075 -0.0305 5.27511501075e-05
0.0075 -0.0295 0.000153737212573
0.0075 -0.0285 0.000500487899266
0.0075 -0.0275 0.00157393489234
0.0075 -0.0265 0.00402135456061
0.0075 -0.0255 0.0072517130173
0.0075 -0.0245 0.00948792321646
0.0075 -0.0235 0.00957994902041
0.0075 -0.0225 0.00761539143045
0.0075 -0.0215 0.00460234137367
0.0075 -0.0205 0.00204477950146
0.0075 -0.0195 0.00112672013158
0.0075 -0.0185 0.00132146510232
0.0075 -0.0175 0.00143981082665
0.0075 -0.0165 0.00136084576485
0.0075 -0.0155 0.00117447045864
0.0075 -0.0145 0.000958487876647
0.0075 -0.0135 0.000760647657359
0.0075 -0.0125 0.000609223843078
0.0075 -0.0115 0.000523211004792
0.0075 -0.0105 0.000527204539984
0.0075 -0.0095 0.000685908142149
0.0075 -0.0085 0.00120091300094
0.0075 -0.0075 0.00214545971655
0.0075 -0.0065 0.00270255527111
0.0075 -0.0055 0.00225380204213
0.0075 -0.0045 0.00151052958455
0.0075 -0.0035 0.00103834067049
0.0075 -0.0025 0.000746878980749
0.0075 -0.0015 0.000553097995959
0.0075 -0.0005 0.000436069446788
0.0075 0.0005 0.000396543263732
0.0075 0.0015 0.000438628420957
0.0075 0.0025 0.000586847846703
0.0075 0.0035 0.000960726574421
0.0075 0.0045 0.00186893188147
0.0075 0.0055 0.00391395000269
0.0075 0.0065 0.00751832353084
0.0075 0.0075 0.0118133656896
0.0075 0.0085 0.0146649810748
0.0075 0.0095 0.0140862809859
0.0075 0.0105 0.0100265774601
0.0075 0.0115 0.00511194815552
0.0075 0.0125 0.00204439998925
0.0075 0.0135 0.0008689950063
0.0075 0.0145 0.000440759774676
0.0075 0.0155 0.000259274006071
0.0075 0.0165 0.000160151426561
0.0075 0.0175 8.90764637354e-05
0.0075 0.0185 5.45048087772e-05
0.0075 0.0195 3.60774187133e-05
0.0075 0.0205 2.48996445804e-05
0.0075 0.0215 1.7438063908e-05
0.0075 0.0225 1.28013441324e-05
0.0075 0.0235 1.03654969647e-05
0.0075 0.0245 9.2587221081e-06
0.0075 0.0255 8.74193770179e-06
0.0075 0.0265 8.36100749422e-06
0.0075 0.0275 7.8690870233e-06
0.0075 0.0285 7.28007964846e-06
0.0075 0.0295 6.47360610552e-06
0.0075 0.0305 6.81721459957e-06
0.0075 0.0315 3.93520145308e-06
0.0085 -0.0315 3.20353131396e-05
0.0085 -0.0305 9.86287705293e-05
0.0085 -0.0295 0.000308347399418
0.0085 -0.0285 0.000984572431777
0.0085 -0.0275 0.00290915863127
0.0085 -0.0265 0.00635869714914
0.0085 -0.0255 0.0094773780037
0.0085 -0.0245 0.0101569114403
0.0085 -0.0235 0.00826576328106
0.0085 -0.0225 0.00513622278156
0.0085 -0.0215 0.00237277379814
0.0085 -0.0205 0.000824950754827
0.0085 -0.0195 0.000335796760098
0.0085 -0.0185 0.000295676141634
0.0085 -0.0175 0.000322415585551
0.0085 -0.0165 0.000329060002574
0.0085 -0.0155 0.000306892878828
0.0085 -0.0145 0.000271975007814
0.0085 -0.0135 0.000243178388581
0.0085 -0.0125 0.000235681341609
0.0085 -0.0115 0.000258562002703
0.0085 -0.0105 0.000322242850427
0.0085 -0.0095 0.000471374879989
0.0085 -0.0085 0.000985862914191
0.0085 -0.0075 0.00222150072264
0.0085 -0.0065 0.00298923120163
0.0085 -0.0055 0.00218547736065
0.0085 -0.0045 0.00117561116017
0.0085 -0.0035 0.000771914372465
0.0085 -0.0025 0.000550436984775
0.0085 -0.0015 0.000403524044169
0.0085 -0.0005 0.000297684207179
0.0085 0.0005 0.000226555716963
0.0085 0.0015 0.000193298398417
0.0085 0.0025 0.000213207205232
0.0085 0.0035 0.00035913630248
0.0085 0.0045 0.000783991239165
0.0085 0.0055 0.00192206548824
0.0085 0.0065 0.00464112201172
0.0085 0.0075 0.00908858568912
0.0085 0.0085 0.0134247751531
0.0085 0.0095 0.0149338465036
0.0085 0.0105 0.0125061079743
0.0085 0.0115 0.00781525027871
0.0085 0.0125 0.00385481503136
0.0085 0.0135 0.00194808251893
0.0085 0.0145 0.00124778060466
0.0085 0.0155 0.000866669060518
0.0085 0.0165 0.00054177709437
0.0085 0.0175 0.000282280107703
0.0085 0.0185 0.000150015793395
0.0085 0.0195 9.59077215655e-05
0.0085 0.0205 5.9820258411e-05
0.0085 0.0215 3.44130839332e-05
0.0085 0.0225 2.08471269475e-05
0.0085 0.0235 1.44045798455e-05
0.0085 0.0245 1.13357560353e-05
0.0085 0.0255 9.8518106097e-06
0.0085 0.0265 8.93448211163e-06
0.0085 0.0275 8.10755464602e-06
0.0085 0.0285 7.31691554158e-06
0.0085 0.0295 6.40668835528e-06
0.0085 0.0305 6.71095547223e-06
0.0085 0.0315 3.86820781213e-06
0.0095 -0.0315 6.14120283199e-05
0.0095 -0.0305 0.000203168821449
0.0095 -0.0295 0.000611398971513
0.0095 -0.0285 0.00189784907874
0.0095 -0.0275 0.0048869980224
0.0095 -0.0265 0.00870426093657
0.0095 -0.0255 0.0105207995787
0.0095 -0.0245 0.00901030276998
0.0095 -0.0235 0.00563000083566
0.0095 -0.0225 0.00263042446292
0.0095 -0.0215 0.000983938415429
0.0095 -0.0205 0.000324911554238
0.0095 -0.0195 0.000124972374983
0.0095 -0.0185 9.08707797533e-05
0.0095 -0.0175 8.94226369857e-05
0.0095 -0.0165 9.24258627971e-05
0.0095 -0.0155 9.37736516606e-05
0.0095 -0.0145 9.51479503775e-05
0.0095 -0.0135 0.000100338058463
0.0095 -0.0125 0.000112636766569
0.0095 -0.0115 0.000134976922845
0.0095 -0.0105 0.000175795739457
0.0095 -0.0095 0.000275779595974
0.0095 -0.0085 0.000630165091681
0.0095 -0.0075 0.00187633277427
0.0095 -0.0065 0.00310770046985
0.0095 -0.0055 0.00237572511446
0.0095 -0.0045 0.00100276354059
0.0095 -0.0035 0.000494421733792
0.0095 -0.0025 0.000307266944062
0.0095 -0.0015 0.000215875336812
0.0095 -0.0005 0.000158724589293
0.0095 0.0005 0.000119914462144
0.0095 0.0015 9.62302067051e-05
0.0095 0.0025 9.45447928064e-05
0.0095 0.0035 0.000148353399295
0.0095 0.0045 0.000357474966702
0.0095 0.0055 0.000954156847968
0.0095 0.0065 0.00262686033313
0.0095 0.0075 0.00627616196761
0.0095 0.0085 0.0111247257439
0.0095 0.0095 0.0143028809842
0.0095 0.0105 0.0137830327484
0.0095 0.0115 0.0102775248871
0.0095 0.0125 0.00636990584067
0.0095 0.0135 0.00415504860986
0.0095 0.0145 0.00331232275537
0.0095 0.0155 0.00267157539048
0.0095 0.0165 0.00184060705598
0.0095 0.0175 0.00103487590452
0.0095 0.0185 0.000563652537105
0.0095 0.0195 0.000339469015357
0.0095 0.0205 0.000175218283739
0.0095 0.0215 7.77226969094e-05
0.0095 0.0225 3.91528721899e-05
0.0095 0.0235 2.21186365352e-05
0.0095 0.0245 1.47870371236e-05
0.0095 0.0255 1.1486794078e-05
0.0095 0.0265 9.67638177258e-06
0.0095 0.0275 8.37055197821e-06
0.0095 0.0285 7.33427183417e-06
0.0095 0.0295 6.31243525939e-06
0.0095 0.0305 6.54302748963e-06
0.0095 0.0315 3.75296833574e-06
0.0105 -0.0315 0.000133700094699
0.0105 -0.0305 0.000435340367994
0.0105 -0.0295 0.00123396844645
0.0105 -0.0285 0.00346237505463
0.0105 -0.0275 0.00723749086949
0.0105 -0.0265 0.0102998219202
0.0105 -0.0255 0.0100208043786
0.0105 -0.0245 0.00676452250829
0.0105 -0.0235 0.00325433614365
0.0105 -0.0225 0.00124733102609
0.0105 -0.0215 0.000446108091102
0.0105 -0.0205 0.000156424975786
0.0105 -0.0195 6.91979259488e-05
0.0105 -0.0185 4.67869467811e-05
0.0105 -0.0175 4.27812378941e-05
0.0105 -0.0165 4.37709193429e-05
0.0105 -0.0155 4.61706431883e-05
0.0105 -0.0145 4.96057163446e-05
0.0105 -0.0135 5.48470560064e-05
0.0105 -0.0125 6.30886322446e-05
0.0105 -0.0115 7.71872454564e-05
0.0105 -0.0105 0.000105361103779
0.0105 -0.0095 0.000184061011656
0.0105 -0.0085 0.000416074398774
0.0105 -0.0075 0.00148046020921
0.0105 -0.0065 0.00319511644135
0.0105 -0.0055 0.00298199344273
0.0105 -0.0045 0.00129263460611
0.0105 -0.0035 0.000467494133968
0.0105 -0.0025 0.000225731139759
0.0105 -0.0015 0.000131621709542
0.0105 -0.0005 9.0821173265e-05
0.0105 0.0005 6.93210874467e-05
0.0105 0.0015 5.86034438772e-05
0.0105 0.0025 6.00626263843e-05
0.0105 0.0035 8.37681741042e-05
0.0105 0.0045 0.000187570513289
0.0105 0.0055 0.000513300684492
0.0105 0.0065 0.00145659076052
0.0105 0.0075 0.00400660009243
0.0105 0.0085 0.00845573909656
0.0105 0.0095 0.0125029764309
0.0105 0.0105 0.0134762180451
0.0105 0.0115 0.0113429088352
0.0105 0.0125 0.00835433543056
0.0105 0.0135 0.0068488325756
0.0105 0.0145 0.00658228342024
0.0105 0.0155 0.00619981316995
0.0105 0.0165 0.00510544186019
0.0105 0.0175 0.0034304378118
0.0105 0.0185 0.00193726558996
0.0105 0.0195 0.00102407714706
0.0105 0.0205 0.000492844717027
0.0105 0.0215 0.000198761407543
0.0105 0.0225 7.63505693018e-05
0.0105 0.0235 3.52680497912e-05
0.0105 0.0245 2.03840273946e-05
0.0105 0.0255 1.40145647177e-05
0.0105 0.0265 1.07590920062e-05
0.0105 0.0275 8.74071475675e-06
0.0105 0.0285 7.37577405799e-06
0.0105 0.0295 6.22914605486e-06
0.0105 0.0305 6.32745983406e-06
0.0105 0.0315 3.58348121796e-06
0.0115 -0.0315 0.000288038654384
0.0115 -0.0305 0.000913763276632
0.0115 -0.0295 0.00243183111418
0.0115 -0.0285 0.00565950708361
0.0115 -0.0275 0.00933779497378
0.0115 -0.0265 0.0106104785314
0.0115 -0.0255 0.00827193948255
0.0115 -0.0245 0.00442104815113
0.0115 -0.0235 0.00174593319236
0.0115 -0.0225 0.000620800132842
0.0115 -0.0215 0.000214817671505
0.0115 -0.0205 8.27500601754e-05
0.0115 -0.0195 4.50374980058e-05
0.0115 -0.0185 3.14280466025e-05
0.0115 -0.0175 2.74361981606e-05
0.0115 -0.0165 2.73962674075e-05
0.0115 -0.0155 2.89789188462e-05
0.0115 -0.0145 3.14727064873e-05
0.0115 -0.0135 3.50289766323e-05
0.0115 -0.0125 4.05067563634e-05
0.0115 -0.0115 5.07810265315e-05
0.0115 -0.0105 7.41690599786e-05
0.0115 -0.0095 0.000141139821637
0.0115 -0.0085 0.000347815958897
0.0115 -0.0075 0.00126895537865
0.0115 -0.0065 0.00320416002181
0.0115 -0.0055 0.00357623786876
0.0115 -0.0045 0.00185338043492
0.0115 -0.0035 0.000639200279453
0.0115 -0.0025 0.000235637594751
0.0115 -0.0015 0.000106550231919
0.0115 -0.0005 6.36300440668e-05
0.0115 0.0005 4.7264568053e-05
0.0115 0.0015 4.22013903366e-05
0.0115 0.0025 4.62915995593e-05
0.0115 0.0035 6.50526389304e-05
0.0115 0.0045 0.00012041756864
0.0115 0.0055 0.000298058865025
0.0115 0.0065 0.000859912117197
0.0115 0.0075 0.00254155826363
0.0115 0.0085 0.0061504850584
0.0115 0.0095 0.0102490139035
0.0115 0.0105 0.011924631426
0.0115 0.0115 0.0105170646611
0.0115 0.0125 0.00825595202081
0.0115 0.0135 0.00765663252006
0.0115 0.0145 0.00814158275227
0.0115 0.0155 0.00859009841424
0.0115 0.0165 0.0084972353084
0.0115 0.0175 0.00717651844336
0.0115 0.0185 0.00482980787122
0.0115 0.0195 0.00256765703936
0.0115 0.0205 0.00112595140108
0.0115 0.0215 0.000418513054951
0.0115 0.0225 0.000135332462906
0.0115 0.0235 5.71565968115e-05
0.0115 0.0245 3.01042425453e-05
0.0115 0.0255 1.8535579836e-05
0.0115 0.0265 1.27575564597e-05
0.0115 0.0275 9.50115754977e-06
0.0115 0.0285 7.58918776162e-06
0.0115 0.0295 6.24690429876e-06
0.0115 0.0305 6.19636914757e-06
0.0115 0.0315 3.45942075719e-06
0.0125 -0.0315 0.00056242445834
0.0125 -0.0305 0.00183727134356
0.0125 -0.0295 0.0043218245283
0.0125 -0.0285 0.00799569246951
0.0125 -0.0275 0.010458024069
0.0125 -0.0265 0.00953826467145
0.0125 -0.0255 0.00594758404318
0.0125 -0.0245 0.00258610183644
0.0125 -0.0235 0.000921822163068
0.0125 -0.0225 0.000320600561931
0.0125 -0.0215 0.000118482424663
0.0125 -0.0205 5.66145873574e-05
0.0125 -0.0195 3.37481970466e-05
0.0125 -0.0185 2.47749237885e-05
0.0125 -0.0175 2.16766646838e-05
0.0125 -0.0165 2.1450425457e-05
0.0125 -0.0155 2.25437650979e-05
0.0125 -0.0145 2.43439764901e-05
0.0125 -0.0135 2.6905003104e-05
0.0125 -0.0125 3.10501633746e-05
0.0125 -0.0115 3.96170495281e-05
0.0125 -0.0105 6.07059664905e-05
0.0125 -0.0095 0.000122250123887
0.0125 -0.0085 0.000314444790552
0.0125 -0.0075 0.00112610251833
0.0125 -0.0065 0.00309484437019
0.0125 -0.0055 0.00396925343643
0.0125 -0.0045 0.00239824039839
0.0125 -0.0035 0.000823488972749
0.0125 -0.0025 0.000258167642366
0.0125 -0.0015 0.000103887208922
0.0125 -0.0005 5.49235587369e-05
0.0125 0.0005 3.87249683465e-05
0.0125 0.0015 3.5192865519e-05
0.0125 0.0025 4.04304485161e-05
0.0125 0.0035 5.64001590909e-05
0.0125 0.0045 9.10705057042e-05
0.0125 0.0055 0.000208601444622
0.0125 0.0065 0.000612651276173
0.0125 0.0075 0.00184194364885
0.0125 0.0085 0.00475700185349
0.0125 0.0095 0.00845666265815
0.0125 0.0105 0.0100815773911
0.0125 0.0115 0.00847323671338
0.0125 0.0125 0.00596918190599
0.0125 0.0135 0.00536809879316
0.0125 0.0145 0.00562917817372
0.0125 0.0155 0.00646956972844
0.0125 0.0165 0.00802152675736
0.0125 0.0175 0.00893702594994
0.0125 0.0185 0.00787410188172
0.0125 0.0195 0.0050754197113
0.0125 0.0205 0.00227737081193
0.0125 0.0215 0.000747292355194
0.0125 0.0225 0.000236676396713
0.0125 0.0235 0.000100205312902
0.0125 0.0245 4.98973248286e-05
0.0125 0.0255 2.81341849825e-05
0.0125 0.0265 1.70995970947e-05
0.0125 0.0275 1.13223421941e-05
0.0125 0.0285 8.31304196266e-06
0.0125 0.0295 6.52895375847e-06
0.0125 0.0305 6.3128544172e-06
0.0125 0.0315 3.49699829732e-06
0.0135 -0.0315 0.00104359736675
0.0135 -0.0305 0.00333564814637
0.0135 -0.0295 0.0065530345193
0.0135 -0.0285 0.00968073858755
0.0135 -0.0275 0.0102033502802
0.0135 -0.0265 0.00748060726653
0.0135 -0.0255 0.00375213647105
0.0135 -0.0245 0.00140323904989
0.0135 -0.0235 0.000489583936114
0.0135 -0.0225 0.000176187316745
0.0135 -0.0215 7.71818915496e-05
0.0135 -0.0205 4.33438313894e-05
0.0135 -0.0195 2.83301047009e-05
0.0135 -0.0185 2.18747117894e-05
0.0135 -0.0175 1.97576079611e-05
0.0135 -0.0165 1.97524740735e-05
0.0135 -0.0155 2.07273914547e-05
0.0135 -0.0145 2.22064632311e-05
0.0135 -0.0135 2.42366067434e-05
0.0135 -0.0125 2.76320627933e-05
0.0135 -0.0115 3.5160423645e-05
0.0135 -0.0105 5.45454057824e-05
0.0135 -0.0095 0.000110967781869
0.0135 -0.0085 0.000284857606165
0.0135 -0.0075 0.00100958898205
0.0135 -0.0065 0.00295697015326
0.0135 -0.0055 0.0041575990965
0.0135 -0.0045 0.00269299119211
0.0135 -0.0035 0.000882620380407
0.0135 -0.0025 0.000260399150294
0.0135 -0.0015 0.000105164674779
0.0135 -0.0005 5.36421701485e-05
0.0135 0.0005 3.65590815489e-05
0.0135 0.0015 3.31031661912e-05
0.0135 0.0025 3.87693235641e-05
0.0135 0.0035 5.51592259999e-05
0.0135 0.0045 9.17025799667e-05
0.0135 0.0055 0.000204117106627
0.0135 0.0065 0.000570990303931
0.0135 0.0075 0.00172173551925
0.0135 0.0085 0.00444190389266
0.0135 0.0095 0.00782219203286
0.0135 0.0105 0.0089921221792
0.0135 0.0115 0.00664465052574
0.0135 0.0125 0.00342429138601
0.0135 0.0135 0.00244388014332
0.0135 0.0145 0.00225327362966
0.0135 0.0155 0.00278039538494
0.0135 0.0165 0.00462576705505
0.0135 0.0175 0.00724308502801
0.0135 0.0185 0.00892059201017
0.0135 0.0195 0.00772048618015
0.0135 0.0205 0.0043048005993
0.0135 0.0215 0.00157012385263
0.0135 0.0225 0.000516275735864
0.0135 0.0235 0.000206353826354
0.0135 0.0245 0.000100486006851
0.0135 0.0255 5.06690274711e-05
0.0135 0.0265 2.69338995467e-05
0.0135 0.0275 1.57515730158e-05
0.0135 0.0285 1.0194189548e-05
0.0135 0.0295 7.33799883552e-06
0.0135 0.0305 6.75442355968e-06
0.0135 0.0315 3.69541737694e-06
0.0145 -0.0315 0.00179368550982
0.0145 -0.0305 0.00521477845128
0.0145 -0.0295 0.00846291988326
0.0145 -0.0285 0.0102037347634
0.0145 -0.0275 0.00876282773782
0.0145 -0.0265 0.0051661973485
0.0145 -0.0255 0.00213097521815
0.0145 -0.0245 0.000744744546639
0.0145 -0.0235 0.000267630743345
0.0145 -0.0225 0.000111766807818
0.0145 -0.0215 5.91630048854e-05
0.0145 -0.0205 3.59184290812e-05
0.0145 -0.0195 2.53221802118e-05
0.0145 -0.0185 2.08361218852e-05
0.0145 -0.0175 1.95618256562e-05
0.0145 -0.0165 1.98908022771e-05
0.0145 -0.0155 2.09971444449e-05
0.0145 -0.0145 2.23898671323e-05
0.0145 -0.0135 2.39960338525e-05
0.0145 -0.0125 2.66250914559e-05
0.0145 -0.0115 3.30517935489e-05
0.0145 -0.0105 5.05037755938e-05
0.0145 -0.0095 0.000101335497397
0.0145 -0.0085 0.000257548964981
0.0145 -0.0075 0.000918182800862
0.0145 -0.0065 0.00284955597992
0.0145 -0.0055 0.00425338397401
0.0145 -0.0045 0.0028546984993
0.0145 -0.0035 0.00090800535122
0.0145 -0.0025 0.000260000503464
0.0145 -0.0015 0.000107691173948
0.0145 -0.0005 5.56689151353e-05
0.0145 0.0005 3.74509196175e-05
0.0145 0.0015 3.37115511723e-05
0.0145 0.0025 4.0197561799e-05