% Model:              Benchmark260518.mph
% Version:            COMSOL 6.2.0.339
% Date:               May 19 2026, 14:34
% Dimension:          2
% Nodes:              4096
% Expressions:        1
% Description:        速度大小
% Length unit:        m
% x                       y                        spf.U (m/s)
5.0E-4                    -0.0315                  1.7061405118630566E-6
5.0E-4                    -0.0305                  3.449768058800546E-6
5.0E-4                    -0.0295                  3.896500018892668E-6
5.0E-4                    -0.0285                  4.357161907151674E-6
5.0E-4                    -0.0275                  4.619377891039922E-6
5.0E-4                    -0.0265                  4.859958443204302E-6
5.0E-4                    -0.0255                  5.069080098441481E-6
5.0E-4                    -0.0245                  5.272345708543185E-6
5.0E-4                    -0.0235                  5.469038163903399E-6
5.0E-4                    -0.0225                  5.65771722048022E-6
5.0E-4                    -0.0215                  5.8261927975923075E-6
5.0E-4                    -0.0205                  5.9725535708327165E-6
5.0E-4                    -0.0195                  6.089348044016055E-6
5.0E-4                    -0.0185                  6.178810779513716E-6
5.0E-4                    -0.0175                  6.255649921140289E-6
5.0E-4                    -0.0165                  6.328261320844885E-6
5.0E-4                    -0.0155                  6.406436518222664E-6
5.0E-4                    -0.0145                  6.488025840115656E-6
5.0E-4                    -0.0135                  6.5703002843949446E-6
5.0E-4                    -0.0125                  6.659923992245589E-6
5.0E-4                    -0.0115                  6.770387751199224E-6
5.0E-4                    -0.0105                  6.9318554098521355E-6
5.0E-4                    -0.0095                  7.195719126005431E-6
5.0E-4                    -0.0085                  7.708095830190156E-6
5.0E-4                    -0.0075                  8.724478645211944E-6
5.0E-4                    -0.0065                  1.0494744812286599E-5
5.0E-4                    -0.0055                  1.5435135490164336E-5
5.0E-4                    -0.0045                  3.158216236852872E-5
5.0E-4                    -0.0035                  7.929971816192985E-5
5.0E-4                    -0.0025                  2.1462891081751466E-4
5.0E-4                    -0.0015                  4.335984485173776E-4
5.0E-4                    -5.0E-4                  6.465157263596394E-4
5.0E-4                    5.0E-4                   9.655340351005005E-4
5.0E-4                    0.0015                   0.0017630521418434194
5.0E-4                    0.0025                   0.0031188550414416134
5.0E-4                    0.0035                   0.0047713774845536865
5.0E-4                    0.0045                   0.006378091691079497
5.0E-4                    0.0055                   0.007617002021124093
5.0E-4                    0.0065                   0.008274472007461424
5.0E-4                    0.0075                   0.008254075370041544
5.0E-4                    0.0085                   0.007534841133268603
5.0E-4                    0.0095                   0.006199466911779518
5.0E-4                    0.0105                   0.004450466143105955
5.0E-4                    0.0115                   0.002564720720168101
5.0E-4                    0.0125                   0.001052490616576309
5.0E-4                    0.0135                   0.001435018840975595
5.0E-4                    0.0145                   0.0017821999489038489
5.0E-4                    0.0155                   0.001355351812775189
5.0E-4                    0.0165                   7.774083474547449E-4
5.0E-4                    0.0175                   6.409016319261445E-4
5.0E-4                    0.0185                   7.921723256573101E-4
5.0E-4                    0.0195                   9.868949480309004E-4
5.0E-4                    0.0205                   0.0017594629523687815
5.0E-4                    0.0215                   0.00416589546343802
5.0E-4                    0.0225                   0.031608721016424375
5.0E-4                    0.0235                   0.05277621026798838
5.0E-4                    0.0245                   0.04125453310910337
5.0E-4                    0.0255                   0.0156191777602511
5.0E-4                    0.0265                   5.866042205700738E-4
5.0E-4                    0.0275                   4.985850559641279E-4
5.0E-4                    0.0285                   1.2387770574965524E-4
5.0E-4                    0.0295                   2.9643654269935746E-5
5.0E-4                    0.0305                   7.229731754683475E-6
5.0E-4                    0.0315                   1.518392423029509E-6
0.0015                    -0.0315                  3.3370620249691998E-6
0.0015                    -0.0305                  6.665150027289797E-6
0.0015                    -0.0295                  7.235467127270854E-6
0.0015                    -0.0285                  7.757410343406646E-6
0.0015                    -0.0275                  7.952671930405233E-6
0.0015                    -0.0265                  8.142116531553598E-6
0.0015                    -0.0255                  8.32244318424669E-6
0.0015                    -0.0245                  8.525013936820267E-6
0.0015                    -0.0235                  8.745800566188374E-6
0.0015                    -0.0225                  8.974708359014512E-6
0.0015                    -0.0215                  9.187875175728713E-6
0.0015                    -0.0205                  9.369811602424992E-6
0.0015                    -0.0195                  9.504120088046834E-6
0.0015                    -0.0185                  9.590842326556759E-6
0.0015                    -0.0175                  9.649887654659373E-6
0.0015                    -0.0165                  9.700982455457247E-6
0.0015                    -0.0155                  9.764302452867459E-6
0.0015                    -0.0145                  9.844014720777642E-6
0.0015                    -0.0135                  9.938246142655771E-6
0.0015                    -0.0125                  1.0054723234606005E-5
0.0015                    -0.0115                  1.0215871881901915E-5
0.0015                    -0.0105                  1.0476848315897953E-5
0.0015                    -0.0095                  1.0954118271292276E-5
0.0015                    -0.0085                  1.1937865855381879E-5
0.0015                    -0.0075                  1.3966999448437991E-5
0.0015                    -0.0065                  1.8023603839054144E-5
0.0015                    -0.0055                  2.8394513607317496E-5
0.0015                    -0.0045                  5.7558215806940975E-5
0.0015                    -0.0035                  1.3963904757386837E-4
0.0015                    -0.0025                  3.986590486044197E-4
0.0015                    -0.0015                  9.09701893722464E-4
0.0015                    -5.0E-4                  0.0018665477228277303
0.0015                    5.0E-4                   0.003865786013164802
0.0015                    0.0015                   0.007036531338167628
0.0015                    0.0025                   0.010711177104993246
0.0015                    0.0035                   0.014189569238405118
0.0015                    0.0045                   0.016990921746540693
0.0015                    0.0055                   0.018879000519578932
0.0015                    0.0065                   0.01977289608812081
0.0015                    0.0075                   0.019661999669713787
0.0015                    0.0085                   0.018575979650204407
0.0015                    0.0095                   0.016584961580115017
0.0015                    0.0105                   0.013785446019466427
0.0015                    0.0115                   0.010286599829892407
0.0015                    0.0125                   0.0062109850803208685
0.0015                    0.0135                   0.002432494729616136
0.0015                    0.0145                   0.002420137331910514
0.0015                    0.0155                   0.003042724036925646
0.0015                    0.0165                   0.002406107925248519
0.0015                    0.0175                   0.001996293292315136
0.0015                    0.0185                   0.002090929882668078
0.0015                    0.0195                   0.002464624299355186
0.0015                    0.0205                   0.0023832305981071485
0.0015                    0.0215                   0.012915342072472833
0.0015                    0.0225                   0.03969595589148912
0.0015                    0.0235                   0.05135874552706637
0.0015                    0.0245                   0.03695005506320736
0.0015                    0.0255                   0.013197241937385312
0.0015                    0.0265                   7.641808958674715E-4
0.0015                    0.0275                   0.001001743939840556
0.0015                    0.0285                   2.732609429466142E-4
0.0015                    0.0295                   6.208985902187252E-5
0.0015                    0.0305                   1.506724595594024E-5
0.0015                    0.0315                   3.029158379823733E-6
0.0025                    -0.0315                  3.494333379995068E-6
0.0025                    -0.0305                  6.790685581920159E-6
0.0025                    -0.0295                  7.089652697219582E-6
0.0025                    -0.0285                  7.397834830874791E-6
0.0025                    -0.0275                  7.312390805001401E-6
0.0025                    -0.0265                  7.195489781048544E-6
0.0025                    -0.0255                  7.093245538848389E-6
0.0025                    -0.0245                  7.046273133487835E-6
0.0025                    -0.0235                  7.0581140550246945E-6
0.0025                    -0.0225                  7.116880234329438E-6
0.0025                    -0.0215                  7.196326015449757E-6
0.0025                    -0.0205                  7.262994721497643E-6
0.0025                    -0.0195                  7.2891244487026934E-6
0.0025                    -0.0185                  7.262889184956305E-6
0.0025                    -0.0175                  7.194092410464155E-6
0.0025                    -0.0165                  7.111896573748924E-6
0.0025                    -0.0155                  7.0509130310327845E-6
0.0025                    -0.0145                  7.03633272240033E-6
0.0025                    -0.0135                  7.075510682999974E-6
0.0025                    -0.0125                  7.167303253348971E-6
0.0025                    -0.0115                  7.332014594230537E-6
0.0025                    -0.0105                  7.646848762446557E-6
0.0025                    -0.0095                  8.30103392970701E-6
0.0025                    -0.0085                  9.71646999302041E-6
0.0025                    -0.0075                  1.2829262899204246E-5
0.0025                    -0.0065                  1.9729219689513167E-5
0.0025                    -0.0055                  3.5047393615381274E-5
0.0025                    -0.0045                  7.276393171271864E-5
0.0025                    -0.0035                  1.7261838392646934E-4
0.0025                    -0.0025                  5.458650064919579E-4
0.0025                    -0.0015                  0.0016357908338583724
0.0025                    -5.0E-4                  0.004276925138468695
0.0025                    5.0E-4                   0.008718028493577171
0.0025                    0.0015                   0.013645413001543368
0.0025                    0.0025                   0.01763640347563132
0.0025                    0.0035                   0.02030425782874553
0.0025                    0.0045                   0.021879644013045155
0.0025                    0.0055                   0.022687887199392503
0.0025                    0.0065                   0.022979326780811594
0.0025                    0.0075                   0.022942417296532396
0.0025                    0.0085                   0.022697262974713632
0.0025                    0.0095                   0.02221698929799693
0.0025                    0.0105                   0.021259422195361515
0.0025                    0.0115                   0.019334797205623817
0.0025                    0.0125                   0.01583757166411317
0.0025                    0.0135                   0.010487462154251866
0.0025                    0.0145                   0.004364994132706792
0.0025                    0.0155                   0.0019556943729720022
0.0025                    0.0165                   0.0037430428366486313
0.0025                    0.0175                   0.004068156484109163
0.0025                    0.0185                   0.003773512591498083
0.0025                    0.0195                   0.0032461122395396253
0.0025                    0.0205                   0.00408927899668437
0.0025                    0.0215                   0.023452973212169288
0.0025                    0.0225                   0.044651252953786844
0.0025                    0.0235                   0.04837692619996188
0.0025                    0.0245                   0.031152202311585817
0.0025                    0.0255                   0.009520774724916857
0.0025                    0.0265                   2.1387034494174318E-4
0.0025                    0.0275                   0.0010807526719261316
0.0025                    0.0285                   3.199753795322466E-4
0.0025                    0.0295                   6.951052832614874E-5
0.0025                    0.0305                   1.6061019170931404E-5
0.0025                    0.0315                   3.004964646669307E-6
0.0035                    -0.0315                  3.7660539950196066E-6
0.0035                    -0.0305                  7.0521489466491916E-6
0.0035                    -0.0295                  7.243147489661727E-6
0.0035                    -0.0285                  7.782522384953876E-6
0.0035                    -0.0275                  7.816178099272029E-6
0.0035                    -0.0265                  7.716156339152623E-6
0.0035                    -0.0255                  7.562320449550675E-6
0.0035                    -0.0245                  7.444966708720468E-6
0.0035                    -0.0235                  7.397660373493552E-6
0.0035                    -0.0225                  7.429904600705512E-6
0.0035                    -0.0215                  7.5227293698084185E-6
0.0035                    -0.0205                  7.636080421150346E-6
0.0035                    -0.0195                  7.722444231863219E-6
0.0035                    -0.0185                  7.747442914627086E-6
0.0035                    -0.0175                  7.70813021281099E-6
0.0035                    -0.0165                  7.640462629368634E-6
0.0035                    -0.0155                  7.608590058219065E-6
0.0035                    -0.0145                  7.67434642361408E-6
0.0035                    -0.0135                  7.86205072690247E-6
0.0035                    -0.0125                  8.164031738491785E-6
0.0035                    -0.0115                  8.594903780752939E-6
0.0035                    -0.0105                  9.277427648739162E-6
0.0035                    -0.0095                  1.055032870584082E-5
0.0035                    -0.0085                  1.3186123131829613E-5
0.0035                    -0.0075                  1.904453292675136E-5
0.0035                    -0.0065                  3.3135094884709065E-5
0.0035                    -0.0055                  6.633218242535492E-5
0.0035                    -0.0045                  1.4060503213281388E-4
0.0035                    -0.0035                  3.7616900877286485E-4
0.0035                    -0.0025                  0.001160660911965358
0.0035                    -0.0015                  0.003668772014381413
0.0035                    -5.0E-4                  0.008611252779880507
0.0035                    5.0E-4                   0.014296639088375761
0.0035                    0.0015                   0.0184760201125508
0.0035                    0.0025                   0.020600109340878386
0.0035                    0.0035                   0.021262123625766093
0.0035                    0.0045                   0.02111687958787509
0.0035                    0.0055                   0.020663610977368272
0.0035                    0.0065                   0.020333613185685648
0.0035                    0.0075                   0.02043415794784775
0.0035                    0.0085                   0.021096668229206132
0.0035                    0.0095                   0.02224528448382372
0.0035                    0.0105                   0.02351745499614669
0.0035                    0.0115                   0.024215491108366412
0.0035                    0.0125                   0.023405534901099017
0.0035                    0.0135                   0.020185341744479175
0.0035                    0.0145                   0.01432121427869609
0.0035                    0.0155                   0.007178559912732592
0.0035                    0.0165                   0.0020470894528889193
0.0035                    0.0175                   0.002919080534023194
0.0035                    0.0185                   0.0031560183775001765
0.0035                    0.0195                   0.0024062518972829696
0.0035                    0.0205                   0.01432904150912231
0.0035                    0.0215                   0.03403435519615461
0.0035                    0.0225                   0.046935103616336564
0.0035                    0.0235                   0.04348074233669836
0.0035                    0.0245                   0.024002727210173824
0.0035                    0.0255                   0.005418427188939129
0.0035                    0.0265                   7.073348855628494E-4
0.0035                    0.0275                   9.439666228718708E-4
0.0035                    0.0285                   2.7649620823554116E-4
0.0035                    0.0295                   6.027483836192771E-5
0.0035                    0.0305                   1.2806235054727522E-5
0.0035                    0.0315                   2.5809297555717157E-6
0.0045                    -0.0315                  3.958932132575292E-6
0.0045                    -0.0305                  7.154808362646793E-6
0.0045                    -0.0295                  7.107568206224001E-6
0.0045                    -0.0285                  7.778406572700563E-6
0.0045                    -0.0275                  7.988909594579238E-6
0.0045                    -0.0265                  8.002420685654461E-6
0.0045                    -0.0255                  7.874612438649173E-6
0.0045                    -0.0245                  7.729032956444194E-6
0.0045                    -0.0235                  7.640855471416394E-6
0.0045                    -0.0225                  7.65860531761916E-6
0.0045                    -0.0215                  7.792566491963923E-6
0.0045                    -0.0205                  8.01305833088183E-6
0.0045                    -0.0195                  8.26000426597821E-6
0.0045                    -0.0185                  8.471759740315763E-6
0.0045                    -0.0175                  8.625127347032531E-6
0.0045                    -0.0165                  8.767613743380307E-6
0.0045                    -0.0155                  9.022655186038975E-6
0.0045                    -0.0145                  9.534122492630983E-6
0.0045                    -0.0135                  1.0367628171576866E-5
0.0045                    -0.0125                  1.1429993386719282E-5
0.0045                    -0.0115                  1.2623388556542665E-5
0.0045                    -0.0105                  1.4202046459714392E-5
0.0045                    -0.0095                  1.6879126999932918E-5
0.0045                    -0.0085                  2.2047959872955633E-5
0.0045                    -0.0075                  3.367808925708823E-5
0.0045                    -0.0065                  6.365129735948222E-5
0.0045                    -0.0055                  1.553392898996337E-4
0.0045                    -0.0045                  3.707867908751509E-4
0.0045                    -0.0035                  9.285685081675901E-4
0.0045                    -0.0025                  0.0027082613609163016
0.0045                    -0.0015                  0.007325065389248029
0.0045                    -5.0E-4                  0.01389512659574547
0.0045                    5.0E-4                   0.018854732125181243
0.0045                    0.0015                   0.02067535881877877
0.0045                    0.0025                   0.020190784918621266
0.0045                    0.0035                   0.018451943819559065
0.0045                    0.0045                   0.01628842504560546
0.0045                    0.0055                   0.014425132784451523
0.0045                    0.0065                   0.013344010207041158
0.0045                    0.0075                   0.013276629544725832
0.0045                    0.0085                   0.014338322351834323
0.0045                    0.0095                   0.016565914141931176
0.0045                    0.0105                   0.019733679605668995
0.0045                    0.0115                   0.02317638165947061
0.0045                    0.0125                   0.025788701206755235
0.0045                    0.0135                   0.02631898441632454
0.0045                    0.0145                   0.023862473649077037
0.0045                    0.0155                   0.01849130435813185
0.0045                    0.0165                   0.011730400387826693
0.0045                    0.0175                   0.006313597513197695
0.0045                    0.0185                   0.005765740232022549
0.0045                    0.0195                   0.013075794966820244
0.0045                    0.0205                   0.027302646475243438
0.0045                    0.0215                   0.04101171918124752
0.0045                    0.0225                   0.04562083016246825
0.0045                    0.0235                   0.03625513994433159
0.0045                    0.0245                   0.016173364517169157
0.0045                    0.0255                   0.0019353823915062047
0.0045                    0.0265                   9.552307300656206E-4
0.0045                    0.0275                   6.716956362054752E-4
0.0045                    0.0285                   1.9915566752968516E-4
0.0045                    0.0295                   4.5796246848943846E-5
0.0045                    0.0305                   9.178650758185692E-6
0.0045                    0.0315                   2.015865782555435E-6
0.0055                    -0.0315                  4.1088076589331025E-6
0.0055                    -0.0305                  7.244106074276938E-6
0.0055                    -0.0295                  6.978987273000307E-6
0.0055                    -0.0285                  7.701216484576301E-6
0.0055                    -0.0275                  8.053352466786315E-6
0.0055                    -0.0265                  8.215932169659252E-6
0.0055                    -0.0255                  8.174108021401494E-6
0.0055                    -0.0245                  8.04514943430559E-6
0.0055                    -0.0235                  7.935341527476982E-6
0.0055                    -0.0225                  7.945121900829765E-6
0.0055                    -0.0215                  8.14333498541705E-6
0.0055                    -0.0205                  8.548642464895911E-6
0.0055                    -0.0195                  9.119671992054957E-6
0.0055                    -0.0185                  9.779576162797652E-6
0.0055                    -0.0175                  1.04885748221633E-5
0.0055                    -0.0165                  1.1344833575959379E-5
0.0055                    -0.0155                  1.2640202334786215E-5
0.0055                    -0.0145                  1.4825429782288649E-5
0.0055                    -0.0135                  1.8100381565096366E-5
0.0055                    -0.0125                  2.2053380960791776E-5
0.0055                    -0.0115                  2.5933502613701E-5
0.0055                    -0.0105                  2.9687626041221483E-5
0.0055                    -0.0095                  3.580901085283143E-5
0.0055                    -0.0085                  4.7790175757631805E-5
0.0055                    -0.0075                  7.127805916447505E-5
0.0055                    -0.0065                  1.443214712541121E-4
0.0055                    -0.0055                  3.670340248909626E-4
0.0055                    -0.0045                  8.751523548030588E-4
0.0055                    -0.0035                  0.002145500583050915
0.0055                    -0.0025                  0.00572454178482866
0.0055                    -0.0015                  0.01228658107840002
0.0055                    -5.0E-4                  0.01871117155896779
0.0055                    5.0E-4                   0.021407060807085734
0.0055                    0.0015                   0.020315039000762317
0.0055                    0.0025                   0.017015606449596363
0.0055                    0.0035                   0.012964879955054152
0.0055                    0.0045                   0.009440088475326352
0.0055                    0.0055                   0.007082046130957363
0.0055                    0.0065                   0.005882981535722749
0.0055                    0.0075                   0.005658575597053758
0.0055                    0.0085                   0.0063917964960064156
0.0055                    0.0095                   0.008285713470205618
0.0055                    0.0105                   0.011646171764913279
0.0055                    0.0115                   0.01644955189315138
0.0055                    0.0125                   0.021861379247722672
0.0055                    0.0135                   0.026325704679996433
0.0055                    0.0145                   0.028299007701456037
0.0055                    0.0155                   0.026967411039924522
0.0055                    0.0165                   0.022958776132762183
0.0055                    0.0175                   0.018819951290543105
0.0055                    0.0185                   0.018862080309592223
0.0055                    0.0195                   0.02576737870754122
0.0055                    0.0205                   0.035887206443499575
0.0055                    0.0215                   0.04261778768030177
0.0055                    0.0225                   0.040653956935978834
0.0055                    0.0235                   0.026866680462566784
0.0055                    0.0245                   0.008750981947905315
0.0055                    0.0255                   4.0694965234384055E-4
0.0055                    0.0265                   9.630325324997658E-4
0.0055                    0.0275                   4.327630661432775E-4
0.0055                    0.0285                   1.345668274304866E-4
0.0055                    0.0295                   3.610710010867828E-5
0.0055                    0.0305                   8.009616968553941E-6
0.0055                    0.0315                   1.658391186860095E-6
0.0065                    -0.0315                  4.232739639223485E-6
0.0065                    -0.0305                  7.315647468253928E-6
0.0065                    -0.0295                  6.842435724201593E-6
0.0065                    -0.0285                  7.566072250301519E-6
0.0065                    -0.0275                  8.005218586392619E-6
0.0065                    -0.0265                  8.300968870488389E-6
0.0065                    -0.0255                  8.371499210069622E-6
0.0065                    -0.0245                  8.297283884051656E-6
0.0065                    -0.0235                  8.190212434115212E-6
0.0065                    -0.0225                  8.203051244953865E-6
0.0065                    -0.0215                  8.498432075070637E-6
0.0065                    -0.0205                  9.21125743154347E-6
0.0065                    -0.0195                  1.0401369649793264E-5
0.0065                    -0.0185                  1.2039080013829881E-5
0.0065                    -0.0175                  1.4110429288982538E-5
0.0065                    -0.0165                  1.6880325479552555E-5
0.0065                    -0.0155                  2.121664806438976E-5
0.0065                    -0.0145                  2.8579041309722745E-5
0.0065                    -0.0135                  4.114348677859626E-5
0.0065                    -0.0125                  5.8018524064971634E-5
0.0065                    -0.0115                  7.183861142043904E-5
0.0065                    -0.0105                  8.02304533452244E-5
0.0065                    -0.0095                  9.338739321660936E-5
0.0065                    -0.0085                  1.33775518650012E-4
0.0065                    -0.0075                  2.029354210656251E-4
0.0065                    -0.0065                  3.6828044755887426E-4
0.0065                    -0.0055                  8.048424853482212E-4
0.0065                    -0.0045                  0.001864705416374046