% Model:              Benchmark260518.mph
% Version:            COMSOL 6.2.0.339
% Date:               May 19 2026, 15:13
% Dimension:          2
% Nodes:              4096
% Expressions:        1
% Description:        速度大小
% Length unit:        m
% x                       y                        spf.U (m/s)
5.0E-4                    -0.0315                  1.4286149796731434E-6
5.0E-4                    -0.0305                  2.8349277542629722E-6
5.0E-4                    -0.0295                  3.149712083326669E-6
5.0E-4                    -0.0285                  3.5033886085316724E-6
5.0E-4                    -0.0275                  3.6767850327706022E-6
5.0E-4                    -0.0265                  3.8323022469465445E-6
5.0E-4                    -0.0255                  3.9455364074908626E-6
5.0E-4                    -0.0245                  4.0444972097781805E-6
5.0E-4                    -0.0235                  4.135048798973564E-6
5.0E-4                    -0.0225                  4.222069751229069E-6
5.0E-4                    -0.0215                  4.313072982942053E-6
5.0E-4                    -0.0205                  4.4096285084132705E-6
5.0E-4                    -0.0195                  4.513433638535456E-6
5.0E-4                    -0.0185                  4.625482398657611E-6
5.0E-4                    -0.0175                  4.751577820504515E-6
5.0E-4                    -0.0165                  4.893914022443933E-6
5.0E-4                    -0.0155                  5.043792096898297E-6
5.0E-4                    -0.0145                  5.194428762434504E-6
5.0E-4                    -0.0135                  5.334200651738789E-6
5.0E-4                    -0.0125                  5.446480773358955E-6
5.0E-4                    -0.0115                  5.515141811392003E-6
5.0E-4                    -0.0105                  5.53446607438054E-6
5.0E-4                    -0.0095                  5.511746673988293E-6
5.0E-4                    -0.0085                  5.463848855967825E-6
5.0E-4                    -0.0075                  5.420411779336278E-6
5.0E-4                    -0.0065                  5.404954463224791E-6
5.0E-4                    -0.0055                  5.443982585032408E-6
5.0E-4                    -0.0045                  5.5955152942658E-6
5.0E-4                    -0.0035                  5.8276416930954185E-6
5.0E-4                    -0.0025                  6.953122763903906E-6
5.0E-4                    -0.0015                  1.0383883271700926E-5
5.0E-4                    -5.0E-4                  1.737163855840862E-5
5.0E-4                    5.0E-4                   3.0096045382706722E-5
5.0E-4                    0.0015                   5.164206745560661E-5
5.0E-4                    0.0025                   7.318236186330305E-5
5.0E-4                    0.0035                   1.9027258258452658E-4
5.0E-4                    0.0045                   4.6481250720941904E-4
5.0E-4                    0.0055                   6.999360877517941E-4
5.0E-4                    0.0065                   6.737639954886429E-4
5.0E-4                    0.0075                   0.00518644210784654
5.0E-4                    0.0085                   0.019930582025860705
5.0E-4                    0.0095                   0.02757968374894205
5.0E-4                    0.0105                   0.02052934116506665
5.0E-4                    0.0115                   0.01151465373200658
5.0E-4                    0.0125                   0.004139125143849946
5.0E-4                    0.0135                   8.814098680956297E-4
5.0E-4                    0.0145                   1.5021965855070598E-4
5.0E-4                    0.0155                   4.5681754238223484E-5
5.0E-4                    0.0165                   1.8066494699930556E-5
5.0E-4                    0.0175                   1.0147541499476316E-5
5.0E-4                    0.0185                   7.281073550478975E-6
5.0E-4                    0.0195                   6.11974023676914E-6
5.0E-4                    0.0205                   5.550286699276495E-6
5.0E-4                    0.0215                   5.23799529999523E-6
5.0E-4                    0.0225                   6.202109302873505E-6
5.0E-4                    0.0235                   5.739042067644184E-6
5.0E-4                    0.0245                   4.298795786074831E-6
5.0E-4                    0.0255                   4.7688486135173085E-6
5.0E-4                    0.0265                   4.448854233707009E-6
5.0E-4                    0.0275                   4.260875298321846E-6
5.0E-4                    0.0285                   4.094878504498763E-6
5.0E-4                    0.0295                   3.722493273484078E-6
5.0E-4                    0.0305                   3.4057265971451053E-6
5.0E-4                    0.0315                   1.7242971509500012E-6
0.0015                    -0.0315                  2.772378299785661E-6
0.0015                    -0.0305                  5.4294245329153E-6
0.0015                    -0.0295                  5.763228079288456E-6
0.0015                    -0.0285                  6.129620898838459E-6
0.0015                    -0.0275                  6.231956193707642E-6
0.0015                    -0.0265                  6.328499785135525E-6
0.0015                    -0.0255                  6.395535877032228E-6
0.0015                    -0.0245                  6.461625628443346E-6
0.0015                    -0.0235                  6.531625340575166E-6
0.0015                    -0.0225                  6.609891420107218E-6
0.0015                    -0.0215                  6.7034714034870134E-6
0.0015                    -0.0205                  6.81471860558388E-6
0.0015                    -0.0195                  6.946305386750108E-6
0.0015                    -0.0185                  7.100993714983372E-6
0.0015                    -0.0175                  7.285752072622091E-6
0.0015                    -0.0165                  7.502421567046959E-6
0.0015                    -0.0155                  7.739967835236425E-6
0.0015                    -0.0145                  7.985341911410772E-6
0.0015                    -0.0135                  8.217395154738352E-6
0.0015                    -0.0125                  8.407600889541759E-6
0.0015                    -0.0115                  8.529394063025603E-6
0.0015                    -0.0105                  8.573659637051615E-6
0.0015                    -0.0095                  8.557264503997436E-6
0.0015                    -0.0085                  8.52348969837495E-6
0.0015                    -0.0075                  8.543866004641642E-6
0.0015                    -0.0065                  8.702329388977181E-6
0.0015                    -0.0055                  9.11749942885313E-6
0.0015                    -0.0045                  9.978915192569818E-6
0.0015                    -0.0035                  1.156297799554067E-5
0.0015                    -0.0025                  1.5432652108857724E-5
0.0015                    -0.0015                  2.465545816534721E-5
0.0015                    -5.0E-4                  4.282332979225365E-5
0.0015                    5.0E-4                   7.4445040815017E-5
0.0015                    0.0015                   1.21418137468766E-4
0.0015                    0.0025                   2.469824325649107E-4
0.0015                    0.0035                   6.499614902112997E-4
0.0015                    0.0045                   0.001183905173407931
0.0015                    0.0055                   0.0011841520669006998
0.0015                    0.0065                   0.003138692517513845
0.0015                    0.0075                   0.01431790041684182
0.0015                    0.0085                   0.02631945354759665
0.0015                    0.0095                   0.026332828652407863
0.0015                    0.0105                   0.016832971567356612
0.0015                    0.0115                   0.007449681439228243
0.0015                    0.0125                   0.0022094230261941405
0.0015                    0.0135                   6.044218791157696E-4
0.0015                    0.0145                   1.5057567336077658E-4
0.0015                    0.0155                   4.362048494573577E-5
0.0015                    0.0165                   1.7545603929178926E-5
0.0015                    0.0175                   9.900320074465365E-6
0.0015                    0.0185                   7.225059673479751E-6
0.0015                    0.0195                   6.179017162918169E-6
0.0015                    0.0205                   5.734996024445689E-6
0.0015                    0.0215                   5.6709485067846725E-6
0.0015                    0.0225                   5.592023754696497E-6
0.0015                    0.0235                   6.251771757320421E-6
0.0015                    0.0245                   7.366711969782177E-6
0.0015                    0.0255                   7.65656726510628E-6
0.0015                    0.0265                   7.390161841179109E-6
0.0015                    0.0275                   7.228822766895122E-6
0.0015                    0.0285                   7.125437785135961E-6
0.0015                    0.0295                   6.749246147972632E-6
0.0015                    0.0305                   6.476875259296336E-6
0.0015                    0.0315                   3.3389678286438013E-6
0.0025                    -0.0315                  2.9344195339286635E-6
0.0025                    -0.0305                  5.526075617635955E-6
0.0025                    -0.0295                  5.52749788074999E-6
0.0025                    -0.0285                  5.683466552394669E-6
0.0025                    -0.0275                  5.570671569597594E-6
0.0025                    -0.0265                  5.440386049720521E-6
0.0025                    -0.0255                  5.311368142274077E-6
0.0025                    -0.0245                  5.205507502543267E-6
0.0025                    -0.0235                  5.125733577596724E-6
0.0025                    -0.0225                  5.074236535424131E-6
0.0025                    -0.0215                  5.051918986164422E-6
0.0025                    -0.0205                  5.060998631656422E-6
0.0025                    -0.0195                  5.104190797037416E-6
0.0025                    -0.0185                  5.184926340160961E-6
0.0025                    -0.0175                  5.305397368619469E-6
0.0025                    -0.0165                  5.464484358022062E-6
0.0025                    -0.0155                  5.655984726222833E-6
0.0025                    -0.0145                  5.86647745651859E-6
0.0025                    -0.0135                  6.075686887825028E-6
0.0025                    -0.0125                  6.258032425339544E-6
0.0025                    -0.0115                  6.389020178629495E-6
0.0025                    -0.0105                  6.457079215695778E-6
0.0025                    -0.0095                  6.480250637295988E-6
0.0025                    -0.0085                  6.524366755483915E-6
0.0025                    -0.0075                  6.7181634919995E-6
0.0025                    -0.0065                  7.2769833509681865E-6
0.0025                    -0.0055                  8.544314405647703E-6
0.0025                    -0.0045                  1.1036566390193255E-5
0.0025                    -0.0035                  1.546965284012136E-5
0.0025                    -0.0025                  2.3016855710639518E-5
0.0025                    -0.0015                  3.793864331679806E-5
0.0025                    -5.0E-4                  6.954790084077406E-5
0.0025                    5.0E-4                   1.1871936823250651E-4
0.0025                    0.0015                   2.2163491261828467E-4
0.0025                    0.0025                   5.64573169696121E-4
0.0025                    0.0035                   0.0012066586460783594
0.0025                    0.0045                   0.0014177052772449108
0.0025                    0.0055                   0.0011597068234136365
0.0025                    0.0065                   0.009353371111092494
0.0025                    0.0075                   0.020928545416342603
0.0025                    0.0085                   0.027201764637626965
0.0025                    0.0095                   0.022501533665142875
0.0025                    0.0105                   0.01206685005184724
0.0025                    0.0115                   0.004569384239949076
0.0025                    0.0125                   0.001431202507465749
0.0025                    0.0135                   4.4282217975164477E-4
0.0025                    0.0145                   1.1509883707978513E-4
0.0025                    0.0155                   4.0092720475341586E-5
0.0025                    0.0165                   1.6535118297248E-5
0.0025                    0.0175                   9.568008952539694E-6
0.0025                    0.0185                   7.164433297327561E-6
0.0025                    0.0195                   6.294141920869593E-6
0.0025                    0.0205                   5.983826003831635E-6
0.0025                    0.0215                   5.873655414220393E-6
0.0025                    0.0225                   5.983735831283901E-6
0.0025                    0.0235                   6.336237165445242E-6
0.0025                    0.0245                   6.6523347964114135E-6
0.0025                    0.0255                   6.701672422057788E-6
0.0025                    0.0265                   6.606793803007448E-6
0.0025                    0.0275                   6.547781931876873E-6
0.0025                    0.0285                   6.579075635856667E-6
0.0025                    0.0295                   6.3911847485662695E-6
0.0025                    0.0305                   6.585791680677804E-6
0.0025                    0.0315                   3.571030159316323E-6
0.0035                    -0.0315                  3.199569144586847E-6
0.0035                    -0.0305                  5.7753268009005115E-6
0.0035                    -0.0295                  5.624635866190778E-6
0.0035                    -0.0285                  5.939663254515419E-6
0.0035                    -0.0275                  5.914343821380848E-6
0.0035                    -0.0265                  5.806445152361084E-6
0.0035                    -0.0255                  5.649929287670208E-6
0.0035                    -0.0245                  5.496716090843777E-6
0.0035                    -0.0235                  5.3614305412155756E-6
0.0035                    -0.0225                  5.253153854452079E-6
0.0035                    -0.0215                  5.176794370754481E-6
0.0035                    -0.0205                  5.137033350373639E-6
0.0035                    -0.0195                  5.1390732277255236E-6
0.0035                    -0.0185                  5.188399537436817E-6
0.0035                    -0.0175                  5.289738502840795E-6
0.0035                    -0.0165                  5.445367387374167E-6
0.0035                    -0.0155                  5.653375767990128E-6
0.0035                    -0.0145                  5.9064496535691895E-6
0.0035                    -0.0135                  6.190543070846223E-6
0.0035                    -0.0125                  6.483837135839931E-6
0.0035                    -0.0115                  6.7576551107327255E-6
0.0035                    -0.0105                  6.984153857633739E-6
0.0035                    -0.0095                  7.157854964951209E-6
0.0035                    -0.0085                  7.338361069032308E-6
0.0035                    -0.0075                  7.722732558184262E-6
0.0035                    -0.0065                  8.76458944147685E-6
0.0035                    -0.0055                  1.132409415257985E-5
0.0035                    -0.0045                  1.6686539147265477E-5
0.0035                    -0.0035                  2.6218255225260833E-5
0.0035                    -0.0025                  3.9697639890030214E-5
0.0035                    -0.0015                  5.695563497653534E-5
0.0035                    -5.0E-4                  9.482607411805711E-5
0.0035                    5.0E-4                   1.837018203416507E-4
0.0035                    0.0015                   4.449194009237806E-4
0.0035                    0.0025                   0.0010358059512083416
0.0035                    0.0035                   0.0015586666767286618
0.0035                    0.0045                   2.3663675260712945E-4
0.0035                    0.0055                   0.0057613745447139654
0.0035                    0.0065                   0.015984630159932026
0.0035                    0.0075                   0.024481175809163508
0.0035                    0.0085                   0.025369899453777257
0.0035                    0.0095                   0.017565996597592934
0.0035                    0.0105                   0.007908420089106175
0.0035                    0.0115                   0.002762776465001035
0.0035                    0.0125                   9.245294790390901E-4
0.0035                    0.0135                   2.8972459347027986E-4
0.0035                    0.0145                   8.57657668730616E-5
0.0035                    0.0155                   3.2474511648441E-5
0.0035                    0.0165                   1.5052233138591238E-5
0.0035                    0.0175                   9.120173521224096E-6
0.0035                    0.0185                   7.09037574251258E-6
0.0035                    0.0195                   6.411214207484748E-6
0.0035                    0.0205                   6.200061586331798E-6
0.0035                    0.0215                   6.201005791617612E-6
0.0035                    0.0225                   6.357266439005067E-6
0.0035                    0.0235                   6.568438839229598E-6
0.0035                    0.0245                   6.763839426073753E-6
0.0035                    0.0255                   6.8875897725002285E-6
0.0035                    0.0265                   6.90307082023828E-6
0.0035                    0.0275                   6.845010204963973E-6
0.0035                    0.0285                   6.780240728807076E-6
0.0035                    0.0295                   6.421647011609269E-6
0.0035                    0.0305                   6.890268779422074E-6
0.0035                    0.0315                   3.918681273761667E-6
0.0045                    -0.0315                  3.3638571957946934E-6
0.0045                    -0.0305                  5.870950250918792E-6
0.0045                    -0.0295                  5.518858838269983E-6
0.0045                    -0.0285                  5.9216045733370265E-6
0.0045                    -0.0275                  6.027020143916271E-6
0.0045                    -0.0265                  6.0115641172205745E-6
0.0045                    -0.0255                  5.889770892543925E-6
0.0045                    -0.0245                  5.730944502351544E-6
0.0045                    -0.0235                  5.566936456650443E-6
0.0045                    -0.0225                  5.418105485487866E-6
0.0045                    -0.0215                  5.296297869326946E-6
0.0045                    -0.0205                  5.210923046067447E-6
0.0045                    -0.0195                  5.170814429124872E-6
0.0045                    -0.0185                  5.184833434809269E-6
0.0045                    -0.0175                  5.2612240622790795E-6
0.0045                    -0.0165                  5.406581454082432E-6
0.0045                    -0.0155                  5.624933642745866E-6
0.0045                    -0.0145                  5.917015377184934E-6
0.0045                    -0.0135                  6.279108041766112E-6
0.0045                    -0.0125                  6.700123946340145E-6
0.0045                    -0.0115                  7.157492723012677E-6
0.0045                    -0.0105                  7.618048632323414E-6
0.0045                    -0.0095                  8.059441878728918E-6
0.0045                    -0.0085                  8.539032283864422E-6
0.0045                    -0.0075                  9.3485173362337E-6
0.0045                    -0.0065                  1.1307533175396712E-5
0.0045                    -0.0055                  1.6261439692670737E-5
0.0045                    -0.0045                  2.7242611823465217E-5
0.0045                    -0.0035                  4.722566271538603E-5
0.0045                    -0.0025                  7.561927602829784E-5
0.0045                    -0.0015                  9.543476599393558E-5
0.0045                    -5.0E-4                  1.354558258106237E-4
0.0045                    5.0E-4                   3.3212568905382085E-4
0.0045                    0.0015                   8.349481198063184E-4
0.0045                    0.0025                   0.0014409341959509033
0.0045                    0.0035                   9.851634120439327E-4
0.0045                    0.0045                   0.003051074402523882
0.0045                    0.0055                   0.011504050706403977
0.0045                    0.0065                   0.020607176245926995
0.0045                    0.0075                   0.024975227501366073
0.0045                    0.0085                   0.021719561032911852
0.0045                    0.0095                   0.012610203957031607
0.0045                    0.0105                   0.004818656376039679
0.0045                    0.0115                   0.0016554455430645336
0.0045                    0.0125                   5.852134557631354E-4
0.0045                    0.0135                   1.9093343300643334E-4
0.0045                    0.0145                   5.986151202183849E-5
0.0045                    0.0155                   2.4820513680934983E-5
0.0045                    0.0165                   1.2766185011331744E-5
0.0045                    0.0175                   8.467044990659703E-6
0.0045                    0.0185                   6.95289620611637E-6
0.0045                    0.0195                   6.495503757846094E-6
0.0045                    0.0205                   6.420920451485786E-6
0.0045                    0.0215                   6.5034647812075854E-6
0.0045                    0.0225                   6.641903173934883E-6
0.0045                    0.0235                   6.786673935781074E-6
0.0045                    0.0245                   6.9033506769525115E-6
0.0045                    0.0255                   6.967061043809416E-6
0.0045                    0.0265                   6.9624570733987995E-6
0.0045                    0.0275                   6.833766057843358E-6
0.0045                    0.0285                   6.646575789725518E-6
0.0045                    0.0295                   6.2101160222021876E-6
0.0045                    0.0305                   6.970851296702727E-6
0.0045                    0.0315                   4.1033553606676435E-6
0.0055                    -0.0315                  3.519732521341827E-6
0.0055                    -0.0305                  5.986733716975065E-6
0.0055                    -0.0295                  5.433513658427218E-6
0.0055                    -0.0285                  5.863933640629081E-6
0.0055                    -0.0275                  6.066921770746716E-6
0.0055                    -0.0265                  6.163316186931541E-6
0.0055                    -0.0255                  6.118710531174614E-6
0.0055                    -0.0245                  5.995563906193434E-6
0.0055                    -0.0235                  5.834705141614531E-6
0.0055                    -0.0225                  5.667519960198016E-6
0.0055                    -0.0215                  5.5140771217072325E-6
0.0055                    -0.0205                  5.3896807186049755E-6
0.0055                    -0.0195                  5.307819248979259E-6
0.0055                    -0.0185                  5.281742342864735E-6
0.0055                    -0.0175                  5.324540878636162E-6
0.0055                    -0.0165                  5.448640565066809E-6
0.0055                    -0.0155                  5.665436886700847E-6
0.0055                    -0.0145                  5.985344822588792E-6
0.0055                    -0.0135                  6.417478922227718E-6
0.0055                    -0.0125                  6.967220387150584E-6
0.0055                    -0.0115                  7.630477389579304E-6
0.0055                    -0.0105                  8.389941322153448E-6
0.0055                    -0.0095                  9.234881910308494E-6
0.0055                    -0.0085                  1.0256062770113053E-5
0.0055                    -0.0075                  1.1910709969592845E-5
0.0055                    -0.0065                  1.559238391859154E-5
0.0055                    -0.0055                  2.4629797120870583E-5
0.0055                    -0.0045                  4.6615492640215555E-5
0.0055                    -0.0035                  9.22473537341411E-5
0.0055                    -0.0025                  1.4208169369888708E-4
0.0055                    -0.0015                  1.6290518668349212E-4
0.0055                    -5.0E-4                  2.3797153706256487E-4
0.0055                    5.0E-4                   6.232033618564061E-4
0.0055                    0.0015                   0.0012198461013205083
0.0055                    0.0025                   0.0011988342476672211
0.0055                    0.0035                   0.0013596151951354558
0.0055                    0.0045                   0.0077260974926333095
0.0055                    0.0055                   0.01636032429978607
0.0055                    0.0065                   0.022657351778685164
0.0055                    0.0075                   0.023266904390442846
0.0055                    0.0085                   0.017285518700286454
0.0055                    0.0095                   0.008400376156932832
0.0055                    0.0105                   0.002795382846692499
0.0055                    0.0115                   9.727863180299926E-4
0.0055                    0.0125                   3.5775601068812994E-4
0.0055                    0.0135                   1.2264197485086653E-4
0.0055                    0.0145                   4.128714640616793E-5
0.0055                    0.0155                   1.8608447429625145E-5
0.0055                    0.0165                   1.0600426523371596E-5
0.0055                    0.0175                   7.728345449312664E-6
0.0055                    0.0185                   6.7752605520223915E-6
0.0055                    0.0195                   6.559097728123628E-6
0.0055                    0.0205                   6.598977208317406E-6
0.0055                    0.0215                   6.70984255545312E-6
0.0055                    0.0225                   6.822408940650372E-6
0.0055                    0.0235                   6.911875434779513E-6
0.0055                    0.0245                   6.96487768533151E-6
0.0055                    0.0255                   6.96021089026062E-6
0.0055                    0.0265                   6.875845460699253E-6
0.0055                    0.0275                   6.664593952755004E-6
0.0055                    0.0285                   6.4223943280786405E-6
0.0055                    0.0295                   5.997718872758696E-6
0.0055                    0.0305                   7.071363559004042E-6
0.0055                    0.0315                   4.283379470959364E-6
0.0065                    -0.0315                  3.6569439978073502E-6
0.0065                    -0.0305                  6.099968120519784E-6
0.0065                    -0.0295                  5.359946835333034E-6
0.0065                    -0.0285                  5.774336421398563E-6
0.0065                    -0.0275                  6.022848360013864E-6
0.0065                    -0.0265                  6.202732777063788E-6
0.0065                    -0.0255                  6.238384072879756E-6
0.0065                    -0.0245                  6.170278569247166E-6
0.0065                    -0.0235                  6.034544483316942E-6
0.0065                    -0.0225                  5.867337172334896E-6
0.0065                    -0.0215                  5.6950724495174035E-6
0.0065                    -0.0205                  5.538478571542677E-6
0.0065                    -0.0195                  5.415619765349841E-6
0.0065                    -0.0185                  5.344300282413615E-6
0.0065                    -0.0175                  5.342906829520021E-6
0.0065                    -0.0165                  5.4304021889284815E-6
0.0065                    -0.0155                  5.626293268423743E-6
0.0065                    -0.0145                  5.951234682733484E-6
0.0065                    -0.0135                  6.4279666310822705E-6
0.0065                    -0.0125                  7.081541945237634E-6
0.0065                    -0.0115                  7.93786237672345E-6
0.0065                    -0.0105                  9.02310406253022E-6
0.0065                    -0.0095                  1.038695769011477E-5
0.0065                    -0.0085                  1.2225718157216982E-5
0.0065                    -0.0075                  1.5286753973907223E-5
0.0065                    -0.0065                  2.1850955249847355E-5
0.0065                    -0.0055                  3.762229625599438E-5