% Model:              Benchmark260518.mph
% Version:            COMSOL 6.2.0.339
% Date:               May 21 2026, 03:07
% Dimension:          2
% Nodes:              4096
% Expressions:        1
% Description:        速度大小
% Length unit:        m
% x                       y                        spf.U (m/s)
5.0E-4                    -0.0315                  1.5401686630168047E-6
5.0E-4                    -0.0305                  3.092252153217765E-6
5.0E-4                    -0.0295                  3.4780612556901615E-6
5.0E-4                    -0.0285                  3.887912414794514E-6
5.0E-4                    -0.0275                  4.113235203275145E-6
5.0E-4                    -0.0265                  4.326249140760893E-6
5.0E-4                    -0.0255                  4.515919042856603E-6
5.0E-4                    -0.0245                  4.699883941481118E-6
5.0E-4                    -0.0235                  4.875481407568923E-6
5.0E-4                    -0.0225                  5.042745761282368E-6
5.0E-4                    -0.0215                  5.2013546139798895E-6
5.0E-4                    -0.0205                  5.359341937993402E-6
5.0E-4                    -0.0195                  5.530850923359925E-6
5.0E-4                    -0.0185                  5.742951337202875E-6
5.0E-4                    -0.0175                  6.04085527394213E-6
5.0E-4                    -0.0165                  6.5277179526025726E-6
5.0E-4                    -0.0155                  7.4948547873399774E-6
5.0E-4                    -0.0145                  9.504216599000096E-6
5.0E-4                    -0.0135                  1.583595474787963E-5
5.0E-4                    -0.0125                  3.648770416078617E-5
5.0E-4                    -0.0115                  1.0290495573767063E-4
5.0E-4                    -0.0105                  2.0534400383067077E-4
5.0E-4                    -0.0095                  2.8849747847129885E-4
5.0E-4                    -0.0085                  3.6753506781031796E-4
5.0E-4                    -0.0075                  5.57004472720305E-4
5.0E-4                    -0.0065                  9.79689513130504E-4
5.0E-4                    -0.0055                  0.0016423145141448302
5.0E-4                    -0.0045                  0.002456141722499023
5.0E-4                    -0.0035                  0.003301427690377741
5.0E-4                    -0.0025                  0.004078822598851822
5.0E-4                    -0.0015                  0.004725105550539722
5.0E-4                    -5.0E-4                  0.0052174689313585895
5.0E-4                    5.0E-4                   0.005554437483684782
5.0E-4                    0.0015                   0.00574588955268193
5.0E-4                    0.0025                   0.005804987831278034
5.0E-4                    0.0035                   0.005732594202441756
5.0E-4                    0.0045                   0.005519835916600385
5.0E-4                    0.0055                   0.005147411040755909
5.0E-4                    0.0065                   0.00459763360268327
5.0E-4                    0.0075                   0.0038713154239297747
5.0E-4                    0.0085                   0.0029977509279259964
5.0E-4                    0.0095                   0.0020454292686695194
5.0E-4                    0.0105                   0.001120759627801034
5.0E-4                    0.0115                   4.556545777810458E-4
5.0E-4                    0.0125                   5.534839797063078E-4
5.0E-4                    0.0135                   6.148447694890585E-4
5.0E-4                    0.0145                   7.134194501790432E-4
5.0E-4                    0.0155                   0.005186187095504197
5.0E-4                    0.0165                   0.018209089208349277
5.0E-4                    0.0175                   0.027016490424095953
5.0E-4                    0.0185                   0.024334288793326518
5.0E-4                    0.0195                   0.01901378031139236
5.0E-4                    0.0205                   0.012304237377762393
5.0E-4                    0.0215                   0.006315769901517915
5.0E-4                    0.0225                   0.0021676481562481037
5.0E-4                    0.0235                   4.7012066305836725E-4
5.0E-4                    0.0245                   1.0013136634978583E-4
5.0E-4                    0.0255                   2.390010162926888E-5
5.0E-4                    0.0265                   1.0360302366469418E-5
5.0E-4                    0.0275                   6.082816200650066E-6
5.0E-4                    0.0285                   4.80240444101224E-6
5.0E-4                    0.0295                   4.584509601808471E-6
5.0E-4                    0.0305                   7.104442630101276E-6
5.0E-4                    0.0315                   4.856167975360173E-6
0.0015                    -0.0315                  3.004590194455943E-6
0.0015                    -0.0305                  5.957164572691311E-6
0.0015                    -0.0295                  6.415479069377457E-6
0.0015                    -0.0285                  6.84186811933887E-6
0.0015                    -0.0275                  6.975536753501516E-6
0.0015                    -0.0265                  7.112883921291249E-6
0.0015                    -0.0255                  7.2523567704141516E-6
0.0015                    -0.0245                  7.415393717334119E-6
0.0015                    -0.0235                  7.593995907046225E-6
0.0015                    -0.0225                  7.779097749006952E-6
0.0015                    -0.0215                  7.963813648881924E-6
0.0015                    -0.0205                  8.158596976993828E-6
0.0015                    -0.0195                  8.393231535108146E-6
0.0015                    -0.0185                  8.723626274030717E-6
0.0015                    -0.0175                  9.24667673686532E-6
0.0015                    -0.0165                  1.0182920310085362E-5
0.0015                    -0.0155                  1.2132679003737827E-5
0.0015                    -0.0145                  1.661039239900926E-5
0.0015                    -0.0135                  2.8959368221096238E-5
0.0015                    -0.0125                  6.503966308626035E-5
0.0015                    -0.0115                  1.7672287642466722E-4
0.0015                    -0.0105                  3.694575874823161E-4
0.0015                    -0.0095                  6.524000285561716E-4
0.0015                    -0.0085                  0.0012208038226861368
0.0015                    -0.0075                  0.0023461896923154765
0.0015                    -0.0065                  0.004044968938224581
0.0015                    -0.0055                  0.006076324438452042
0.0015                    -0.0045                  0.008156048895313133
0.0015                    -0.0035                  0.010041054742935556
0.0015                    -0.0025                  0.01159266131716275
0.0015                    -0.0015                  0.012776849771327706
0.0015                    -5.0E-4                  0.013615259572702392
0.0015                    5.0E-4                   0.01415056748265947
0.0015                    0.0015                   0.014437658686791593
0.0015                    0.0025                   0.01451592197394211
0.0015                    0.0035                   0.014395669709965121
0.0015                    0.0045                   0.014077001559230038
0.0015                    0.0055                   0.013538950243014724
0.0015                    0.0065                   0.012746514269100746
0.0015                    0.0075                   0.01167504456540695
0.0015                    0.0085                   0.010320532611293086
0.0015                    0.0095                   0.008712562728180233
0.0015                    0.0105                   0.006941327797264198
0.0015                    0.0115                   0.005200525331878225
0.0015                    0.0125                   0.003866821328046241
0.0015                    0.0135                   0.0037957132160106066
0.0015                    0.0145                   0.006689268719493705
0.0015                    0.0155                   0.014608469686278071
0.0015                    0.0165                   0.0236960946910439
0.0015                    0.0175                   0.026230770526495147
0.0015                    0.0185                   0.022716187629855555
0.0015                    0.0195                   0.01687380123165395
0.0015                    0.0205                   0.01023102301225259
0.0015                    0.0215                   0.004726255566844041
0.0015                    0.0225                   0.0015297469605877211
0.0015                    0.0235                   4.109223475851535E-4
0.0015                    0.0245                   1.0313488615662179E-4
0.0015                    0.0255                   2.6601457940651787E-5
0.0015                    0.0265                   1.1557518422424514E-5
0.0015                    0.0275                   6.577938349177869E-6
0.0015                    0.0285                   5.0618131899391315E-6
0.0015                    0.0295                   4.714419885506714E-6
0.0015                    0.0305                   5.601248003151304E-6
0.0015                    0.0315                   3.3159155010096567E-6
0.0025                    -0.0315                  3.1581633850112623E-6
0.0025                    -0.0305                  6.073022930446629E-6
0.0025                    -0.0295                  6.239163646073755E-6
0.0025                    -0.0285                  6.415564444460914E-6
0.0025                    -0.0275                  6.245865936291931E-6
0.0025                    -0.0265                  6.04996810308834E-6
0.0025                    -0.0255                  5.881639376429034E-6
0.0025                    -0.0245                  5.780086549108434E-6
0.0025                    -0.0235                  5.746590418907613E-6
0.0025                    -0.0225                  5.766711682462279E-6
0.0025                    -0.0215                  5.823314738459469E-6
0.0025                    -0.0205                  5.91987104466556E-6
0.0025                    -0.0195                  6.097711195916372E-6
0.0025                    -0.0185                  6.439112733142943E-6
0.0025                    -0.0175                  7.083217413231409E-6
0.0025                    -0.0165                  8.332083042122035E-6
0.0025                    -0.0155                  1.0968005867909702E-5
0.0025                    -0.0145                  1.722037312762156E-5
0.0025                    -0.0135                  3.2424771677372474E-5
0.0025                    -0.0125                  6.961449629567336E-5
0.0025                    -0.0115                  1.8719171352214004E-4
0.0025                    -0.0105                  4.928386215609121E-4
0.0025                    -0.0095                  0.0012557772905104924
0.0025                    -0.0085                  0.0029126973737542707
0.0025                    -0.0075                  0.005500084141047808
0.0025                    -0.0065                  0.008447712816389789
0.0025                    -0.0055                  0.011149314983247319
0.0025                    -0.0045                  0.013294825050649967
0.0025                    -0.0035                  0.014861098179610626
0.0025                    -0.0025                  0.015947323925328667
0.0025                    -0.0015                  0.016647393837218253
0.0025                    -5.0E-4                  0.01706711791052347
0.0025                    5.0E-4                   0.017316852464113398
0.0025                    0.0015                   0.017474629845601043
0.0025                    0.0025                   0.01758536291154789
0.0025                    0.0035                   0.017672673709575912
0.0025                    0.0045                   0.017743022592512765
0.0025                    0.0055                   0.01778690798234048
0.0025                    0.0065                   0.017775196027069874
0.0025                    0.0075                   0.01765477714343851
0.0025                    0.0085                   0.01735238329943951
0.0025                    0.0095                   0.01678616150616422
0.0025                    0.0105                   0.015895297390086598
0.0025                    0.0115                   0.01477883181258825
0.0025                    0.0125                   0.013869946343575381
0.0025                    0.0135                   0.013990894140393865
0.0025                    0.0145                   0.016282777163934184
0.0025                    0.0155                   0.020550497956160377
0.0025                    0.0165                   0.023997380906460922
0.0025                    0.0175                   0.023647774222043665
0.0025                    0.0185                   0.019698116974224352
0.0025                    0.0195                   0.01396389769727972
0.0025                    0.0205                   0.007947491365337931
0.0025                    0.0215                   0.0034087124896868028
0.0025                    0.0225                   0.0011229846894627573
0.0025                    0.0235                   3.598697021711214E-4
0.0025                    0.0245                   1.0918757243866923E-4
0.0025                    0.0255                   3.3365810964186486E-5
0.0025                    0.0265                   1.4165633922075557E-5
0.0025                    0.0275                   7.686210219596653E-6
0.0025                    0.0285                   5.502239419485769E-6
0.0025                    0.0295                   4.580217559109074E-6
0.0025                    0.0305                   5.084167694426995E-6
0.0025                    0.0315                   3.023135325541248E-6
0.0035                    -0.0315                  3.4231610252964586E-6
0.0035                    -0.0305                  6.352573264190897E-6
0.0035                    -0.0295                  6.432399690571879E-6
0.0035                    -0.0285                  6.804307815034306E-6
0.0035                    -0.0275                  6.715399293487336E-6
0.0035                    -0.0265                  6.499454953663743E-6
0.0035                    -0.0255                  6.252652765745076E-6
0.0035                    -0.0245                  6.074571785177587E-6
0.0035                    -0.0235                  6.007115487353935E-6
0.0035                    -0.0225                  6.060787653950037E-6
0.0035                    -0.0215                  6.223889377919311E-6
0.0035                    -0.0205                  6.498269632469904E-6
0.0035                    -0.0195                  6.950893183030286E-6
0.0035                    -0.0185                  7.738756681812685E-6
0.0035                    -0.0175                  9.104529166318395E-6
0.0035                    -0.0165                  1.1449212065080123E-5
0.0035                    -0.0155                  1.5848392932555777E-5
0.0035                    -0.0145                  2.530329303225323E-5
0.0035                    -0.0135                  4.962230686919067E-5
0.0035                    -0.0125                  1.225267365671022E-4
0.0035                    -0.0115                  3.4225723793530736E-4
0.0035                    -0.0105                  0.001001141692295799
0.0035                    -0.0095                  0.0027305957276172552
0.0035                    -0.0085                  0.005769322081887081
0.0035                    -0.0075                  0.009308036465951536
0.0035                    -0.0065                  0.012283184295925394
0.0035                    -0.0055                  0.014244284456664131
0.0035                    -0.0045                  0.01529419788076861
0.0035                    -0.0035                  0.01568432639235121
0.0035                    -0.0025                  0.015664588330329073
0.0035                    -0.0015                  0.015472477834454074
0.0035                    -5.0E-4                  0.015278761851467903
0.0035                    5.0E-4                   0.015173180001685495
0.0035                    0.0015                   0.015191054695486969
0.0035                    0.0025                   0.015350340875607445
0.0035                    0.0035                   0.015666987147648387
0.0035                    0.0045                   0.016147088020710406
0.0035                    0.0055                   0.016790098267212266
0.0035                    0.0065                   0.01758282578433036
0.0035                    0.0075                   0.018478512525101194
0.0035                    0.0085                   0.01937680202351854
0.0035                    0.0095                   0.020141160849497925
0.0035                    0.0105                   0.020614621457478586
0.0035                    0.0115                   0.020691050914411202
0.0035                    0.0125                   0.020467439237384644
0.0035                    0.0135                   0.02028116130095926
0.0035                    0.0145                   0.020529520751969847
0.0035                    0.0155                   0.021183404580971427
0.0035                    0.0165                   0.021238399684891957
0.0035                    0.0175                   0.01932635887097666
0.0035                    0.0185                   0.015528983266957211
0.0035                    0.0195                   0.010783355496946527
0.0035                    0.0205                   0.006036126612680055
0.0035                    0.0215                   0.0026113571795001967
0.0035                    0.0225                   9.619321534857202E-4
0.0035                    0.0235                   3.58772553335595E-4
0.0035                    0.0245                   1.2402184253866404E-4
0.0035                    0.0255                   4.079685822291987E-5
0.0035                    0.0265                   1.7319445364631982E-5
0.0035                    0.0275                   9.018828717522466E-6
0.0035                    0.0285                   5.965199947418158E-6
0.0035                    0.0295                   4.657053199876262E-6
0.0035                    0.0305                   5.117263425423507E-6
0.0035                    0.0315                   3.0640549029898386E-6
0.0045                    -0.0315                  3.5961489842867003E-6
0.0045                    -0.0305                  6.481699592143527E-6
0.0045                    -0.0295                  6.410457146549855E-6
0.0045                    -0.0285                  6.920698572338363E-6
0.0045                    -0.0275                  6.98928376621471E-6
0.0045                    -0.0265                  6.854673913993764E-6
0.0045                    -0.0255                  6.609644144089946E-6
0.0045                    -0.0245                  6.413492213752724E-6
0.0045                    -0.0235                  6.385975298202519E-6
0.0045                    -0.0225                  6.611019609207731E-6
0.0045                    -0.0215                  7.130817089444386E-6
0.0045                    -0.0205                  7.984516228908482E-6
0.0045                    -0.0195                  9.312115934131419E-6
0.0045                    -0.0185                  1.1497915975254313E-5
0.0045                    -0.0175                  1.5048427433852153E-5
0.0045                    -0.0165                  2.0452274508177603E-5
0.0045                    -0.0155                  2.8816418537723224E-5
0.0045                    -0.0145                  4.489771720618872E-5
0.0045                    -0.0135                  8.49350059320299E-5
0.0045                    -0.0125                  2.3057151850807087E-4
0.0045                    -0.0115                  6.727531393443828E-4
0.0045                    -0.0105                  0.002021750021517389
0.0045                    -0.0095                  0.005075427364923682
0.0045                    -0.0085                  0.009164119453464216
0.0045                    -0.0075                  0.012517281927923476
0.0045                    -0.0065                  0.014277629230597782
0.0045                    -0.0055                  0.014624716157849597
0.0045                    -0.0045                  0.014013372883020838
0.0045                    -0.0035                  0.012881146535688531
0.0045                    -0.0025                  0.011657170491004109
0.0045                    -0.0015                  0.010639758212451703
0.0045                    -5.0E-4                  0.009926450902095235
0.0045                    5.0E-4                   0.009495756685904817
0.0045                    0.0015                   0.00930867547653077
0.0045                    0.0025                   0.009341345566404825
0.0045                    0.0035                   0.009597477614071124
0.0045                    0.0045                   0.010104962779020876
0.0045                    0.0055                   0.010892986944425347
0.0045                    0.0065                   0.011970757929345828
0.0045                    0.0075                   0.013322564691354484
0.0045                    0.0085                   0.014894786254069706
0.0045                    0.0095                   0.016577420832217405
0.0045                    0.0105                   0.018180741612532848
0.0045                    0.0115                   0.019418801549074365
0.0045                    0.0125                   0.01998559733900782
0.0045                    0.0135                   0.01976805150777303
0.0045                    0.0145                   0.018870308367600275
0.0045                    0.0155                   0.017496967482423076
0.0045                    0.0165                   0.01573009926858382
0.0045                    0.0175                   0.013486743695713116
0.0045                    0.0185                   0.010999357369927614
0.0045                    0.0195                   0.00830626167266978
0.0045                    0.0205                   0.0053386875627260124
0.0045                    0.0215                   0.002774288625560554
0.0045                    0.0225                   0.001212865034805746
0.0045                    0.0235                   4.802677543411592E-4
0.0045                    0.0245                   1.6549861204328357E-4
0.0045                    0.0255                   5.257541564046392E-5
0.0045                    0.0265                   2.1732534892479872E-5
0.0045                    0.0275                   1.0805162062795928E-5
0.0045                    0.0285                   6.677492030764039E-6
0.0045                    0.0295                   4.9801350554067865E-6
0.0045                    0.0305                   5.325069550286353E-6
0.0045                    0.0315                   3.162890363925058E-6
0.0055                    -0.0315                  3.7336002480523904E-6
0.0055                    -0.0305                  6.606674355089791E-6
0.0055                    -0.0295                  6.4201131399804585E-6
0.0055                    -0.0285                  7.034669254287784E-6
0.0055                    -0.0275                  7.271391680949315E-6
0.0055                    -0.0265                  7.2935932180545046E-6
0.0055                    -0.0255                  7.1521881622345976E-6
0.0055                    -0.0245                  7.050040595112785E-6
0.0055                    -0.0235                  7.226835346996897E-6
0.0055                    -0.0225                  7.943395562672678E-6
0.0055                    -0.0215                  9.424163686676713E-6
0.0055                    -0.0205                  1.1868983637032386E-5
0.0055                    -0.0195                  1.5663917495371895E-5
0.0055                    -0.0185                  2.185752581860676E-5
0.0055                    -0.0175                  3.2952120711493114E-5
0.0055                    -0.0165                  5.0193691389974615E-5
0.0055                    -0.0155                  7.04312847240492E-5
0.0055                    -0.0145                  1.0016786432826658E-4
0.0055                    -0.0135                  1.8949040708773012E-4
0.0055                    -0.0125                  4.6820528847811495E-4
0.0055                    -0.0115                  0.0013029874181071665
0.0055                    -0.0105                  0.0037026863856262885
0.0055                    -0.0095                  0.007985998470926393
0.0055                    -0.0085                  0.01222154100237789
0.0055                    -0.0075                  0.014388345177219843
0.0055                    -0.0065                  0.014325574322594483
0.0055                    -0.0055                  0.012724298072848856
0.0055                    -0.0045                  0.010351554520969008
0.0055                    -0.0035                  0.008023945195797784
0.0055                    -0.0025                  0.006248659716662843
0.0055                    -0.0015                  0.005076647927072123
0.0055                    -5.0E-4                  0.004349967216745376
0.0055                    5.0E-4                   0.003914208298641299
0.0055                    0.0015                   0.003668193160623188
0.0055                    0.0025                   0.003560567716039726
0.0055                    0.0035                   0.0035909773441994354
0.0055                    0.0045                   0.003813265627200516
0.0055                    0.0055                   0.00430640431456233
0.0055                    0.0065                   0.0050934972688340035
0.0055                    0.0075                   0.006137147939817939
0.0055                    0.0085                   0.007407470875454205
0.0055                    0.0095                   0.008884798152489217
0.0055                    0.0105                   0.01049278798669282
0.0055                    0.0115                   0.012016454230505085
0.0055                    0.0125                   0.013087044133175598
0.0055                    0.0135                   0.013295507745383774
0.0055                    0.0145                   0.012396446238492455
0.0055                    0.0155                   0.010539959556537772
0.0055                    0.0165                   0.008561672538307865
0.0055                    0.0175                   0.00765160363252339
0.0055                    0.0185                   0.007931482094578932
0.0055                    0.0195                   0.007964756505281606
0.0055                    0.0205                   0.0066527948007194405
0.0055                    0.0215                   0.004317270885932263
0.0055                    0.0225                   0.0021151961025891682
0.0055                    0.0235                   7.990523202626694E-4
0.0055                    0.0245                   2.5063891755288623E-4
0.0055                    0.0255                   7.516904777591922E-5
0.0055                    0.0265                   2.988262824201651E-5
0.0055                    0.0275                   1.3649869018712403E-5
0.0055                    0.0285                   7.825797476168833E-6
0.0055                    0.0295                   5.495365388317134E-6
0.0055                    0.0305                   5.616449675196261E-6
0.0055                    0.0315                   3.29702083493577E-6
0.0065                    -0.0315                  3.833393148656352E-6
0.0065                    -0.0305                  6.6979993148412595E-6
0.0065                    -0.0295                  6.423585639765171E-6
0.0065                    -0.0285                  7.128721645433237E-6
0.0065                    -0.0275                  7.534092405570233E-6
0.0065                    -0.0265                  7.769256824733636E-6
0.0065                    -0.0255                  7.860448277989776E-6
0.0065                    -0.0245                  8.0719410534995E-6
0.0065                    -0.0235                  8.833902233145484E-6
0.0065                    -0.0225                  1.0821877760645859E-5
0.0065                    -0.0215                  1.4908204293708425E-5
0.0065                    -0.0205                  2.185828528654906E-5
0.0065                    -0.0195                  3.277147361734652E-5
0.0065                    -0.0185                  5.143319301069303E-5
0.0065                    -0.0175                  8.735248698705675E-5
0.0065                    -0.0165                  1.6219003002119713E-4
0.0065                    -0.0155                  2.4963370987373437E-4
0.0065                    -0.0145                  3.319741025699577E-4
0.0065                    -0.0135                  5.224819440261269E-4
0.0065                    -0.0125                  0.0010101212363127937
0.0065                    -0.0115                  0.0024707618942277987
0.0065                    -0.0105                  0.0060101976229519505
0.0065                    -0.0095                  0.010868259888231866
0.0065                    -0.0085                  0.014299124819572625
0.0065                    -0.0075                  0.014778929245848595
0.0065                    -0.0065                  0.012753661692798832
0.0065                    -0.0055                  0.009395035156439167