% Model:              Benchmark260518.mph
% Version:            COMSOL 6.2.0.339
% Date:               May 21 2026, 08:53
% Dimension:          2
% Nodes:              4096
% Expressions:        1
% Description:        速度大小
% Length unit:        m
% x                       y                        spf.U (m/s)
5.0E-4                    -0.0315                  1.7558493068624376E-6
5.0E-4                    -0.0305                  3.4751228174972728E-6
5.0E-4                    -0.0295                  3.837607842497042E-6
5.0E-4                    -0.0285                  4.257561899763022E-6
5.0E-4                    -0.0275                  4.484705176979397E-6
5.0E-4                    -0.0265                  4.688530572959709E-6
5.0E-4                    -0.0255                  4.831533517105126E-6
5.0E-4                    -0.0245                  4.969808458450463E-6
5.0E-4                    -0.0235                  5.103939020185243E-6
5.0E-4                    -0.0225                  5.238615662575333E-6
5.0E-4                    -0.0215                  5.3716649880489875E-6
5.0E-4                    -0.0205                  5.488158551853933E-6
5.0E-4                    -0.0195                  5.589700186636213E-6
5.0E-4                    -0.0185                  5.697075860405928E-6
5.0E-4                    -0.0175                  5.811585791277505E-6
5.0E-4                    -0.0165                  5.919065870344011E-6
5.0E-4                    -0.0155                  6.021396962230186E-6
5.0E-4                    -0.0145                  6.121002176428222E-6
5.0E-4                    -0.0135                  6.243647814509445E-6
5.0E-4                    -0.0125                  6.411574408593902E-6
5.0E-4                    -0.0115                  6.634556547937951E-6
5.0E-4                    -0.0105                  6.981410821077081E-6
5.0E-4                    -0.0095                  7.478547141831667E-6
5.0E-4                    -0.0085                  8.254714328204319E-6
5.0E-4                    -0.0075                  9.640371618298685E-6
5.0E-4                    -0.0065                  1.2698440483380303E-5
5.0E-4                    -0.0055                  2.2748659152037555E-5
5.0E-4                    -0.0045                  5.631890089953759E-5
5.0E-4                    -0.0035                  1.7560796524026542E-4
5.0E-4                    -0.0025                  4.123300751157088E-4
5.0E-4                    -0.0015                  8.729072427917362E-4
5.0E-4                    -5.0E-4                  0.002719937676806723
5.0E-4                    5.0E-4                   0.00853156071875234
5.0E-4                    0.0015                   0.012205437164931408
5.0E-4                    0.0025                   0.010675954319959331
5.0E-4                    0.0035                   0.008466214821609452
5.0E-4                    0.0045                   0.006011524569670018
5.0E-4                    0.0055                   0.003964877030618228
5.0E-4                    0.0065                   0.0029413059483455266
5.0E-4                    0.0075                   0.0034851409449907496
5.0E-4                    0.0085                   0.005244835576448651
5.0E-4                    0.0095                   0.007667602587913382
5.0E-4                    0.0105                   0.010232150509488596
5.0E-4                    0.0115                   0.012232931270234523
5.0E-4                    0.0125                   0.012636337378477872
5.0E-4                    0.0135                   0.00987716367525645
5.0E-4                    0.0145                   0.004941222158457793
5.0E-4                    0.0155                   0.0013797859416412334
5.0E-4                    0.0165                   1.9183593601910446E-4
5.0E-4                    0.0175                   6.122743769451946E-5
5.0E-4                    0.0185                   2.3965697750883823E-5
5.0E-4                    0.0195                   1.1252208742458985E-5
5.0E-4                    0.0205                   6.760176094004609E-6
5.0E-4                    0.0215                   5.031223862111594E-6
5.0E-4                    0.0225                   4.090958736890209E-6
5.0E-4                    0.0235                   3.5659889084388425E-6
5.0E-4                    0.0245                   3.321023091729541E-6
5.0E-4                    0.0255                   3.181482151751634E-6
5.0E-4                    0.0265                   3.09435294339585E-6
5.0E-4                    0.0275                   3.0026346192366946E-6
5.0E-4                    0.0285                   2.9082262964483405E-6
5.0E-4                    0.0295                   2.699423026846686E-6
5.0E-4                    0.0305                   2.5313923656878625E-6
5.0E-4                    0.0315                   1.292098178254629E-6
0.0015                    -0.0315                  3.413533496728649E-6
0.0015                    -0.0305                  6.674580217327556E-6
0.0015                    -0.0295                  7.060219459190516E-6
0.0015                    -0.0285                  7.504679567299497E-6
0.0015                    -0.0275                  7.655753039102265E-6
0.0015                    -0.0265                  7.800897977628233E-6
0.0015                    -0.0255                  7.901799378083129E-6
0.0015                    -0.0245                  8.014551331934191E-6
0.0015                    -0.0235                  8.139615219614105E-6
0.0015                    -0.0225                  8.278701233949899E-6
0.0015                    -0.0215                  8.42646567462141E-6
0.0015                    -0.0205                  8.566486019362702E-6
0.0015                    -0.0195                  8.699575204575511E-6
0.0015                    -0.0185                  8.844795147414658E-6
0.0015                    -0.0175                  9.000922755773137E-6
0.0015                    -0.0165                  9.150364708823858E-6
0.0015                    -0.0155                  9.29073333321925E-6
0.0015                    -0.0145                  9.42570635733207E-6
0.0015                    -0.0135                  9.58790864009776E-6
0.0015                    -0.0125                  9.817915187189535E-6
0.0015                    -0.0115                  1.0162499766115275E-5
0.0015                    -0.0105                  1.0736702558583072E-5
0.0015                    -0.0095                  1.1643233335623906E-5
0.0015                    -0.0085                  1.316066070534871E-5
0.0015                    -0.0075                  1.6078141874735526E-5
0.0015                    -0.0065                  2.2936593647578976E-5
0.0015                    -0.0055                  4.348157595610448E-5
0.0015                    -0.0045                  1.0862805231910898E-4
0.0015                    -0.0035                  3.452894593916438E-4
0.0015                    -0.0025                  8.835047804718612E-4
0.0015                    -0.0015                  0.0024571232957899757
0.0015                    -5.0E-4                  0.006789699108796585
0.0015                    5.0E-4                   0.011810355523634283
0.0015                    0.0015                   0.012732685110799426
0.0015                    0.0025                   0.010318005419429238
0.0015                    0.0035                   0.007288441306094556
0.0015                    0.0045                   0.00446370953546724
0.0015                    0.0055                   0.002456637851299987
0.0015                    0.0065                   0.0015902801534772187
0.0015                    0.0075                   0.0021963046261166013
0.0015                    0.0085                   0.004020634788905891
0.0015                    0.0095                   0.006972288871020464
0.0015                    0.0105                   0.010630146119869798
0.0015                    0.0115                   0.01381438644162848
0.0015                    0.0125                   0.014729669827277877
0.0015                    0.0135                   0.01125414881993652
0.0015                    0.0145                   0.005298747889751583
0.0015                    0.0155                   0.00165233175117469
0.0015                    0.0165                   5.53146254071014E-4
0.0015                    0.0175                   1.7338767293821277E-4
0.0015                    0.0185                   6.367148858994976E-5
0.0015                    0.0195                   2.7367362304158765E-5
0.0015                    0.0205                   1.4479545430073034E-5
0.0015                    0.0215                   9.50207097183455E-6
0.0015                    0.0225                   7.235651275300256E-6
0.0015                    0.0235                   6.1174874817183865E-6
0.0015                    0.0245                   5.592955608405918E-6
0.0015                    0.0255                   5.32947692045872E-6
0.0015                    0.0265                   5.201965785389762E-6
0.0015                    0.0275                   5.121732797291336E-6
0.0015                    0.0285                   5.083766281648692E-6
0.0015                    0.0295                   4.892032720968907E-6
0.0015                    0.0305                   4.809245021834258E-6
0.0015                    0.0315                   2.5103955641614548E-6
0.0025                    -0.0315                  3.618232928250794E-6
0.0025                    -0.0305                  6.814964513006497E-6
0.0025                    -0.0295                  6.823430617388163E-6
0.0025                    -0.0285                  7.041689094605648E-6
0.0025                    -0.0275                  6.935484241211041E-6
0.0025                    -0.0265                  6.8139903061257815E-6
0.0025                    -0.0255                  6.695600315222136E-6
0.0025                    -0.0245                  6.606416962459366E-6
0.0025                    -0.0235                  6.550251127114503E-6
0.0025                    -0.0225                  6.526118003153669E-6
0.0025                    -0.0215                  6.530115228980628E-6
0.0025                    -0.0205                  6.559374274398231E-6
0.0025                    -0.0195                  6.611675961687232E-6
0.0025                    -0.0185                  6.683772676701247E-6
0.0025                    -0.0175                  6.769720735233006E-6
0.0025                    -0.0165                  6.860381136745173E-6
0.0025                    -0.0155                  6.946037432245471E-6
0.0025                    -0.0145                  7.025237771359893E-6
0.0025                    -0.0135                  7.111131524931563E-6
0.0025                    -0.0125                  7.245249722812726E-6
0.0025                    -0.0115                  7.513454094030847E-6
0.0025                    -0.0105                  8.05137968530424E-6
0.0025                    -0.0095                  9.084354739931203E-6
0.0025                    -0.0085                  1.1060528403434236E-5
0.0025                    -0.0075                  1.5266340841607755E-5
0.0025                    -0.0065                  2.551018099047394E-5
0.0025                    -0.0055                  5.307128528949787E-5
0.0025                    -0.0045                  1.3545796887420327E-4
0.0025                    -0.0035                  4.6143207168607565E-4
0.0025                    -0.0025                  0.0014369823032496511
0.0025                    -0.0015                  0.004403800552690573
0.0025                    -5.0E-4                  0.009428203343974442
0.0025                    5.0E-4                   0.01291006997605113
0.0025                    0.0015                   0.012098717203790629
0.0025                    0.0025                   0.008667974496622825
0.0025                    0.0035                   0.005154096926223764
0.0025                    0.0045                   0.002595363879462539
0.0025                    0.0055                   0.0011952366970548127
0.0025                    0.0065                   7.445212473275352E-4
0.0025                    0.0075                   0.0011243671914629885
0.0025                    0.0085                   0.002386080153958493
0.0025                    0.0095                   0.0051621535433921655
0.0025                    0.0105                   0.009688874352773958
0.0025                    0.0115                   0.01452195030006875
0.0025                    0.0125                   0.016762234660912975
0.0025                    0.0135                   0.013681549187263784
0.0025                    0.0145                   0.007245807617596143
0.0025                    0.0155                   0.0027077107559028285
0.0025                    0.0165                   0.001007703439409171
0.0025                    0.0175                   3.659646522011852E-4
0.0025                    0.0185                   1.270472839815957E-4
0.0025                    0.0195                   4.964949740855508E-5
0.0025                    0.0205                   2.2210852742264773E-5
0.0025                    0.0215                   1.1884306302648239E-5
0.0025                    0.0225                   7.729398334577766E-6
0.0025                    0.0235                   5.959865273616982E-6
0.0025                    0.0245                   5.155140152917404E-6
0.0025                    0.0255                   4.792835098566332E-6
0.0025                    0.0265                   4.659624720346724E-6
0.0025                    0.0275                   4.644776513465394E-6
0.0025                    0.0285                   4.707509933391205E-6
0.0025                    0.0295                   4.6232258042572245E-6
0.0025                    0.0305                   4.8644788919303034E-6
0.0025                    0.0315                   2.6734482588900474E-6
0.0035                    -0.0315                  3.930580390533952E-6
0.0035                    -0.0305                  7.105784399808594E-6
0.0035                    -0.0295                  6.93909058332684E-6
0.0035                    -0.0285                  7.3615337345877015E-6
0.0035                    -0.0275                  7.372385545806156E-6
0.0035                    -0.0265                  7.2903876077888114E-6
0.0035                    -0.0255                  7.152419088416085E-6
0.0035                    -0.0245                  7.020978058477123E-6
0.0035                    -0.0235                  6.912383192816886E-6
0.0035                    -0.0225                  6.835787204545129E-6
0.0035                    -0.0215                  6.793569569485963E-6
0.0035                    -0.0205                  6.7862327380570395E-6
0.0035                    -0.0195                  6.812905368870967E-6
0.0035                    -0.0185                  6.870774682211734E-6
0.0035                    -0.0175                  6.953368317570706E-6
0.0035                    -0.0165                  7.049793581713773E-6
0.0035                    -0.0155                  7.146685187158173E-6
0.0035                    -0.0145                  7.233418972142951E-6
0.0035                    -0.0135                  7.314324293314469E-6
0.0035                    -0.0125                  7.430131430495156E-6
0.0035                    -0.0115                  7.691083877736596E-6
0.0035                    -0.0105                  8.32624446863298E-6
0.0035                    -0.0095                  9.774937960491286E-6
0.0035                    -0.0085                  1.2912379433080534E-5
0.0035                    -0.0075                  1.9840727339619665E-5
0.0035                    -0.0065                  3.650024171673953E-5
0.0035                    -0.0055                  8.176028980902407E-5
0.0035                    -0.0045                  2.1276791663860553E-4
0.0035                    -0.0035                  7.259328269204181E-4
0.0035                    -0.0025                  0.002572368723118188
0.0035                    -0.0015                  0.006937550861501214
0.0035                    -5.0E-4                  0.01179452341067571
0.0035                    5.0E-4                   0.013071695653912297
0.0035                    0.0015                   0.01019898355627411
0.0035                    0.0025                   0.006001107755469532
0.0035                    0.0035                   0.0028602785871614748
0.0035                    0.0045                   0.0011830976245942012
0.0035                    0.0055                   4.911472038941075E-4
0.0035                    0.0065                   3.3570695917749553E-4
0.0035                    0.0075                   4.759690990612247E-4
0.0035                    0.0085                   0.0010698457730781345
0.0035                    0.0095                   0.002904192206764871
0.0035                    0.0105                   0.007131095706139679
0.0035                    0.0115                   0.013247140768671414
0.0035                    0.0125                   0.01769282368624729
0.0035                    0.0135                   0.016560455351085395
0.0035                    0.0145                   0.010503319571774614
0.0035                    0.0155                   0.0046315778649199035
0.0035                    0.0165                   0.0017468047311377669
0.0035                    0.0175                   6.87523745213825E-4
0.0035                    0.0185                   2.5282959300983036E-4
0.0035                    0.0195                   9.249976685212178E-5
0.0035                    0.0205                   3.736863206960492E-5
0.0035                    0.0215                   1.7348239413589994E-5
0.0035                    0.0225                   9.924109033146986E-6
0.0035                    0.0235                   6.961404206437406E-6
0.0035                    0.0245                   5.695703273548114E-6
0.0035                    0.0255                   5.152969241335339E-6
0.0035                    0.0265                   4.946866909594042E-6
0.0035                    0.0275                   4.874230541203174E-6
0.0035                    0.0285                   4.853536000734578E-6
0.0035                    0.0295                   4.641075620731502E-6
0.0035                    0.0305                   5.053241771823564E-6
0.0035                    0.0315                   2.9003990897140375E-6
0.0045                    -0.0315                  4.127214553898448E-6
0.0045                    -0.0305                  7.20891349650427E-6
0.0045                    -0.0295                  6.78554146792453E-6
0.0045                    -0.0285                  7.318224588951432E-6
0.0045                    -0.0275                  7.4967976242692004E-6
0.0045                    -0.0265                  7.54096044746323E-6
0.0045                    -0.0255                  7.462150590927995E-6
0.0045                    -0.0245                  7.3428834987610325E-6
0.0045                    -0.0235                  7.219815014987987E-6
0.0045                    -0.0225                  7.1160488747979366E-6
0.0045                    -0.0215                  7.043324375609415E-6
0.0045                    -0.0205                  7.008587329905368E-6
0.0045                    -0.0195                  7.015356992643987E-6
0.0045                    -0.0185                  7.063759843942782E-6
0.0045                    -0.0175                  7.149571926883866E-6
0.0045                    -0.0165                  7.263222147402412E-6
0.0045                    -0.0155                  7.390053840267156E-6
0.0045                    -0.0145                  7.5146979629054395E-6
0.0045                    -0.0135                  7.63426957028645E-6
0.0045                    -0.0125                  7.78946862973546E-6
0.0045                    -0.0115                  8.127000981311539E-6
0.0045                    -0.0105                  9.014138009219277E-6
0.0045                    -0.0095                  1.1256734985354413E-5
0.0045                    -0.0085                  1.6627038335131834E-5
0.0045                    -0.0075                  2.890019269850561E-5
0.0045                    -0.0065                  5.7410734604754035E-5
0.0045                    -0.0055                  1.364915705559566E-4
0.0045                    -0.0045                  4.1340038391334395E-4
0.0045                    -0.0035                  0.001341262518514856
0.0045                    -0.0025                  0.004421194002193156
0.0045                    -0.0015                  0.009819988558735223
0.0045                    -5.0E-4                  0.013425279654902412
0.0045                    5.0E-4                   0.011981969441721722
0.0045                    0.0015                   0.0074405145573429145
0.0045                    0.0025                   0.003451916440075338
0.0045                    0.0035                   0.0013613209199300814
0.0045                    0.0045                   5.108403870726096E-4
0.0045                    0.0055                   2.1210017470108656E-4
0.0045                    0.0065                   1.4760609640812977E-4
0.0045                    0.0075                   1.9757434946636687E-4
0.0045                    0.0085                   4.478698721709146E-4
0.0045                    0.0095                   0.0013681482435978969
0.0045                    0.0105                   0.004226403406112864
0.0045                    0.0115                   0.010083422576315589
0.0045                    0.0125                   0.016491375495822802
0.0045                    0.0135                   0.018460969854174288
0.0045                    0.0145                   0.01432541884042748
0.0045                    0.0155                   0.007746439322415405
0.0045                    0.0165                   0.003159580915680888
0.0045                    0.0175                   0.0012114616899013425
0.0045                    0.0185                   4.6819068188442544E-4
0.0045                    0.0195                   1.6757791373986006E-4
0.0045                    0.0205                   5.9697833052718565E-5
0.0045                    0.0215                   2.5302656863381615E-5
0.0045                    0.0225                   1.3160010841620012E-5
0.0045                    0.0235                   8.299353033320183E-6
0.0045                    0.0245                   6.270166379452656E-6
0.0045                    0.0255                   5.421272173633697E-6
0.0045                    0.0265                   5.071811013602946E-6
0.0045                    0.0275                   4.888768334526862E-6
0.0045                    0.0285                   4.760641118661655E-6
0.0045                    0.0295                   4.485130532072668E-6
0.0045                    0.0305                   5.080965140498834E-6
0.0045                    0.0315                   3.0105679966102715E-6
0.0055                    -0.0315                  4.320513168718421E-6
0.0055                    -0.0305                  7.339398359162184E-6
0.0055                    -0.0295                  6.643744832134585E-6
0.0055                    -0.0285                  7.205185803671427E-6
0.0055                    -0.0275                  7.504880446737943E-6
0.0055                    -0.0265                  7.695703612126174E-6
0.0055                    -0.0255                  7.726609289008112E-6
0.0055                    -0.0245                  7.670413059844993E-6
0.0055                    -0.0235                  7.573511233296841E-6
0.0055                    -0.0225                  7.4721149337976E-6
0.0055                    -0.0215                  7.3884488192652615E-6
0.0055                    -0.0205                  7.337572804243052E-6
0.0055                    -0.0195                  7.3295989220081825E-6
0.0055                    -0.0185                  7.370442738772449E-6
0.0055                    -0.0175                  7.461023226557295E-6
0.0055                    -0.0165                  7.5962167293891E-6
0.0055                    -0.0155                  7.764925938949726E-6
0.0055                    -0.0145                  7.954149633446442E-6
0.0055                    -0.0135                  8.16413204250161E-6
0.0055                    -0.0125                  8.451059718681007E-6
0.0055                    -0.0115                  9.030553479561743E-6
0.0055                    -0.0105                  1.0512175962740857E-5
0.0055                    -0.0095                  1.4389274756044865E-5
0.0055                    -0.0085                  2.4193616529980928E-5
0.0055                    -0.0075                  4.868759366298847E-5
0.0055                    -0.0065                  1.0770205325812906E-4
0.0055                    -0.0055                  2.5016445361950783E-4
0.0055                    -0.0045                  7.831773375125318E-4
0.0055                    -0.0035                  0.002598806175622895
0.0055                    -0.0025                  0.007132279265949711
0.0055                    -0.0015                  0.012535479527366888
0.0055                    -5.0E-4                  0.013690563107040083
0.0055                    5.0E-4                   0.009668536930401704
0.0055                    0.0015                   0.004673195696295107
0.0055                    0.0025                   0.0017707788374990811
0.0055                    0.0035                   6.32272078231118E-4
0.0055                    0.0045                   2.2850295743112508E-4
0.0055                    0.0055                   1.0560491782596173E-4
0.0055                    0.0065                   7.97726994544308E-5
0.0055                    0.0075                   1.0512257631477372E-4
0.0055                    0.0085                   2.2072603164015184E-4
0.0055                    0.0095                   7.080212743784617E-4
0.0055                    0.0105                   0.002272969968316404
0.0055                    0.0115                   0.006467530284336529
0.0055                    0.0125                   0.013229098329420689
0.0055                    0.0135                   0.01822894086497995
0.0055                    0.0145                   0.017395275200073033
0.0055                    0.0155                   0.011748757364039663
0.0055                    0.0165                   0.00570380014860026
0.0055                    0.0175                   0.0022112168452447776
0.0055                    0.0185                   8.192295483556143E-4
0.0055                    0.0195                   2.75516335969874E-4
0.0055                    0.0205                   8.973026857153063E-5
0.0055                    0.0215                   3.78496577926561E-5
0.0055                    0.0225                   1.8149854900054423E-5
0.0055                    0.0235                   1.0276864495588664E-5
0.0055                    0.0245                   7.00801782462521E-6
0.0055                    0.0255                   5.684470219590178E-6
0.0055                    0.0265                   5.126160824973334E-6
0.0055                    0.0275                   4.820215304450786E-6
0.0055                    0.0285                   4.623252689404158E-6
0.0055                    0.0295                   4.342680375070804E-6
0.0055                    0.0305                   5.132780352345889E-6
0.0055                    0.0315                   3.121230738696536E-6
0.0065                    -0.0315                  4.480223986486023E-6
0.0065                    -0.0305                  7.453248259880921E-6
0.0065                    -0.0295                  6.507797666963862E-6
0.0065                    -0.0285                  7.039260349749683E-6
0.0065                    -0.0275                  7.390826083271408E-6
0.0065                    -0.0265                  7.688893622247189E-6
0.0065                    -0.0255                  7.830340874242518E-6
0.0065                    -0.0245                  7.859440043011656E-6
0.0065                    -0.0235                  7.815022551191804E-6
0.0065                    -0.0225                  7.738066117196105E-6
0.0065                    -0.0215                  7.658567196461243E-6
0.0065                    -0.0205                  7.599336354270967E-6
0.0065                    -0.0195                  7.577864026796498E-6
0.0065                    -0.0185                  7.607404817407318E-6
0.0065                    -0.0175                  7.696441493291545E-6
0.0065                    -0.0165                  7.847818600393267E-6
0.0065                    -0.0155                  8.059344031945293E-6
0.0065                    -0.0145                  8.329763877623007E-6
0.0065                    -0.0135                  8.6794493553491E-6
0.0065                    -0.0125                  9.212063571756111E-6
0.0065                    -0.0115                  1.0278833224907194E-5
0.0065                    -0.0105                  1.291431096478105E-5
0.0065                    -0.0095                  1.991067857135083E-5
0.0065                    -0.0085                  3.8924560034705366E-5
0.0065                    -0.0075                  9.016213913710457E-5
0.0065                    -0.0065                  2.439010745861976E-4
0.0065                    -0.0055                  5.974029666971233E-4