% Model:              Benchmark260518.mph
% Version:            COMSOL 6.2.0.339
% Date:               May 18 2026, 23:35
% Dimension:          2
% Nodes:              4096
% Expressions:        1
% Description:        速度大小
% Length unit:        m
% x                       y                        spf.U (m/s)
5.0E-4                    -0.0315                  1.4864531550375596E-6
5.0E-4                    -0.0305                  2.987822689342028E-6
5.0E-4                    -0.0295                  3.3672594162599067E-6
5.0E-4                    -0.0285                  3.7780339719956052E-6
5.0E-4                    -0.0275                  4.01684948841044E-6
5.0E-4                    -0.0265                  4.243951871189343E-6
5.0E-4                    -0.0255                  4.4444758480194276E-6
5.0E-4                    -0.0245                  4.63765154542025E-6
5.0E-4                    -0.0235                  4.816872355513103E-6
5.0E-4                    -0.0225                  4.9774942074853635E-6
5.0E-4                    -0.0215                  5.115972142021921E-6
5.0E-4                    -0.0205                  5.236446241240433E-6
5.0E-4                    -0.0195                  5.3506452208866E-6
5.0E-4                    -0.0185                  5.475523128053523E-6
5.0E-4                    -0.0175                  5.640645085446045E-6
5.0E-4                    -0.0165                  5.902846135914347E-6
5.0E-4                    -0.0155                  6.367508354623436E-6
5.0E-4                    -0.0145                  7.327208635874009E-6
5.0E-4                    -0.0135                  9.295482714211156E-6
5.0E-4                    -0.0125                  1.5431148023692735E-5
5.0E-4                    -0.0115                  3.5371242538001887E-5
5.0E-4                    -0.0105                  9.875547756570558E-5
5.0E-4                    -0.0095                  1.9334060121842088E-4
5.0E-4                    -0.0085                  2.5976023335954175E-4
5.0E-4                    -0.0075                  3.0235314199355574E-4
5.0E-4                    -0.0065                  4.291831201082492E-4
5.0E-4                    -0.0055                  7.890348662289059E-4
5.0E-4                    -0.0045                  0.0014182015103152473
5.0E-4                    -0.0035                  0.002250715566838423
5.0E-4                    -0.0025                  0.0031722562211939265
5.0E-4                    -0.0015                  0.004072028043401523
5.0E-4                    -5.0E-4                  0.004867482887070167
5.0E-4                    5.0E-4                   0.0055137274504200905
5.0E-4                    0.0015                   0.006005286684845915
5.0E-4                    0.0025                   0.006354409460826816
5.0E-4                    0.0035                   0.006576618926983832
5.0E-4                    0.0045                   0.006690109329415644
5.0E-4                    0.0055                   0.006702943232971744
5.0E-4                    0.0065                   0.0066029819653664855
5.0E-4                    0.0075                   0.00635390940606809
5.0E-4                    0.0085                   0.005902669039986109
5.0E-4                    0.0095                   0.005199742795991604
5.0E-4                    0.0105                   0.004233370867265623
5.0E-4                    0.0115                   0.003056151994502243
5.0E-4                    0.0125                   0.0018119919375679428
5.0E-4                    0.0135                   0.0010077923392197974
5.0E-4                    0.0145                   0.0016822880183620633
5.0E-4                    0.0155                   0.0026288536351394007
5.0E-4                    0.0165                   0.0030990527929371198
5.0E-4                    0.0175                   0.0030031900878856516
5.0E-4                    0.0185                   0.002556909237934087
5.0E-4                    0.0195                   0.0020447441978946176
5.0E-4                    0.0205                   0.0016863071359549653
5.0E-4                    0.0215                   0.004585825394832236
5.0E-4                    0.0225                   0.02499279188028862
5.0E-4                    0.0235                   0.03895922665540271
5.0E-4                    0.0245                   0.028886298768715683
5.0E-4                    0.0255                   0.010451222128784503
5.0E-4                    0.0265                   2.5324765692757105E-4
5.0E-4                    0.0275                   1.783497055044222E-4
5.0E-4                    0.0285                   2.5438067966933794E-5
5.0E-4                    0.0295                   1.4475941834650512E-5
5.0E-4                    0.0305                   5.153666061398685E-6
5.0E-4                    0.0315                   1.572217859173975E-6
0.0015                    -0.0315                  2.8953443035598815E-6
0.0015                    -0.0305                  5.748326186438789E-6
0.0015                    -0.0295                  6.208348546832669E-6
0.0015                    -0.0285                  6.657048799890846E-6
0.0015                    -0.0275                  6.832374801981241E-6
0.0015                    -0.0265                  7.013988645848134E-6
0.0015                    -0.0255                  7.192485148323153E-6
0.0015                    -0.0245                  7.387727542758928E-6
0.0015                    -0.0235                  7.58502523052114E-6
0.0015                    -0.0225                  7.768551190106734E-6
0.0015                    -0.0215                  7.925688321297837E-6
0.0015                    -0.0205                  8.058228995459346E-6
0.0015                    -0.0195                  8.184360959268365E-6
0.0015                    -0.0185                  8.33683925304541E-6
0.0015                    -0.0175                  8.573101327625577E-6
0.0015                    -0.0165                  9.00416533064331E-6
0.0015                    -0.0155                  9.863766621201296E-6
0.0015                    -0.0145                  1.1750949536364461E-5
0.0015                    -0.0135                  1.6087548569851897E-5
0.0015                    -0.0125                  2.7957198412842796E-5
0.0015                    -0.0115                  6.237539839586367E-5
0.0015                    -0.0105                  1.6726174941745475E-4
0.0015                    -0.0095                  3.408369961959671E-4
0.0015                    -0.0085                  5.701975884334424E-4
0.0015                    -0.0075                  0.0010189221957129055
0.0015                    -0.0065                  0.002000668479764595
0.0015                    -0.0055                  0.0036302659195172797
0.0015                    -0.0045                  0.005713108579333188
0.0015                    -0.0035                  0.007971111436129061
0.0015                    -0.0025                  0.010129995335377279
0.0015                    -0.0015                  0.011994086173832161
0.0015                    -5.0E-4                  0.013484590985428379
0.0015                    5.0E-4                   0.014598153587926346
0.0015                    0.0015                   0.015374877902650949
0.0015                    0.0025                   0.015882980452371645
0.0015                    0.0035                   0.01618888053368804
0.0015                    0.0045                   0.016334042122498792
0.0015                    0.0055                   0.01633205370974017
0.0015                    0.0065                   0.016162574936591123
0.0015                    0.0075                   0.015768358449249363
0.0015                    0.0085                   0.015082818783511587
0.0015                    0.0095                   0.014046135214097978
0.0015                    0.0105                   0.012617085798385292
0.0015                    0.0115                   0.01079019702326769
0.0015                    0.0125                   0.008597268102409518
0.0015                    0.0135                   0.006087586931187817
0.0015                    0.0145                   0.0035131809072839713
0.0015                    0.0155                   0.002040860436183893
0.0015                    0.0165                   0.002952203594908355
0.0015                    0.0175                   0.0039038508984412705
0.0015                    0.0185                   0.003972084936574769
0.0015                    0.0195                   0.0032309514254749267
0.0015                    0.0205                   0.002593634291445785
0.0015                    0.0215                   0.01439017746259613
0.0015                    0.0225                   0.03190263032599314
0.0015                    0.0235                   0.03684427654819374
0.0015                    0.0245                   0.024456079651913612
0.0015                    0.0255                   0.007947647662699099
0.0015                    0.0265                   2.947516652984891E-4
0.0015                    0.0275                   3.5016196071441567E-4
0.0015                    0.0285                   6.644238799100269E-5
0.0015                    0.0295                   3.2194465951434E-5
0.0015                    0.0305                   1.2211108691063356E-5
0.0015                    0.0315                   3.6881643031477623E-6
0.0025                    -0.0315                  3.029253627373331E-6
0.0025                    -0.0305                  5.834838442565541E-6
0.0025                    -0.0295                  6.018081136545912E-6
0.0025                    -0.0285                  6.239043775641718E-6
0.0025                    -0.0275                  6.138024363179832E-6
0.0025                    -0.0265                  6.0217785297177E-6
0.0025                    -0.0255                  5.931286318190906E-6
0.0025                    -0.0245                  5.8945902571031466E-6
0.0025                    -0.0235                  5.902277926063205E-6
0.0025                    -0.0225                  5.931534193981844E-6
0.0025                    -0.0215                  5.95744491695666E-6
0.0025                    -0.0205                  5.96910168672276E-6
0.0025                    -0.0195                  5.980153473621017E-6
0.0025                    -0.0185                  6.032989072933161E-6
0.0025                    -0.0175                  6.2050944035136495E-6
0.0025                    -0.0165                  6.6436033897438556E-6
0.0025                    -0.0155                  7.67391253809535E-6
0.0025                    -0.0145                  1.0075697526959975E-5
0.0025                    -0.0135                  1.5937652922030115E-5
0.0025                    -0.0125                  3.004934599993467E-5
0.0025                    -0.0115                  6.406276789179454E-5
0.0025                    -0.0105                  1.698077027601908E-4
0.0025                    -0.0095                  4.37191376649282E-4
0.0025                    -0.0085                  0.001087971769492176
0.0025                    -0.0075                  0.0025866119508505276
0.0025                    -0.0065                  0.005121332247657187
0.0025                    -0.0055                  0.008217813960070246
0.0025                    -0.0045                  0.011239564874681685
0.0025                    -0.0035                  0.01377844152423198
0.0025                    -0.0025                  0.01570591070451112
0.0025                    -0.0015                  0.017087335237979888
0.0025                    -5.0E-4                  0.018016628353703063
0.0025                    5.0E-4                   0.01858601750706971
0.0025                    0.0015                   0.018908830094758924
0.0025                    0.0025                   0.01908654101966923
0.0025                    0.0035                   0.019183976028734787
0.0025                    0.0045                   0.019237473457136965
0.0025                    0.0055                   0.019269632460378487
0.0025                    0.0065                   0.01929043598547071
0.0025                    0.0075                   0.019292282164770056
0.0025                    0.0085                   0.019249683709796548
0.0025                    0.0095                   0.01912310233529348
0.0025                    0.0105                   0.018856199984631023
0.0025                    0.0115                   0.018354654073278426
0.0025                    0.0125                   0.017446469093863524
0.0025                    0.0135                   0.015900148067748643
0.0025                    0.0145                   0.013532986336338324
0.0025                    0.0155                   0.010393204756960402
0.0025                    0.0165                   0.006904612807726414
0.0025                    0.0175                   0.003964334838936242
0.0025                    0.0185                   0.0027887860524728153
0.0025                    0.0195                   0.004537065179052487
0.0025                    0.0205                   0.011573877654967165
0.0025                    0.0215                   0.024087867751279298
0.0025                    0.0225                   0.034116665628096905
0.0025                    0.0235                   0.0327328375841622
0.0025                    0.0245                   0.018810592059328803
0.0025                    0.0255                   0.00482041030101282
0.0025                    0.0265                   1.6727592988881042E-4
0.0025                    0.0275                   3.358851862960649E-4
0.0025                    0.0285                   9.346735500552818E-5
0.0025                    0.0295                   4.514979495665614E-5
0.0025                    0.0305                   1.7376682913797334E-5
0.0025                    0.0315                   5.069905628569318E-6
0.0035                    -0.0315                  3.258920138403967E-6
0.0035                    -0.0305                  6.053405307275247E-6
0.0035                    -0.0295                  6.143191583111075E-6
0.0035                    -0.0285                  6.5455188456482884E-6
0.0035                    -0.0275                  6.523989343797803E-6
0.0035                    -0.0265                  6.40145487864306E-6
0.0035                    -0.0255                  6.257128819816528E-6
0.0035                    -0.0245                  6.170309280577589E-6
0.0035                    -0.0235                  6.1594004056167E-6
0.0035                    -0.0225                  6.211683481053756E-6
0.0035                    -0.0215                  6.293137647058525E-6
0.0035                    -0.0205                  6.375309773468515E-6
0.0035                    -0.0195                  6.464684204274079E-6
0.0035                    -0.0185                  6.6227052253813985E-6
0.0035                    -0.0175                  6.978560660986962E-6
0.0035                    -0.0165                  7.769654803543852E-6
0.0035                    -0.0155                  9.489314557403466E-6
0.0035                    -0.0145                  1.3269393723914348E-5
0.0035                    -0.0135                  2.1739008211333458E-5
0.0035                    -0.0125                  4.3193278986998845E-5
0.0035                    -0.0115                  1.0778296161977791E-4
0.0035                    -0.0105                  3.0779529793732274E-4
0.0035                    -0.0095                  9.00161249286848E-4
0.0035                    -0.0085                  0.002478170306585212
0.0035                    -0.0075                  0.005444834600884588
0.0035                    -0.0065                  0.00919384680189493
0.0035                    -0.0055                  0.0126193856190319
0.0035                    -0.0045                  0.015082111606779962
0.0035                    -0.0035                  0.016545649788396895
0.0035                    -0.0025                  0.017232678208010572
0.0035                    -0.0015                  0.017381509079573396
0.0035                    -5.0E-4                  0.01722534472356574
0.0035                    5.0E-4                   0.016969583617647416
0.0035                    0.0015                   0.0167432454812534
0.0035                    0.0025                   0.016598872171982748
0.0035                    0.0035                   0.016552320887426263
0.0035                    0.0045                   0.016616374408723752
0.0035                    0.0055                   0.01680752505344052
0.0035                    0.0065                   0.017147482882535533
0.0035                    0.0075                   0.017658047485451498
0.0035                    0.0085                   0.0183389858052149
0.0035                    0.0095                   0.01916856461264257
0.0035                    0.0105                   0.02010360436662239
0.0035                    0.0115                   0.021054836627266843
0.0035                    0.0125                   0.021850506635804536
0.0035                    0.0135                   0.02221097285668342
0.0035                    0.0145                   0.021814650288189828
0.0035                    0.0155                   0.020466081120718353
0.0035                    0.0165                   0.018309353147537694
0.0035                    0.0175                   0.01603201915383645
0.0035                    0.0185                   0.0148859298142794
0.0035                    0.0195                   0.01660901798940103
0.0035                    0.0205                   0.022276497005968326
0.0035                    0.0215                   0.029369151861000996
0.0035                    0.0225                   0.03249455450101694
0.0035                    0.0235                   0.026584917182271774
0.0035                    0.0245                   0.012655021694954026
0.0035                    0.0255                   0.002170886292600009
0.0035                    0.0265                   2.7902201508337685E-4
0.0035                    0.0275                   2.547555987983803E-4
0.0035                    0.0285                   1.1077099060965097E-4
0.0035                    0.0295                   5.9642415549324974E-5
0.0035                    0.0305                   2.2545033288864478E-5
0.0035                    0.0315                   6.4837728249435136E-6
0.0045                    -0.0315                  3.396841931331794E-6
0.0045                    -0.0305                  6.119960833861011E-6
0.0045                    -0.0295                  6.046901727362374E-6
0.0045                    -0.0285                  6.561099338545941E-6
0.0045                    -0.0275                  6.675010033431606E-6
0.0045                    -0.0265                  6.625309738415402E-6
0.0045                    -0.0255                  6.487550290425914E-6
0.0045                    -0.0245                  6.3889423847051206E-6
0.0045                    -0.0235                  6.401111044506617E-6
0.0045                    -0.0225                  6.5499981065776295E-6
0.0045                    -0.0215                  6.812234789960595E-6
0.0045                    -0.0205                  7.142178763386805E-6
0.0045                    -0.0195                  7.5293406211995905E-6
0.0045                    -0.0185                  8.068874306713587E-6
0.0045                    -0.0175                  8.99204967957462E-6
0.0045                    -0.0165                  1.069480290337769E-5
0.0045                    -0.0155                  1.3909043147225764E-5
0.0045                    -0.0145                  2.0220802196957048E-5
0.0045                    -0.0135                  3.387817211783144E-5
0.0045                    -0.0125                  6.836482228835352E-5
0.0045                    -0.0115                  1.9785538843791422E-4
0.0045                    -0.0105                  6.095446416484393E-4
0.0045                    -0.0095                  0.0018671740762599694
0.0045                    -0.0085                  0.004814050129744446
0.0045                    -0.0075                  0.00904094848132511
0.0045                    -0.0065                  0.012884602016690071
0.0045                    -0.0055                  0.015260202712088788
0.0045                    -0.0045                  0.016134606432320186
0.0045                    -0.0035                  0.015891355892492874
0.0045                    -0.0025                  0.01491984010961164
0.0045                    -0.0015                  0.013643694892240548
0.0045                    -5.0E-4                  0.0124327995430418
0.0045                    5.0E-4                   0.011486328288127472
0.0045                    0.0015                   0.010831249140277
0.0045                    0.0025                   0.010430612735755062
0.0045                    0.0035                   0.010248984402958397
0.0045                    0.0045                   0.010265704597011207
0.0045                    0.0055                   0.010483151586799503
0.0045                    0.0065                   0.010931006814236331
0.0045                    0.0075                   0.011644587118934756
0.0045                    0.0085                   0.012655542882308805
0.0045                    0.0095                   0.013997273485068925
0.0045                    0.0105                   0.015692173710265163
0.0045                    0.0115                   0.01771670925309982
0.0045                    0.0125                   0.019961712459269705
0.0045                    0.0135                   0.022171057164173575
0.0045                    0.0145                   0.023946419090738576
0.0045                    0.0155                   0.02492279167952702
0.0045                    0.0165                   0.024966716412371047
0.0045                    0.0175                   0.02436312406855521
0.0045                    0.0185                   0.02390107899085706
0.0045                    0.0195                   0.024530508282133802
0.0045                    0.0205                   0.026540733967574857
0.0045                    0.0215                   0.02844144573443418
0.0045                    0.0225                   0.026975003041016295
0.0045                    0.0235                   0.01881685361974243
0.0045                    0.0245                   0.007059397190239026
0.0045                    0.0255                   4.474664517572609E-4
0.0045                    0.0265                   3.874166477939553E-4
0.0045                    0.0275                   1.9770075663143026E-4
0.0045                    0.0285                   1.1214173108304929E-4
0.0045                    0.0295                   5.884895853984977E-5
0.0045                    0.0305                   2.409601228791379E-5
0.0045                    0.0315                   7.3362161024695895E-6
0.0055                    -0.0315                  3.4928575536988544E-6
0.0055                    -0.0305                  6.174817776499681E-6
0.0055                    -0.0295                  5.977655229595498E-6
0.0055                    -0.0285                  6.5574086684297115E-6
0.0055                    -0.0275                  6.794477308316008E-6
0.0055                    -0.0265                  6.8579448135565776E-6
0.0055                    -0.0255                  6.782096866695655E-6
0.0055                    -0.0245                  6.721980228080842E-6
0.0055                    -0.0235                  6.82212615166823E-6
0.0055                    -0.0225                  7.196537808634087E-6
0.0055                    -0.0215                  7.889109004279697E-6
0.0055                    -0.0205                  8.869853188279677E-6
0.0055                    -0.0195                  1.0116978591268833E-5
0.0055                    -0.0185                  1.1793670701064805E-5
0.0055                    -0.0175                  1.4433406296396882E-5
0.0055                    -0.0165                  1.8768222421586005E-5
0.0055                    -0.0155                  2.581078656156002E-5
0.0055                    -0.0145                  3.836983181329671E-5
0.0055                    -0.0135                  6.43707452161462E-5
0.0055                    -0.0125                  1.397076950025191E-4
0.0055                    -0.0115                  3.922991152037548E-4
0.0055                    -0.0105                  0.0011855113387196474
0.0055                    -0.0095                  0.0035119791131350796
0.0055                    -0.0085                  0.007843745980397757
0.0055                    -0.0075                  0.01246974265180169
0.0055                    -0.0065                  0.015282283174715234
0.0055                    -0.0055                  0.015869151849837525
0.0055                    -0.0045                  0.014763456460463266
0.0055                    -0.0035                  0.012587720775652445
0.0055                    -0.0025                  0.010091662139497866
0.0055                    -0.0015                  0.007940961364821444
0.0055                    -5.0E-4                  0.006397638553120184
0.0055                    5.0E-4                   0.0053922080957902315
0.0055                    0.0015                   0.0047655583399482055
0.0055                    0.0025                   0.004387027529924848
0.0055                    0.0035                   0.004167522445968432
0.0055                    0.0045                   0.004057787665679303
0.0055                    0.0055                   0.004059504827890904
0.0055                    0.0065                   0.004239704381524379
0.0055                    0.0075                   0.004690774117016869
0.0055                    0.0085                   0.005462777740599946
0.0055                    0.0095                   0.006584844664388863
0.0055                    0.0105                   0.008110449025791054
0.0055                    0.0115                   0.010111092273943844
0.0055                    0.0125                   0.012641142700423798
0.0055                    0.0135                   0.015619816676080476
0.0055                    0.0145                   0.018754434850132434
0.0055                    0.0155                   0.02159830095630377
0.0055                    0.0165                   0.02370013986463545
0.0055                    0.0175                   0.024768109388781094
0.0055                    0.0185                   0.02488385166326946
0.0055                    0.0195                   0.02440751145371614
0.0055                    0.0205                   0.023577624037486283
0.0055                    0.0215                   0.022027893945036906
0.0055                    0.0225                   0.01830394375745377
0.0055                    0.0235                   0.010976781452372587
0.0055                    0.0245                   0.0035213506768271576
0.0055                    0.0255                   9.686494052057527E-4
0.0055                    0.0265                   4.92293594459426E-4
0.0055                    0.0275                   2.3934851730472975E-4
0.0055                    0.0285                   1.233536220594309E-4
0.0055                    0.0295                   5.295694335208564E-5
0.0055                    0.0305                   2.327947876694593E-5
0.0055                    0.0315                   7.649843188098606E-6
0.0065                    -0.0315                  3.549006765050834E-6
0.0065                    -0.0305                  6.198201405562724E-6
0.0065                    -0.0295                  5.913643568481544E-6
0.0065                    -0.0285                  6.539798856721093E-6
0.0065                    -0.0275                  6.881631574445659E-6
0.0065                    -0.0265                  7.074474837152458E-6
0.0065                    -0.0255                  7.11629080668383E-6
0.0065                    -0.0245                  7.179378120740116E-6
0.0065                    -0.0235                  7.508166635909626E-6
0.0065                    -0.0225                  8.398690705328202E-6
0.0065                    -0.0215                  1.0106587737679137E-5
0.0065                    -0.0205                  1.2738172039970808E-5
0.0065                    -0.0195                  1.6263894465981355E-5
0.0065                    -0.0185                  2.1029599312839567E-5
0.0065                    -0.0175                  2.8449964679658066E-5
0.0065                    -0.0165                  4.159217400160684E-5
0.0065                    -0.0155                  6.183736502278814E-5
0.0065                    -0.0145                  9.000047143442632E-5
0.0065                    -0.0135                  1.563287739555936E-4
0.0065                    -0.0125                  3.3340142711150354E-4
0.0065                    -0.0115                  7.995137133818824E-4
0.0065                    -0.0105                  0.00224426121908698
0.0065                    -0.0095                  0.005839166649795637
0.0065                    -0.0085                  0.01100233946875608
0.0065                    -0.0075                  0.015014955029502433
0.0065                    -0.0065                  0.01617708718951401
0.0065                    -0.0055                  0.014748876547598141
0.0065                    -0.0045                  0.011665169212087267