% Model:              Benchmark260518.mph
% Version:            COMSOL 6.2.0.339
% Date:               May 20 2026, 20:36
% Dimension:          2
% Nodes:              4096
% Expressions:        1
% Description:        速度大小
% Length unit:        m
% x                       y                        spf.U (m/s)
5.0E-4                    -0.0315                  2.1212347675255926E-6
5.0E-4                    -0.0305                  4.205446418951369E-6
5.0E-4                    -0.0295                  4.688179920570969E-6
5.0E-4                    -0.0285                  5.236681556280599E-6
5.0E-4                    -0.0275                  5.5259956993716195E-6
5.0E-4                    -0.0265                  5.808295568979115E-6
5.0E-4                    -0.0255                  6.051243965754684E-6
5.0E-4                    -0.0245                  6.286187634649445E-6
5.0E-4                    -0.0235                  6.515174934084606E-6
5.0E-4                    -0.0225                  6.772520431128764E-6
5.0E-4                    -0.0215                  7.161772079677591E-6
5.0E-4                    -0.0205                  7.822097941983432E-6
5.0E-4                    -0.0195                  9.110615080378424E-6
5.0E-4                    -0.0185                  1.165328458982944E-5
5.0E-4                    -0.0175                  1.9474081435597452E-5
5.0E-4                    -0.0165                  4.501157611141565E-5
5.0E-4                    -0.0155                  1.2685140257321238E-4
5.0E-4                    -0.0145                  2.4877293545203666E-4
5.0E-4                    -0.0135                  3.192021139996198E-4
5.0E-4                    -0.0125                  3.3275130669623996E-4
5.0E-4                    -0.0115                  5.074161431415356E-4
5.0E-4                    -0.0105                  0.001196290657330186
5.0E-4                    -0.0095                  0.002420009746038015
5.0E-4                    -0.0085                  0.003988751140169094
5.0E-4                    -0.0075                  0.005589159299217303
5.0E-4                    -0.0065                  0.006889557668265946
5.0E-4                    -0.0055                  0.007622839141824277
5.0E-4                    -0.0045                  0.0076380966005200725
5.0E-4                    -0.0035                  0.0069245316740180795
5.0E-4                    -0.0025                  0.005604133205030027
5.0E-4                    -0.0015                  0.0039042492232033792
5.0E-4                    -5.0E-4                  0.0021272308677177634
5.0E-4                    5.0E-4                   0.001189751944131278
5.0E-4                    0.0015                   0.0021769930960930987
5.0E-4                    0.0025                   0.002901245139991065
5.0E-4                    0.0035                   0.002773559106393573
5.0E-4                    0.0045                   0.002044810611474541
5.0E-4                    0.0055                   0.001253617816775533
5.0E-4                    0.0065                   9.047868382655582E-4
5.0E-4                    0.0075                   9.418588695210896E-4
5.0E-4                    0.0085                   0.0010827413277535818
5.0E-4                    0.0095                   0.0012262298908171504
5.0E-4                    0.0105                   0.00156623193413511
5.0E-4                    0.0115                   0.004547730296650681
5.0E-4                    0.0125                   0.02744598748467014
5.0E-4                    0.0135                   0.044744915952015685
5.0E-4                    0.0145                   0.042225429643711024
5.0E-4                    0.0155                   0.03372989819673144
5.0E-4                    0.0165                   0.022522189387822075
5.0E-4                    0.0175                   0.012976087059792564
5.0E-4                    0.0185                   0.005623777412911201
5.0E-4                    0.0195                   0.0014857298592273209
5.0E-4                    0.0205                   4.6703640694421134E-4
5.0E-4                    0.0215                   3.494430002978122E-4
5.0E-4                    0.0225                   1.754777088204941E-4
5.0E-4                    0.0235                   6.147497220485104E-5
5.0E-4                    0.0245                   2.5541682393004433E-5
5.0E-4                    0.0255                   1.4584384674240593E-5
5.0E-4                    0.0265                   1.1281969746078765E-5
5.0E-4                    0.0275                   9.717531981376218E-6
5.0E-4                    0.0285                   8.774851260148632E-6
5.0E-4                    0.0295                   7.757775084632827E-6
5.0E-4                    0.0305                   7.05856600253614E-6
5.0E-4                    0.0315                   3.5910258513718787E-6
0.0015                    -0.0315                  4.120020598395218E-6
0.0015                    -0.0305                  8.051721224331899E-6
0.0015                    -0.0295                  8.535223325727593E-6
0.0015                    -0.0285                  9.056209119679587E-6
0.0015                    -0.0275                  9.203610329329348E-6
0.0015                    -0.0265                  9.377402253043198E-6
0.0015                    -0.0255                  9.555306121969778E-6
0.0015                    -0.0245                  9.770687130317922E-6
0.0015                    -0.0235                  1.0027998200145499E-5
0.0015                    -0.0225                  1.0378962321361484E-5
0.0015                    -0.0215                  1.0981222992943398E-5
0.0015                    -0.0205                  1.213137990812566E-5
0.0015                    -0.0195                  1.4583896610201648E-5
0.0015                    -0.0185                  2.0167775350470983E-5
0.0015                    -0.0175                  3.553462704891612E-5
0.0015                    -0.0165                  8.087272752509409E-5
0.0015                    -0.0155                  2.222538004993958E-4
0.0015                    -0.0145                  4.578240708827993E-4
0.0015                    -0.0135                  7.397916201749212E-4
0.0015                    -0.0125                  0.0013759575162667487
0.0015                    -0.0115                  0.0031011541566787816
0.0015                    -0.0105                  0.006079691983938942
0.0015                    -0.0095                  0.00981199501677838
0.0015                    -0.0085                  0.013662047146163843
0.0015                    -0.0075                  0.01701831460289855
0.0015                    -0.0065                  0.019456758341337123
0.0015                    -0.0055                  0.02074389779957085
0.0015                    -0.0045                  0.020799942840719766
0.0015                    -0.0035                  0.019669364123628214
0.0015                    -0.0025                  0.017483492292295472
0.0015                    -0.0015                  0.01443024652280094
0.0015                    -5.0E-4                  0.010704057096212995
0.0015                    5.0E-4                   0.0065596605298500555
0.0015                    0.0015                   0.002924228334280186
0.0015                    0.0025                   0.0028217783923816667
0.0015                    0.0035                   0.004210879601022799
0.0015                    0.0045                   0.004277068714670878
0.0015                    0.0055                   0.0035368986059195456
0.0015                    0.0065                   0.002965037152709828
0.0015                    0.0075                   0.002838250652014852
0.0015                    0.0085                   0.0028928180546501266
0.0015                    0.0095                   0.0029643005836357712
0.0015                    0.0105                   0.002095682831918618
0.0015                    0.0115                   0.014262724048799042
0.0015                    0.0125                   0.035440968508094625
0.0015                    0.0135                   0.04449804467947657
0.0015                    0.0145                   0.040487116239378174
0.0015                    0.0155                   0.031074418151404666
0.0015                    0.0165                   0.020082435250020514
0.0015                    0.0175                   0.011148455515442059
0.0015                    0.0185                   0.0045317608409616095
0.0015                    0.0195                   0.0014033846492858462
0.0015                    0.0205                   8.51582370409949E-4
0.0015                    0.0215                   5.989630093202057E-4
0.0015                    0.0225                   3.0880823567841156E-4
0.0015                    0.0235                   1.1233411821678415E-4
0.0015                    0.0245                   4.663864533944286E-5
0.0015                    0.0255                   2.552569341609661E-5
0.0015                    0.0265                   1.8747835103767587E-5
0.0015                    0.0275                   1.6083026378802668E-5
0.0015                    0.0285                   1.4895223660198764E-5
0.0015                    0.0295                   1.3819444130756282E-5
0.0015                    0.0305                   1.3316586745508444E-5
0.0015                    0.0315                   6.935840214385881E-6
0.0025                    -0.0315                  4.383109358381842E-6
0.0025                    -0.0305                  8.223533400690684E-6
0.0025                    -0.0295                  8.155387634365252E-6
0.0025                    -0.0285                  8.255376900506115E-6
0.0025                    -0.0275                  7.966255376398466E-6
0.0025                    -0.0265                  7.684454686410028E-6
0.0025                    -0.0255                  7.471272348314368E-6
0.0025                    -0.0245                  7.370864207407127E-6
0.0025                    -0.0235                  7.399474394764395E-6
0.0025                    -0.0225                  7.602980087548163E-6
0.0025                    -0.0215                  8.126542555896552E-6
0.0025                    -0.0205                  9.381492078634146E-6
0.0025                    -0.0195                  1.2428213572830301E-5
0.0025                    -0.0185                  2.016168662737643E-5
0.0025                    -0.0175                  3.9745056519354036E-5
0.0025                    -0.0165                  8.952260568762668E-5
0.0025                    -0.0155                  2.553123713765954E-4
0.0025                    -0.0145                  6.52304760260332E-4
0.0025                    -0.0135                  0.001642670425103025
0.0025                    -0.0125                  0.004245030048995263
0.0025                    -0.0115                  0.008801185852278893
0.0025                    -0.0105                  0.014194620199866408
0.0025                    -0.0095                  0.01919027632353321
0.0025                    -0.0085                  0.023123200078698468
0.0025                    -0.0075                  0.025869445161061586
0.0025                    -0.0065                  0.027588205785718953
0.0025                    -0.0055                  0.02849425336251191
0.0025                    -0.0045                  0.028766536839032165
0.0025                    -0.0035                  0.028484109788964346
0.0025                    -0.0025                  0.027590567722386314
0.0025                    -0.0015                  0.025886975588123463
0.0025                    -5.0E-4                  0.023068833660885933
0.0025                    5.0E-4                   0.018887008240088345
0.0025                    0.0015                   0.013436532915649836
0.0025                    0.0025                   0.007359696393017215
0.0025                    0.0035                   0.002004834494120307
0.0025                    0.0045                   0.0020452613682798806
0.0025                    0.0055                   0.0037187290818478645
0.0025                    0.0065                   0.004096991895609374
0.0025                    0.0075                   0.003884506693647707
0.0025                    0.0085                   0.0032441017216020504
0.0025                    0.0095                   0.001718228129787256
0.0025                    0.0105                   0.008598379027550604
0.0025                    0.0115                   0.025010520427618362
0.0025                    0.0125                   0.03959501405570013
0.0025                    0.0135                   0.042930419154534515
0.0025                    0.0145                   0.037355489910192226
0.0025                    0.0155                   0.02730085298264825
0.0025                    0.0165                   0.016941092416648686
0.0025                    0.0175                   0.009122415449358903
0.0025                    0.0185                   0.0038096951460624092
0.0025                    0.0195                   0.0016175093450732697
0.0025                    0.0205                   9.820804052880232E-4
0.0025                    0.0215                   6.296070222200029E-4
0.0025                    0.0225                   3.162028857560447E-4
0.0025                    0.0235                   1.1599028960703748E-4
0.0025                    0.0245                   4.788025317694712E-5
0.0025                    0.0255                   2.4846442427764064E-5
0.0025                    0.0265                   1.6705736224816327E-5
0.0025                    0.0275                   1.3941419191436624E-5
0.0025                    0.0285                   1.3207666071209417E-5
0.0025                    0.0295                   1.2799095683014269E-5
0.0025                    0.0305                   1.3520141589260362E-5
0.0025                    0.0315                   7.480962149679553E-6
0.0035                    -0.0315                  4.828854559086094E-6
0.0035                    -0.0305                  8.709146272867229E-6
0.0035                    -0.0295                  8.43955092947464E-6
0.0035                    -0.0285                  8.748451047553321E-6
0.0035                    -0.0275                  8.534799746764022E-6
0.0035                    -0.0265                  8.225476145482725E-6
0.0035                    -0.0255                  7.941123737833248E-6
0.0035                    -0.0245                  7.803419292614327E-6
0.0035                    -0.0235                  7.868189607351177E-6
0.0035                    -0.0225                  8.211639590314164E-6
0.0035                    -0.0215                  9.053769688038136E-6
0.0035                    -0.0205                  1.1043456479532153E-5
0.0035                    -0.0195                  1.588913812125351E-5
0.0035                    -0.0185                  2.776909692913197E-5
0.0035                    -0.0175                  6.031977202939976E-5
0.0035                    -0.0165                  1.6499849873794078E-4
0.0035                    -0.0155                  5.008854893441958E-4
0.0035                    -0.0145                  0.0014581430100617323
0.0035                    -0.0135                  0.00417089197910368
0.0035                    -0.0125                  0.009464556874117737
0.0035                    -0.0115                  0.01601762909076373
0.0035                    -0.0105                  0.021708235818093304
0.0035                    -0.0095                  0.025614755154762234
0.0035                    -0.0085                  0.027928170439148487
0.0035                    -0.0075                  0.029185643612614946
0.0035                    -0.0065                  0.029850608700598382
0.0035                    -0.0055                  0.030250703112392533
0.0035                    -0.0045                  0.030634607160475336
0.0035                    -0.0035                  0.03114282731644656
0.0035                    -0.0025                  0.03169793130621184
0.0035                    -0.0015                  0.031961033183352514
0.0035                    -5.0E-4                  0.03139322370229371
0.0035                    5.0E-4                   0.029333297942120456
0.0035                    0.0015                   0.025283050301701717
0.0035                    0.0025                   0.01940821543567227
0.0035                    0.0035                   0.012691796819803905
0.0035                    0.0045                   0.006588846401590983
0.0035                    0.0055                   0.0023518097813904223
0.0035                    0.0065                   2.6184099937082215E-4
0.0035                    0.0075                   6.519497072259974E-4
0.0035                    0.0085                   0.002993349853169624
0.0035                    0.0095                   0.009388380651882855
0.0035                    0.0105                   0.021031561090611064
0.0035                    0.0115                   0.03384659594707399
0.0035                    0.0125                   0.04098569077512319
0.0035                    0.0135                   0.03991472689830023
0.0035                    0.0145                   0.03264619551834489
0.0035                    0.0155                   0.022303012589787036
0.0035                    0.0165                   0.01309252767242417
0.0035                    0.0175                   0.007276427377345983
0.0035                    0.0185                   0.004317299777066968
0.0035                    0.0195                   0.0028246560904055195
0.0035                    0.0205                   0.001666074376652787
0.0035                    0.0215                   8.399247152224645E-4
0.0035                    0.0225                   3.568849450003286E-4
0.0035                    0.0235                   1.3698019894314723E-4
0.0035                    0.0245                   5.8885186724704244E-5
0.0035                    0.0255                   3.032181234094981E-5
0.0035                    0.0265                   1.9471720077866207E-5
0.0035                    0.0275                   1.5421234070986352E-5
0.0035                    0.0285                   1.4042369927548596E-5
0.0035                    0.0295                   1.3202813562391646E-5
0.0035                    0.0305                   1.4471992483026863E-5
0.0035                    0.0315                   8.385990263444853E-6
0.0045                    -0.0315                  5.129823438052805E-6
0.0045                    -0.0305                  9.005226088041849E-6
0.0045                    -0.0295                  8.525521018751679E-6
0.0045                    -0.0285                  9.005333326913159E-6
0.0045                    -0.0275                  8.991937688304235E-6
0.0045                    -0.0265                  8.812283386440028E-6
0.0045                    -0.0255                  8.613194247368369E-6
0.0045                    -0.0245                  8.604449615401368E-6
0.0045                    -0.0235                  8.916377690411562E-6
0.0045                    -0.0225                  9.679514789684652E-6
0.0045                    -0.0215                  1.1209093954055492E-5
0.0045                    -0.0205                  1.448714340181344E-5
0.0045                    -0.0195                  2.231514441868612E-5
0.0045                    -0.0185                  4.2534528781777116E-5
0.0045                    -0.0175                  9.846602999208174E-5
0.0045                    -0.0165                  3.179402301663385E-4
0.0045                    -0.0155                  0.001011944601204194
0.0045                    -0.0145                  0.0032023072378461765
0.0045                    -0.0135                  0.008392087325794098
0.0045                    -0.0125                  0.01573073983229739
0.0045                    -0.0115                  0.022196781511881706
0.0045                    -0.0105                  0.026133715329811076
0.0045                    -0.0095                  0.02784859496895208
0.0045                    -0.0085                  0.02812100896375394
0.0045                    -0.0075                  0.02748258721407923
0.0045                    -0.0065                  0.02645609581923974
0.0045                    -0.0055                  0.025674203247257537
0.0045                    -0.0045                  0.025664897607054777
0.0045                    -0.0035                  0.026676647003046613
0.0045                    -0.0025                  0.02863235995347924
0.0045                    -0.0015                  0.031072972490656915
0.0045                    -5.0E-4                  0.03323166659005263
0.0045                    5.0E-4                   0.034209520265744066
0.0045                    0.0015                   0.033192778254494425
0.0045                    0.0025                   0.029847977904604542
0.0045                    0.0035                   0.02470579175031658
0.0045                    0.0045                   0.01902984275558508
0.0045                    0.0055                   0.01431009819166298
0.0045                    0.0065                   0.011743282186905693
0.0045                    0.0075                   0.012118654359398611
0.0045                    0.0085                   0.015991932782584737
0.0045                    0.0095                   0.023243785262137665
0.0045                    0.0105                   0.031867037187254185
0.0045                    0.0115                   0.03815795846449767
0.0045                    0.0125                   0.03945086032774059
0.0045                    0.0135                   0.03505858416899505
0.0045                    0.0145                   0.02623069833085913
0.0045                    0.0155                   0.016156523176698655
0.0045                    0.0165                   0.008903377648955968
0.0045                    0.0175                   0.0067984365211825664
0.0045                    0.0185                   0.006696695883019979
0.0045                    0.0195                   0.0055013599288253594
0.0045                    0.0205                   0.0032725711297510608
0.0045                    0.0215                   0.0012739898922853644
0.0045                    0.0225                   4.4025897800550813E-4
0.0045                    0.0235                   1.9159135473646813E-4
0.0045                    0.0245                   8.305590504377122E-5
0.0045                    0.0255                   4.0341796955560605E-5
0.0045                    0.0265                   2.3855408257025203E-5
0.0045                    0.0275                   1.731762392873617E-5
0.0045                    0.0285                   1.4775076470057008E-5
0.0045                    0.0295                   1.3440207623493244E-5
0.0045                    0.0305                   1.5132671936933276E-5
0.0045                    0.0315                   9.017711679929934E-6
0.0055                    -0.0315                  5.4199976384735455E-6
0.0055                    -0.0305                  9.35904476361554E-6
0.0055                    -0.0295                  8.73717459013559E-6
0.0055                    -0.0285                  9.410512938378593E-6
0.0055                    -0.0275                  9.690705788363187E-6
0.0055                    -0.0265                  9.847744909883252E-6
0.0055                    -0.0255                  1.004419575453832E-5
0.0055                    -0.0245                  1.0604880774715105E-5
0.0055                    -0.0235                  1.1773408370207034E-5
0.0055                    -0.0225                  1.3714184894290275E-5
0.0055                    -0.0215                  1.6786821365072038E-5
0.0055                    -0.0205                  2.2448387603400764E-5
0.0055                    -0.0195                  3.5194753753809364E-5
0.0055                    -0.0185                  7.110653718085453E-5
0.0055                    -0.0175                  1.920651395892441E-4
0.0055                    -0.0165                  6.10663766664518E-4
0.0055                    -0.0155                  0.001959852286739277
0.0055                    -0.0145                  0.006080747635845096
0.0055                    -0.0135                  0.013623959153253021
0.0055                    -0.0125                  0.021389744823820247
0.0055                    -0.0115                  0.026085521625465805
0.0055                    -0.0105                  0.027564459336367697
0.0055                    -0.0095                  0.026840775268900354
0.0055                    -0.0085                  0.024459791685644865
0.0055                    -0.0075                  0.021169624652330788
0.0055                    -0.0065                  0.01804306286186537
0.0055                    -0.0055                  0.01595752139221343
0.0055                    -0.0045                  0.015336251255449575
0.0055                    -0.0035                  0.016288792557266007
0.0055                    -0.0025                  0.018850562966043562
0.0055                    -0.0015                  0.022852208040526675
0.0055                    -5.0E-4                  0.027640177333068037
0.0055                    5.0E-4                   0.03202587824677319
0.0055                    0.0015                   0.034694933756826
0.0055                    0.0025                   0.03482785741654317
0.0055                    0.0035                   0.03266817257549624
0.0055                    0.0045                   0.029368076862715576
0.0055                    0.0055                   0.026346432629359803
0.0055                    0.0065                   0.02489137829287632
0.0055                    0.0075                   0.025758761048242335
0.0055                    0.0085                   0.028896842603620687
0.0055                    0.0095                   0.033226681366220846
0.0055                    0.0105                   0.03684160766516045
0.0055                    0.0115                   0.0379109264152947
0.0055                    0.0125                   0.03515052968083278
0.0055                    0.0135                   0.02802975793823669
0.0055                    0.0145                   0.018320511501381087
0.0055                    0.0155                   0.009555021168129792
0.0055                    0.0165                   0.006130464795284217
0.0055                    0.0175                   0.007532276267718054
0.0055                    0.0185                   0.008728033962463704
0.0055                    0.0195                   0.008636302566322357
0.0055                    0.0205                   0.006239053502431649
0.0055                    0.0215                   0.0027917378451748566
0.0055                    0.0225                   9.826424204958833E-4
0.0055                    0.0235                   4.0601498867779887E-4
0.0055                    0.0245                   1.4391210894806902E-4
0.0055                    0.0255                   6.19530513429676E-5
0.0055                    0.0265                   3.166131654440169E-5
0.0055                    0.0275                   2.0315817667967935E-5
0.0055                    0.0285                   1.5941335961561504E-5
0.0055                    0.0295                   1.3936201924650357E-5
0.0055                    0.0305                   1.598626641138275E-5
0.0055                    0.0315                   9.717458533211475E-6
0.0065                    -0.0315                  5.671023544015416E-6
0.0065                    -0.0305                  9.707949699223441E-6
0.0065                    -0.0295                  9.034171140884083E-6
0.0065                    -0.0285                  9.992602751681942E-6
0.0065                    -0.0275                  1.0748765609247814E-5
0.0065                    -0.0265                  1.1627604151100818E-5
0.0065                    -0.0255                  1.2925483301829222E-5
0.0065                    -0.0245                  1.5278187592618107E-5
0.0065                    -0.0235                  1.920421771763057E-5
0.0065                    -0.0225                  2.4832971541979827E-5
0.0065                    -0.0215                  3.224756971020958E-5
0.0065                    -0.0205                  4.2823732587373536E-5
0.0065                    -0.0195                  6.474197724365066E-5
0.0065                    -0.0185                  1.2381886424635548E-4
0.0065                    -0.0175                  3.570537669852191E-4
0.0065                    -0.0165                  0.0011030623166450439
0.0065                    -0.0155                  0.0035914370231421746
0.0065                    -0.0145                  0.009906306600767871
0.0065                    -0.0135                  0.018802097566491264
0.0065                    -0.0125                  0.025463297071075666
0.0065                    -0.0115                  0.027779683918029645
0.0065                    -0.0105                  0.026736482568613544
0.0065                    -0.0095                  0.023100583338939044
0.0065                    -0.0085                  0.017811692847971298
0.0065                    -0.0075                  0.0125775383667189
0.0065                    -0.0065                  0.008758812859455649
0.0065                    -0.0055                  0.0066673476086826396