% Model:              Benchmark260518.mph
% Version:            COMSOL 6.2.0.339
% Date:               May 19 2026, 03:33
% Dimension:          2
% Nodes:              4096
% Expressions:        1
% Description:        速度大小
% Length unit:        m
% x                       y                        spf.U (m/s)
5.0E-4                    -0.0315                  2.0212666365191466E-6
5.0E-4                    -0.0305                  4.0335818632317285E-6
5.0E-4                    -0.0295                  4.498396847593326E-6
5.0E-4                    -0.0285                  5.017178977182781E-6
5.0E-4                    -0.0275                  5.325131200015044E-6
5.0E-4                    -0.0265                  5.6062035734201435E-6
5.0E-4                    -0.0255                  5.8497252371128934E-6
5.0E-4                    -0.0245                  6.0748147402583005E-6
5.0E-4                    -0.0235                  6.261067447373548E-6
5.0E-4                    -0.0225                  6.436170085211917E-6
5.0E-4                    -0.0215                  6.580937217724607E-6
5.0E-4                    -0.0205                  6.720971139773678E-6
5.0E-4                    -0.0195                  6.879981488869451E-6
5.0E-4                    -0.0185                  7.066381998357673E-6
5.0E-4                    -0.0175                  7.316751356527303E-6
5.0E-4                    -0.0165                  7.722517819386552E-6
5.0E-4                    -0.0155                  8.47062938085189E-6
5.0E-4                    -0.0145                  9.842011159198152E-6
5.0E-4                    -0.0135                  1.2765772254157078E-5
5.0E-4                    -0.0125                  2.241045836307053E-5
5.0E-4                    -0.0115                  5.4624865014866096E-5
5.0E-4                    -0.0105                  1.636161772337874E-4
5.0E-4                    -0.0095                  3.536635681191955E-4
5.0E-4                    -0.0085                  5.401507810888524E-4
5.0E-4                    -0.0075                  7.833084719226751E-4
5.0E-4                    -0.0065                  0.0014251469018732536
5.0E-4                    -0.0055                  0.0025690643666611717
5.0E-4                    -0.0045                  0.0038337280564908456
5.0E-4                    -0.0035                  0.004709346134426214
5.0E-4                    -0.0025                  0.004831058947258837
5.0E-4                    -0.0015                  0.004172935787875187
5.0E-4                    -5.0E-4                  0.0029764647710919024
5.0E-4                    5.0E-4                   0.0017913306085498835
5.0E-4                    0.0015                   0.002547730464904811
5.0E-4                    0.0025                   0.004199114564388157
5.0E-4                    0.0035                   0.004702438092583339
5.0E-4                    0.0045                   0.00405126225793756
5.0E-4                    0.0055                   0.003979015648414466
5.0E-4                    0.0065                   0.03457817456102649
5.0E-4                    0.0075                   0.06429231836080375
5.0E-4                    0.0085                   0.057603700008840054
5.0E-4                    0.0095                   0.02535495615787664
5.0E-4                    0.0105                   0.0016730360266196127
5.0E-4                    0.0115                   0.0016000173495832816
5.0E-4                    0.0125                   9.637789190252182E-4
5.0E-4                    0.0135                   3.838650446706322E-4
5.0E-4                    0.0145                   1.0945364268841995E-4
5.0E-4                    0.0155                   5.5698210590391765E-5
5.0E-4                    0.0165                   3.6299289625489694E-5
5.0E-4                    0.0175                   2.198703047835885E-5
5.0E-4                    0.0185                   1.291410077843708E-5
5.0E-4                    0.0195                   8.528935691745599E-6
5.0E-4                    0.0205                   6.835118678416557E-6
5.0E-4                    0.0215                   6.065407372131615E-6
5.0E-4                    0.0225                   5.569401795315178E-6
5.0E-4                    0.0235                   5.2710796504993E-6
5.0E-4                    0.0245                   5.025420170790016E-6
5.0E-4                    0.0255                   4.7784241347276E-6
5.0E-4                    0.0265                   4.537267615285675E-6
5.0E-4                    0.0275                   4.2836672936712135E-6
5.0E-4                    0.0285                   4.014846622443873E-6
5.0E-4                    0.0295                   3.5660311413535473E-6
5.0E-4                    0.0305                   3.140396117280277E-6
5.0E-4                    0.0315                   1.5497454501767375E-6
0.0015                    -0.0315                  3.9518731571609745E-6
0.0015                    -0.0305                  7.759313010722708E-6
0.0015                    -0.0295                  8.253673034545871E-6
0.0015                    -0.0285                  8.805610774236622E-6
0.0015                    -0.0275                  9.035316601102378E-6
0.0015                    -0.0265                  9.270898401420992E-6
0.0015                    -0.0255                  9.49280154036981E-6
0.0015                    -0.0245                  9.714655179837221E-6
0.0015                    -0.0235                  9.905913648959392E-6
0.0015                    -0.0225                  1.0081375733070337E-5
0.0015                    -0.0215                  1.022100539510092E-5
0.0015                    -0.0205                  1.0353178917388159E-5
0.0015                    -0.0195                  1.051408441431091E-5
0.0015                    -0.0185                  1.0734165670096127E-5
0.0015                    -0.0175                  1.108672147505348E-5
0.0015                    -0.0165                  1.173792559965637E-5
0.0015                    -0.0155                  1.3037825191215219E-5
0.0015                    -0.0145                  1.5705022134542686E-5
0.0015                    -0.0135                  2.202002892141128E-5
0.0015                    -0.0125                  4.099277722047273E-5
0.0015                    -0.0115                  1.0128538855405927E-4
0.0015                    -0.0105                  3.0660373077759666E-4
0.0015                    -0.0095                  7.158327145048597E-4
0.0015                    -0.0085                  0.0014328146723924715
0.0015                    -0.0075                  0.003113167520575241
0.0015                    -0.0065                  0.006174085384496643
0.0015                    -0.0055                  0.009879549190603062
0.0015                    -0.0045                  0.013183430583810173
0.0015                    -0.0035                  0.015372519355014085
0.0015                    -0.0025                  0.016169863291013727
0.0015                    -0.0015                  0.01561996815643835
0.0015                    -5.0E-4                  0.013839593669168235
0.0015                    5.0E-4                   0.010723264327774177
0.0015                    0.0015                   0.006309297577310503
0.0015                    0.0025                   0.0027402833386627025
0.0015                    0.0035                   0.0040481533875844754
0.0015                    0.0045                   0.004363247697272175
0.0015                    0.0055                   0.011394766093546775
0.0015                    0.0065                   0.04070249250793277
0.0015                    0.0075                   0.06155139557707991
0.0015                    0.0085                   0.05418008950482219
0.0015                    0.0095                   0.026197738187518915
0.0015                    0.0105                   0.003747310261954528
0.0015                    0.0115                   0.003559258715657227
0.0015                    0.0125                   0.0027866406588580002
0.0015                    0.0135                   0.001454948292151947
0.0015                    0.0145                   4.4706798212280837E-4
0.0015                    0.0155                   1.850291697251501E-4
0.0015                    0.0165                   1.1327947984376425E-4
0.0015                    0.0175                   5.904987946992491E-5
0.0015                    0.0185                   3.059397296538891E-5
0.0015                    0.0195                   1.749560332365503E-5
0.0015                    0.0205                   1.228404335832712E-5
0.0015                    0.0215                   1.0138771656474828E-5
0.0015                    0.0225                   9.069007609606292E-6
0.0015                    0.0235                   8.515483579766007E-6
0.0015                    0.0245                   8.152740723098112E-6
0.0015                    0.0255                   7.850986843282665E-6
0.0015                    0.0265                   7.593610910527794E-6
0.0015                    0.0275                   7.3521201461466285E-6
0.0015                    0.0285                   7.118958119696559E-6
0.0015                    0.0295                   6.599868743767144E-6
0.0015                    0.0305                   6.0612168183975036E-6
0.0015                    0.0315                   3.0329134485404806E-6
0.0025                    -0.0315                  4.2282290657100045E-6
0.0025                    -0.0305                  7.958623583024458E-6
0.0025                    -0.0295                  7.95075297110041E-6
0.0025                    -0.0285                  8.190616523909491E-6
0.0025                    -0.0275                  8.076078175688877E-6
0.0025                    -0.0265                  7.9733670825075E-6
0.0025                    -0.0255                  7.894705178010355E-6
0.0025                    -0.0245                  7.854897418832466E-6
0.0025                    -0.0235                  7.833522479866461E-6
0.0025                    -0.0225                  7.806002117122374E-6
0.0025                    -0.0215                  7.762047567707558E-6
0.0025                    -0.0205                  7.708571967116649E-6
0.0025                    -0.0195                  7.678757009089979E-6
0.0025                    -0.0185                  7.733158116651833E-6
0.0025                    -0.0175                  7.972649583044878E-6
0.0025                    -0.0165                  8.594060627256788E-6
0.0025                    -0.0155                  1.003413715584235E-5
0.0025                    -0.0145                  1.3439273810800044E-5
0.0025                    -0.0135                  2.2037198975303376E-5
0.0025                    -0.0125                  4.520548501218738E-5
0.0025                    -0.0115                  1.1491600127873781E-4
0.0025                    -0.0105                  3.8770054200912665E-4
0.0025                    -0.0095                  0.0011255174214970366
0.0025                    -0.0085                  0.0031688731819568884
0.0025                    -0.0075                  0.007471608694639799
0.0025                    -0.0065                  0.013056389533613861
0.0025                    -0.0055                  0.01793271603828723
0.0025                    -0.0045                  0.02132022157374272
0.0025                    -0.0035                  0.02347412385761888
0.0025                    -0.0025                  0.02489699606620472
0.0025                    -0.0015                  0.025885770540110292
0.0025                    -5.0E-4                  0.026259121136249362
0.0025                    5.0E-4                   0.025351029906774125
0.0025                    0.0015                   0.022280829023412344
0.0025                    0.0025                   0.01687817389080449
0.0025                    0.0035                   0.010903543377046097
0.0025                    0.0045                   0.009654389182486529
0.0025                    0.0055                   0.021291869313900112
0.0025                    0.0065                   0.043372892633663805
0.0025                    0.0075                   0.05564717311702763
0.0025                    0.0085                   0.04852326310332653
0.0025                    0.0095                   0.026746223174050537
0.0025                    0.0105                   0.006761053921080887
0.0025                    0.0115                   8.619768091819046E-4
0.0025                    0.0125                   0.0025613773124778896
0.0025                    0.0135                   0.002136860041866695
0.0025                    0.0145                   9.407247996691976E-4
0.0025                    0.0155                   4.0254889416237345E-4
0.0025                    0.0165                   2.590590754779733E-4
0.0025                    0.0175                   1.2681709604479602E-4
0.0025                    0.0185                   5.2253913877829134E-5
0.0025                    0.0195                   2.435961237600997E-5
0.0025                    0.0205                   1.3881670048625221E-5
0.0025                    0.0215                   9.586893983581123E-6
0.0025                    0.0225                   7.847518861152585E-6
0.0025                    0.0235                   7.12122136289576E-6
0.0025                    0.0245                   6.811349090744506E-6
0.0025                    0.0255                   6.688940448770235E-6
0.0025                    0.0265                   6.6687256133263845E-6
0.0025                    0.0275                   6.693817477146238E-6
0.0025                    0.0285                   6.720837720306011E-6
0.0025                    0.0295                   6.421732801474482E-6
0.0025                    0.0305                   6.171188491166796E-6
0.0025                    0.0315                   3.1866476415599748E-6
0.0035                    -0.0315                  4.688006739627571E-6
0.0035                    -0.0305                  8.407331524526121E-6
0.0035                    -0.0295                  8.092036486210964E-6
0.0035                    -0.0285                  8.521791241577888E-6
0.0035                    -0.0275                  8.510155496830835E-6
0.0035                    -0.0265                  8.431870970542568E-6
0.0035                    -0.0255                  8.332080101270388E-6
0.0035                    -0.0245                  8.273629895735486E-6
0.0035                    -0.0235                  8.248993186070393E-6
0.0035                    -0.0225                  8.233048462581776E-6
0.0035                    -0.0215                  8.19974296731588E-6
0.0035                    -0.0205                  8.149383632160198E-6
0.0035                    -0.0195                  8.126199889608236E-6
0.0035                    -0.0185                  8.229716178253107E-6
0.0035                    -0.0175                  8.630825973129914E-6
0.0035                    -0.0165                  9.64354032187409E-6
0.0035                    -0.0155                  1.1962047013729549E-5
0.0035                    -0.0145                  1.7365423556720212E-5
0.0035                    -0.0135                  3.0485668142438742E-5
0.0035                    -0.0125                  6.619141666466153E-5
0.0035                    -0.0115                  1.7186045822404491E-4
0.0035                    -0.0105                  6.134527907128563E-4
0.0035                    -0.0095                  0.0021990952668688216
0.0035                    -0.0085                  0.006515420928242677
0.0035                    -0.0075                  0.013111925684881743
0.0035                    -0.0065                  0.018932331701322636
0.0035                    -0.0055                  0.022347353429035197
0.0035                    -0.0045                  0.02393251872493035
0.0035                    -0.0035                  0.024755414351756124
0.0035                    -0.0025                  0.025680125306668432
0.0035                    -0.0015                  0.02731448682924141
0.0035                    -5.0E-4                  0.02969299546770138
0.0035                    5.0E-4                   0.03200090732963418
0.0035                    0.0015                   0.032876639606023814
0.0035                    0.0025                   0.031189035658647845
0.0035                    0.0035                   0.02745693185787222
0.0035                    0.0045                   0.02533942939946128
0.0035                    0.0055                   0.030233929502747083
0.0035                    0.0065                   0.040859108047948914
0.0035                    0.0075                   0.04560911675894694
0.0035                    0.0085                   0.039264311206846945
0.0035                    0.0095                   0.026570627457128328
0.0035                    0.0105                   0.016770201591734396
0.0035                    0.0115                   0.011926183359916362
0.0035                    0.0125                   0.008520212461953619
0.0035                    0.0135                   0.005175481095463323
0.0035                    0.0145                   0.0025047863411033653
0.0035                    0.0155                   0.0011993919733448355
0.0035                    0.0165                   6.61335556494627E-4
0.0035                    0.0175                   2.9566522777116724E-4
0.0035                    0.0185                   1.0239848071636457E-4
0.0035                    0.0195                   4.3666933978923286E-5
0.0035                    0.0205                   2.1300702863697585E-5
0.0035                    0.0215                   1.2747220265848468E-5
0.0035                    0.0225                   9.361844987121615E-6
0.0035                    0.0235                   7.962255247790693E-6
0.0035                    0.0245                   7.3766935644558706E-6
0.0035                    0.0255                   7.150270061249276E-6
0.0035                    0.0265                   7.094033131764274E-6
0.0035                    0.0275                   7.074828980744599E-6
0.0035                    0.0285                   7.000221870661826E-6
0.0035                    0.0295                   6.51979923058058E-6
0.0035                    0.0305                   6.412312298126211E-6
0.0035                    0.0315                   3.4506948755465577E-6
0.0045                    -0.0315                  5.046516704611594E-6
0.0045                    -0.0305                  8.664220185049345E-6
0.0045                    -0.0295                  7.923567858195986E-6
0.0045                    -0.0285                  8.448820404156249E-6
0.0045                    -0.0275                  8.59423970004993E-6
0.0045                    -0.0265                  8.629343588034695E-6
0.0045                    -0.0255                  8.585479855504476E-6
0.0045                    -0.0245                  8.570793679451987E-6
0.0045                    -0.0235                  8.615124826267071E-6
0.0045                    -0.0225                  8.706547962454013E-6
0.0045                    -0.0215                  8.812741069391953E-6
0.0045                    -0.0205                  8.926859819725273E-6
0.0045                    -0.0195                  9.113349077737255E-6
0.0045                    -0.0185                  9.545822397241616E-6
0.0045                    -0.0175                  1.0526469650539229E-5
0.0045                    -0.0165                  1.2565350474833897E-5
0.0045                    -0.0155                  1.6756226818955663E-5
0.0045                    -0.0145                  2.58859125754194E-5
0.0045                    -0.0135                  4.858347676857248E-5
0.0045                    -0.0125                  1.1168653641215212E-4
0.0045                    -0.0115                  3.356548352019714E-4
0.0045                    -0.0105                  0.001131844718692488
0.0045                    -0.0095                  0.004176659196945023
0.0045                    -0.0085                  0.010938066481966692
0.0045                    -0.0075                  0.018334886551323492
0.0045                    -0.0065                  0.022359980852624726
0.0045                    -0.0055                  0.022979701114732395
0.0045                    -0.0045                  0.021668403127357475
0.0045                    -0.0035                  0.01973779064162775
0.0045                    -0.0025                  0.018599626837595418
0.0045                    -0.0015                  0.019293396253198106
0.0045                    -5.0E-4                  0.022131245138835718
0.0045                    5.0E-4                   0.026604222862999512
0.0045                    0.0015                   0.031344158660072854
0.0045                    0.0025                   0.03440148552334692
0.0045                    0.0035                   0.034519875774989904
0.0045                    0.0045                   0.03280502024407643
0.0045                    0.0055                   0.0320631790018452
0.0045                    0.0065                   0.03304216857840906
0.0045                    0.0075                   0.03178884071536654
0.0045                    0.0085                   0.02724280729492734
0.0045                    0.0095                   0.025367654990933044
0.0045                    0.0105                   0.026216616512748488
0.0045                    0.0115                   0.024807613098915757
0.0045                    0.0125                   0.02078439642172847
0.0045                    0.0135                   0.01539811854634126
0.0045                    0.0145                   0.0096188595442817
0.0045                    0.0155                   0.004795581074674682
0.0045                    0.0165                   0.00195544006432142
0.0045                    0.0175                   7.295929891676144E-4
0.0045                    0.0185                   2.4391640777662442E-4
0.0045                    0.0195                   8.125015700992348E-5
0.0045                    0.0205                   3.3900501487512857E-5
0.0045                    0.0215                   1.7819647761723926E-5
0.0045                    0.0225                   1.1517183590112918E-5
0.0045                    0.0235                   8.96760765044907E-6
0.0045                    0.0245                   7.901547830636508E-6
0.0045                    0.0255                   7.45613204388238E-6
0.0045                    0.0265                   7.274974808641726E-6
0.0045                    0.0275                   7.133683875385648E-6
0.0045                    0.0285                   6.923196730488182E-6
0.0045                    0.0295                   6.364900129783201E-6
0.0045                    0.0305                   6.516584254792719E-6
0.0045                    0.0315                   3.6456348972446898E-6
0.0055                    -0.0315                  5.2536847678372265E-6
0.0055                    -0.0305                  8.797207345746117E-6
0.0055                    -0.0295                  7.767180876363633E-6
0.0055                    -0.0285                  8.322988191182919E-6
0.0055                    -0.0275                  8.582014968057642E-6
0.0055                    -0.0265                  8.744809849640842E-6
0.0055                    -0.0255                  8.795921663802159E-6
0.0055                    -0.0245                  8.871568442293108E-6
0.0055                    -0.0235                  9.057669797956751E-6
0.0055                    -0.0225                  9.391482715753426E-6
0.0055                    -0.0215                  9.864585611352026E-6
0.0055                    -0.0205                  1.0484760392758096E-5
0.0055                    -0.0195                  1.1378843744432068E-5
0.0055                    -0.0185                  1.2895749460864953E-5
0.0055                    -0.0175                  1.5691334281582744E-5
0.0055                    -0.0165                  2.0628424442266703E-5
0.0055                    -0.0155                  2.924080999754432E-5
0.0055                    -0.0145                  4.667281162065118E-5
0.0055                    -0.0135                  8.945008653725942E-5
0.0055                    -0.0125                  2.2930604172148266E-4
0.0055                    -0.0115                  6.996860253891295E-4
0.0055                    -0.0105                  0.0022002312300760263
0.0055                    -0.0095                  0.007094781035528398
0.0055                    -0.0085                  0.015567855509509272
0.0055                    -0.0075                  0.022170958229842712
0.0055                    -0.0065                  0.023530199384845008
0.0055                    -0.0055                  0.020858934314800237
0.0055                    -0.0045                  0.016056561379716203
0.0055                    -0.0035                  0.011370393137488112
0.0055                    -0.0025                  0.008646489953782656
0.0055                    -0.0015                  0.008268418355442713
0.0055                    -5.0E-4                  0.009860704898101718
0.0055                    5.0E-4                   0.013291654212664386
0.0055                    0.0015                   0.018234211015893603
0.0055                    0.0025                   0.023422347463412926
0.0055                    0.0035                   0.026895352429949275
0.0055                    0.0045                   0.02742007754037692
0.0055                    0.0055                   0.02542706798099306
0.0055                    0.0065                   0.02167546930699376
0.0055                    0.0075                   0.01694393629432893
0.0055                    0.0085                   0.015602051597869553
0.0055                    0.0095                   0.020157094563800788
0.0055                    0.0105                   0.024667652790057174
0.0055                    0.0115                   0.026076985796337642
0.0055                    0.0125                   0.024994301645359956
0.0055                    0.0135                   0.022176187362957612
0.0055                    0.0145                   0.01754736278921991
0.0055                    0.0155                   0.011139632225388866
0.0055                    0.0165                   0.0050782813369453965
0.0055                    0.0175                   0.001709469874297021
0.0055                    0.0185                   5.265683691969676E-4
0.0055                    0.0195                   1.5019902084798423E-4
0.0055                    0.0205                   5.7720188621356344E-5
0.0055                    0.0215                   2.6155151286027325E-5
0.0055                    0.0225                   1.4862875324646701E-5
0.0055                    0.0235                   1.0411752497874531E-5
0.0055                    0.0245                   8.556582368079276E-6
0.0055                    0.0255                   7.75385548311979E-6
0.0055                    0.0265                   7.379593305561234E-6
0.0055                    0.0275                   7.099603410628911E-6
0.0055                    0.0285                   6.802083948943759E-6
0.0055                    0.0295                   6.246818201155548E-6
0.0055                    0.0305                   6.626658147703444E-6
0.0055                    0.0315                   3.8054134554042776E-6
0.0065                    -0.0315                  5.277186781252879E-6
0.0065                    -0.0305                  8.761603466406855E-6
0.0065                    -0.0295                  7.619674968638468E-6
0.0065                    -0.0285                  8.172384028659595E-6
0.0065                    -0.0275                  8.4902229390735E-6
0.0065                    -0.0265                  8.743664529584134E-6
0.0065                    -0.0255                  8.883549761886869E-6
0.0065                    -0.0245                  9.068877252045232E-6
0.0065                    -0.0235                  9.471330560033591E-6
0.0065                    -0.0225                  1.0245219592339539E-5
0.0065                    -0.0215                  1.1493390847534841E-5
0.0065                    -0.0205                  1.3328857625781144E-5
0.0065                    -0.0195                  1.6081816623436188E-5
0.0065                    -0.0185                  2.0628833799591538E-5
0.0065                    -0.0175                  2.85809671032205E-5
0.0065                    -0.0165                  4.2889270599947054E-5
0.0065                    -0.0155                  6.576947633513526E-5
0.0065                    -0.0145                  1.0200841855352927E-4
0.0065                    -0.0135                  1.9904605005839764E-4
0.0065                    -0.0125                  4.939665160918069E-4
0.0065                    -0.0115                  0.0012942283674543893
0.0065                    -0.0105                  0.0038917673836819195
0.0065                    -0.0095                  0.010610830506968568
0.0065                    -0.0085                  0.019504122242166206
0.0065                    -0.0075                  0.024268049704317635
0.0065                    -0.0065                  0.02276299358750977
0.0065                    -0.0055                  0.016968101524612905