% Model:              Benchmark260518.mph
% Version:            COMSOL 6.2.0.339
% Date:               May 21 2026, 18:39
% Dimension:          2
% Nodes:              4096
% Expressions:        1
% Description:        速度大小
% Length unit:        m
% x                       y                        spf.U (m/s)
5.0E-4                    -0.0315                  1.0205684653929935E-6
5.0E-4                    -0.0305                  2.0115565790393117E-6
5.0E-4                    -0.0295                  2.114543650863182E-6
5.0E-4                    -0.0285                  2.2886789069200533E-6
5.0E-4                    -0.0275                  2.451328271281907E-6
5.0E-4                    -0.0265                  2.579905458771581E-6
5.0E-4                    -0.0255                  2.6772080793625307E-6
5.0E-4                    -0.0245                  2.770815474727353E-6
5.0E-4                    -0.0235                  2.854257860406957E-6
5.0E-4                    -0.0225                  2.9234134798342446E-6
5.0E-4                    -0.0215                  2.9895462399332233E-6
5.0E-4                    -0.0205                  3.048458520804235E-6
5.0E-4                    -0.0195                  3.1036006263948243E-6
5.0E-4                    -0.0185                  3.1606552803818904E-6
5.0E-4                    -0.0175                  3.217458170286235E-6
5.0E-4                    -0.0165                  3.2658641764314786E-6
5.0E-4                    -0.0155                  3.3055610030119426E-6
5.0E-4                    -0.0145                  3.3405339023572175E-6
5.0E-4                    -0.0135                  3.3704578000310387E-6
5.0E-4                    -0.0125                  3.3986909830884846E-6
5.0E-4                    -0.0115                  3.4215140319881384E-6
5.0E-4                    -0.0105                  3.4319853259073023E-6
5.0E-4                    -0.0095                  3.4243028073726404E-6
5.0E-4                    -0.0085                  3.4041503336126167E-6
5.0E-4                    -0.0075                  3.38257762705521E-6
5.0E-4                    -0.0065                  3.3512569308342354E-6
5.0E-4                    -0.0055                  3.2979263367030747E-6
5.0E-4                    -0.0045                  3.2382242565902393E-6
5.0E-4                    -0.0035                  3.173764518952183E-6
5.0E-4                    -0.0025                  3.1045402738306615E-6
5.0E-4                    -0.0015                  3.023936390398647E-6
5.0E-4                    -5.0E-4                  2.9503939961309792E-6
5.0E-4                    5.0E-4                   2.9088626205835063E-6
5.0E-4                    0.0015                   2.8648775136006056E-6
5.0E-4                    0.0025                   2.999805853917287E-6
5.0E-4                    0.0035                   3.6142972610113163E-6
5.0E-4                    0.0045                   4.9486532806274546E-6
5.0E-4                    0.0055                   7.375284460235575E-6
5.0E-4                    0.0065                   1.1499280778020701E-5
5.0E-4                    0.0075                   1.828483619367733E-5
5.0E-4                    0.0085                   3.534455195436771E-5
5.0E-4                    0.0095                   9.477098616158618E-5
5.0E-4                    0.0105                   2.539652160356143E-4
5.0E-4                    0.0115                   5.482603581279353E-4
5.0E-4                    0.0125                   9.063400701435086E-4
5.0E-4                    0.0135                   0.001118716812692422
5.0E-4                    0.0145                   0.00131045635015578
5.0E-4                    0.0155                   0.0062519303448900125
5.0E-4                    0.0165                   0.030199818214254975
5.0E-4                    0.0175                   0.0454085211914275
5.0E-4                    0.0185                   0.0382467106281172
5.0E-4                    0.0195                   0.026440983583823203
5.0E-4                    0.0205                   0.0140212375034405
5.0E-4                    0.0215                   0.005126759575541448
5.0E-4                    0.0225                   0.0010940809751447986
5.0E-4                    0.0235                   2.1300539617804268E-4
5.0E-4                    0.0245                   3.884102401220077E-5
5.0E-4                    0.0255                   1.472140728577924E-5
5.0E-4                    0.0265                   7.977019824879092E-6
5.0E-4                    0.0275                   5.845893196574621E-6
5.0E-4                    0.0285                   5.7081192818518886E-6
5.0E-4                    0.0295                   6.353885076220889E-6
5.0E-4                    0.0305                   1.3306934995971297E-5
5.0E-4                    0.0315                   1.0024775619217914E-5
0.0015                    -0.0315                  2.0018601763289853E-6
0.0015                    -0.0305                  3.958417179306299E-6
0.0015                    -0.0295                  4.1547994099523135E-6
0.0015                    -0.0285                  4.372570223256219E-6
0.0015                    -0.0275                  4.498952864709745E-6
0.0015                    -0.0265                  4.597318514740779E-6
0.0015                    -0.0255                  4.665971978803067E-6
0.0015                    -0.0245                  4.737829403305678E-6
0.0015                    -0.0235                  4.806092670235547E-6
0.0015                    -0.0225                  4.865552506861045E-6
0.0015                    -0.0215                  4.925526022197529E-6
0.0015                    -0.0205                  4.9820556828955155E-6
0.0015                    -0.0195                  5.03793345150198E-6
0.0015                    -0.0185                  5.098356272506552E-6
0.0015                    -0.0175                  5.160509728917114E-6
0.0015                    -0.0165                  5.215824362242056E-6
0.0015                    -0.0155                  5.263443797422115E-6
0.0015                    -0.0145                  5.306918656359226E-6
0.0015                    -0.0135                  5.346006860528962E-6
0.0015                    -0.0125                  5.3832542096639095E-6
0.0015                    -0.0115                  5.414470772171318E-6
0.0015                    -0.0105                  5.432236500304947E-6
0.0015                    -0.0095                  5.431393255991158E-6
0.0015                    -0.0085                  5.419129410749374E-6
0.0015                    -0.0075                  5.407730164779401E-6
0.0015                    -0.0065                  5.3905435101889095E-6
0.0015                    -0.0055                  5.357671854539734E-6
0.0015                    -0.0045                  5.325700764364363E-6
0.0015                    -0.0035                  5.300053037406047E-6
0.0015                    -0.0025                  5.284447044956223E-6
0.0015                    -0.0015                  5.2819790300421475E-6
0.0015                    -5.0E-4                  5.332371080893227E-6
0.0015                    5.0E-4                   5.499447096461144E-6
0.0015                    0.0015                   5.851190361303314E-6
0.0015                    0.0025                   6.772091304344753E-6
0.0015                    0.0035                   8.932526151096159E-6
0.0015                    0.0045                   1.3174170379504628E-5
0.0015                    0.0055                   2.084958434737214E-5
0.0015                    0.0065                   3.461214740180294E-5
0.0015                    0.0075                   6.370890086347206E-5
0.0015                    0.0085                   1.4335777056375412E-4
0.0015                    0.0095                   3.6996415527280527E-4
0.0015                    0.0105                   8.92726140557583E-4
0.0015                    0.0115                   0.001682817143058282
0.0015                    0.0125                   0.0023346764421810127
0.0015                    0.0135                   0.0025989930290971955
0.0015                    0.0145                   0.0030262190876777753
0.0015                    0.0155                   0.019058604984925658
0.0015                    0.0165                   0.03983417334804527
0.0015                    0.0175                   0.04487991825092275
0.0015                    0.0185                   0.0356486640880401
0.0015                    0.0195                   0.022574290401408733
0.0015                    0.0205                   0.01063946365150665
0.0015                    0.0215                   0.003538373206965992
0.0015                    0.0225                   8.983742648679728E-4
0.0015                    0.0235                   2.0714068240809203E-4
0.0015                    0.0245                   3.990211339338383E-5
0.0015                    0.0255                   1.4799671172358571E-5
0.0015                    0.0265                   7.752753181229133E-6
0.0015                    0.0275                   5.8065603716486756E-6
0.0015                    0.0285                   5.670823690581745E-6
0.0015                    0.0295                   6.359914856365692E-6
0.0015                    0.0305                   9.319292607857466E-6
0.0015                    0.0315                   5.978017722791392E-6
0.0025                    -0.0315                  2.0611521648409457E-6
0.0025                    -0.0305                  4.088143625731027E-6
0.0025                    -0.0295                  4.385346130431656E-6
0.0025                    -0.0285                  4.612166247880068E-6
0.0025                    -0.0275                  4.580001075583603E-6
0.0025                    -0.0265                  4.5123319905418506E-6
0.0025                    -0.0255                  4.427209658048373E-6
0.0025                    -0.0245                  4.349291303401972E-6
0.0025                    -0.0235                  4.283376501624854E-6
0.0025                    -0.0225                  4.229841176722243E-6
0.0025                    -0.0215                  4.1868474326270276E-6
0.0025                    -0.0205                  4.154125540113868E-6
0.0025                    -0.0195                  4.13054279684182E-6
0.0025                    -0.0185                  4.115190705110812E-6
0.0025                    -0.0175                  4.106923507717419E-6
0.0025                    -0.0165                  4.10463878451042E-6
0.0025                    -0.0155                  4.107370799566106E-6
0.0025                    -0.0145                  4.114443529313287E-6
0.0025                    -0.0135                  4.125464488056131E-6
0.0025                    -0.0125                  4.139211828467632E-6
0.0025                    -0.0115                  4.154886531455851E-6
0.0025                    -0.0105                  4.172324113738858E-6
0.0025                    -0.0095                  4.193532173695541E-6
0.0025                    -0.0085                  4.2226175845044076E-6
0.0025                    -0.0075                  4.263997160991662E-6
0.0025                    -0.0065                  4.3219993064461374E-6
0.0025                    -0.0055                  4.401102109517296E-6
0.0025                    -0.0045                  4.504629389622195E-6
0.0025                    -0.0035                  4.6386464089537495E-6
0.0025                    -0.0025                  4.812456209755039E-6
0.0025                    -0.0015                  5.053112548990759E-6
0.0025                    -5.0E-4                  5.42888039892809E-6
0.0025                    5.0E-4                   6.095459588538446E-6
0.0025                    0.0015                   7.4026086534108525E-6
0.0025                    0.0025                   1.0016769131500485E-5
0.0025                    0.0035                   1.504581574154127E-5
0.0025                    0.0045                   2.4322343936311396E-5
0.0025                    0.0055                   4.14643960947669E-5
0.0025                    0.0065                   7.858993762393746E-5
0.0025                    0.0075                   1.7102079999384298E-4
0.0025                    0.0085                   4.0951990055453953E-4
0.0025                    0.0095                   9.965070188668057E-4
0.0025                    0.0105                   0.0020039987571815335
0.0025                    0.0115                   0.002860936887701134
0.0025                    0.0125                   0.0028498025068091665
0.0025                    0.0135                   0.001739858582005851
0.0025                    0.0145                   0.012939183893641794
0.0025                    0.0155                   0.03136815401066981
0.0025                    0.0165                   0.04377322246408841
0.0025                    0.0175                   0.04229774863873043
0.0025                    0.0185                   0.031021361449095095
0.0025                    0.0195                   0.017602468749154193
0.0025                    0.0205                   0.007349591500268591
0.0025                    0.0215                   0.0023324263142539907
0.0025                    0.0225                   6.834731389093123E-4
0.0025                    0.0235                   1.769107861230576E-4
0.0025                    0.0245                   4.277537113831746E-5
0.0025                    0.0255                   1.5249346110538491E-5
0.0025                    0.0265                   7.946482240821618E-6
0.0025                    0.0275                   5.9210581038046806E-6
0.0025                    0.0285                   5.682026760154497E-6
0.0025                    0.0295                   5.785594852705325E-6
0.0025                    0.0305                   8.016125871233428E-6
0.0025                    0.0315                   5.184008555253767E-6
0.0035                    -0.0315                  2.1341007562733356E-6
0.0035                    -0.0305                  4.180931782889834E-6
0.0035                    -0.0295                  4.564073553162264E-6
0.0035                    -0.0285                  4.994087644740588E-6
0.0035                    -0.0275                  5.066476907601525E-6
0.0035                    -0.0265                  5.025363296206569E-6
0.0035                    -0.0255                  4.924230614508561E-6
0.0035                    -0.0245                  4.810899232017565E-6
0.0035                    -0.0235                  4.701381828101929E-6
0.0035                    -0.0225                  4.6029350601657586E-6
0.0035                    -0.0215                  4.517397220488746E-6
0.0035                    -0.0205                  4.44494309337818E-6
0.0035                    -0.0195                  4.385295310519816E-6
0.0035                    -0.0185                  4.338060059457563E-6
0.0035                    -0.0175                  4.302892246892363E-6
0.0035                    -0.0165                  4.279449657005368E-6
0.0035                    -0.0155                  4.267535916191302E-6
0.0035                    -0.0145                  4.2669065364146935E-6
0.0035                    -0.0135                  4.276809496142922E-6
0.0035                    -0.0125                  4.296081293296503E-6
0.0035                    -0.0115                  4.323411070863418E-6
0.0035                    -0.0105                  4.3583316404411465E-6
0.0035                    -0.0095                  4.402151421838852E-6
0.0035                    -0.0085                  4.458357041433297E-6
0.0035                    -0.0075                  4.531820907096379E-6
0.0035                    -0.0065                  4.627445409979554E-6
0.0035                    -0.0055                  4.7497463334755055E-6
0.0035                    -0.0045                  4.903737127285754E-6
0.0035                    -0.0035                  5.0968039566675556E-6
0.0035                    -0.0025                  5.3483165203488775E-6
0.0035                    -0.0015                  5.713219903824246E-6
0.0035                    -5.0E-4                  6.337182903389685E-6
0.0035                    5.0E-4                   7.5815759786137985E-6
0.0035                    0.0015                   1.0224676812018177E-5
0.0035                    0.0025                   1.5589703328443194E-5
0.0035                    0.0035                   2.5749885398439604E-5
0.0035                    0.0045                   4.4593935422854184E-5
0.0035                    0.0055                   8.486492382761553E-5
0.0035                    0.0065                   1.852509151506302E-4
0.0035                    0.0075                   4.420141054994117E-4
0.0035                    0.0085                   0.0010706336075772367
0.0035                    0.0095                   0.0022064802847121478
0.0035                    0.0105                   0.0032556164664568226
0.0035                    0.0115                   0.00301574389873397
0.0035                    0.0125                   0.0010871913550346357
0.0035                    0.0135                   0.011079618373879394
0.0035                    0.0145                   0.02662119426651081
0.0035                    0.0155                   0.0399345747204183
0.0035                    0.0165                   0.04406989340652557
0.0035                    0.0175                   0.03752426573933379
0.0035                    0.0185                   0.024631232893373708
0.0035                    0.0195                   0.012291822278723025
0.0035                    0.0205                   0.004601873095172894
0.0035                    0.0215                   0.0014391384395704178
0.0035                    0.0225                   4.2650165077864736E-4
0.0035                    0.0235                   1.1552980049861036E-4
0.0035                    0.0245                   3.554306056263281E-5
0.0035                    0.0255                   1.4255828593250431E-5
0.0035                    0.0265                   7.98074773832381E-6
0.0035                    0.0275                   6.023416668328753E-6
0.0035                    0.0285                   5.617277420528983E-6
0.0035                    0.0295                   5.559959756018583E-6
0.0035                    0.0305                   7.811339315381834E-6
0.0035                    0.0315                   5.108891205377448E-6
0.0045                    -0.0315                  2.1713127835404377E-6
0.0045                    -0.0305                  4.165674593150304E-6
0.0045                    -0.0295                  4.504361291339305E-6
0.0045                    -0.0285                  5.052411929694358E-6
0.0045                    -0.0275                  5.259990524476872E-6
0.0045                    -0.0265                  5.310338580042439E-6
0.0045                    -0.0255                  5.250220373195339E-6
0.0045                    -0.0245                  5.1440066866915085E-6
0.0045                    -0.0235                  5.021234332449445E-6
0.0045                    -0.0225                  4.898853498214794E-6
0.0045                    -0.0215                  4.784506975271204E-6
0.0045                    -0.0205                  4.681847742249067E-6
0.0045                    -0.0195                  4.592648334535228E-6
0.0045                    -0.0185                  4.517981628577321E-6
0.0045                    -0.0175                  4.45879302799061E-6
0.0045                    -0.0165                  4.416157759083612E-6
0.0045                    -0.0155                  4.3911696942737805E-6
0.0045                    -0.0145                  4.384641170654529E-6
0.0045                    -0.0135                  4.396670981794907E-6
0.0045                    -0.0125                  4.426251927772846E-6
0.0045                    -0.0115                  4.4715054385767734E-6
0.0045                    -0.0105                  4.53055047521354E-6
0.0045                    -0.0095                  4.602693028321136E-6
0.0045                    -0.0085                  4.689188883887152E-6
0.0045                    -0.0075                  4.793207077754298E-6
0.0045                    -0.0065                  4.919100005586869E-6
0.0045                    -0.0055                  5.071507338903453E-6
0.0045                    -0.0045                  5.255963130224508E-6
0.0045                    -0.0035                  5.484687506946496E-6
0.0045                    -0.0025                  5.793767005915043E-6
0.0045                    -0.0015                  6.287348592135819E-6
0.0045                    -5.0E-4                  7.239315861501314E-6
0.0045                    5.0E-4                   9.300406793213824E-6
0.0045                    0.0015                   1.3920115371343828E-5
0.0045                    0.0025                   2.3839628860147776E-5
0.0045                    0.0035                   4.3248935141172245E-5
0.0045                    0.0045                   8.324902174261903E-5
0.0045                    0.0055                   1.8146977890797048E-4
0.0045                    0.0065                   4.436015571114443E-4
0.0045                    0.0075                   0.0010976193281428076
0.0045                    0.0085                   0.0022800752295977873
0.0045                    0.0095                   0.0033749097922970515
0.0045                    0.0105                   0.00283952758835071
0.0045                    0.0115                   0.0015148445161723722
0.0045                    0.0125                   0.011353498311290245
0.0045                    0.0135                   0.024994923461951927
0.0045                    0.0145                   0.03727325508437741
0.0045                    0.0155                   0.04322459209550257
0.0045                    0.0165                   0.040736560483569266
0.0045                    0.0175                   0.03040670612035682
0.0045                    0.0185                   0.017306787049527886
0.0045                    0.0195                   0.007529898941438432
0.0045                    0.0205                   0.0026223016643741855
0.0045                    0.0215                   8.573293290481361E-4
0.0045                    0.0225                   2.4505345829877237E-4
0.0045                    0.0235                   6.647004506183207E-5
0.0045                    0.0245                   2.605433407531848E-5
0.0045                    0.0255                   1.2456973878851927E-5
0.0045                    0.0265                   7.751788978613828E-6
0.0045                    0.0275                   6.0675750259843985E-6
0.0045                    0.0285                   5.665494606185682E-6
0.0045                    0.0295                   5.61663690545158E-6
0.0045                    0.0305                   7.874264631777174E-6
0.0045                    0.0315                   5.136633342453969E-6
0.0055                    -0.0315                  2.205356113588285E-6
0.0055                    -0.0305                  4.161843898288992E-6
0.0055                    -0.0295                  4.43045373967416E-6
0.0055                    -0.0285                  5.024198261892636E-6
0.0055                    -0.0275                  5.331791538887392E-6
0.0055                    -0.0265                  5.490296850973662E-6
0.0055                    -0.0255                  5.509709661063E-6
0.0055                    -0.0245                  5.449863384027256E-6
0.0055                    -0.0235                  5.347451205076625E-6
0.0055                    -0.0225                  5.227781172386602E-6
0.0055                    -0.0215                  5.105272755795536E-6
0.0055                    -0.0205                  4.988353653773223E-6
0.0055                    -0.0195                  4.882066251029518E-6
0.0055                    -0.0185                  4.78985737793973E-6
0.0055                    -0.0175                  4.714520073066424E-6
0.0055                    -0.0165                  4.658745685420398E-6
0.0055                    -0.0155                  4.6253218841630096E-6
0.0055                    -0.0145                  4.6168821901335066E-6
0.0055                    -0.0135                  4.6352186689412294E-6
0.0055                    -0.0125                  4.680430817746409E-6
0.0055                    -0.0115                  4.750403318083785E-6
0.0055                    -0.0105                  4.841190452786435E-6
0.0055                    -0.0095                  4.948352113737009E-6
0.0055                    -0.0085                  5.068663764381304E-6
0.0055                    -0.0075                  5.20128201212914E-6
0.0055                    -0.0065                  5.347848831072357E-6
0.0055                    -0.0055                  5.51225507037927E-6
0.0055                    -0.0045                  5.70266223888526E-6
0.0055                    -0.0035                  5.941362714557819E-6
0.0055                    -0.0025                  6.29425480406304E-6
0.0055                    -0.0015                  6.943357832959014E-6
0.0055                    -5.0E-4                  8.34846766792299E-6
0.0055                    5.0E-4                   1.1525346287822172E-5
0.0055                    0.0015                   1.8499479605460093E-5
0.0055                    0.0025                   3.421829261491033E-5
0.0055                    0.0035                   7.086527803765061E-5
0.0055                    0.0045                   1.5730998925570262E-4
0.0055                    0.0055                   3.965087668733501E-4
0.0055                    0.0065                   0.0010346802194384779
0.0055                    0.0075                   0.002205792487624405
0.0055                    0.0085                   0.003229797110262776
0.0055                    0.0095                   0.0022621016157106104
0.0055                    0.0105                   0.0028977370205682316
0.0055                    0.0115                   0.01278065088526431
0.0055                    0.0125                   0.02525535082050996
0.0055                    0.0135                   0.036187136762035776
0.0055                    0.0145                   0.04220248989619426
0.0055                    0.0155                   0.04157216832926384
0.0055                    0.0165                   0.03391758703915707
0.0055                    0.0175                   0.021572725879017915
0.0055                    0.0185                   0.010409387337305762
0.0055                    0.0195                   0.004045345964935004
0.0055                    0.0205                   0.001420293881665269
0.0055                    0.0215                   5.008027195915204E-4
0.0055                    0.0225                   1.540712688714593E-4
0.0055                    0.0235                   4.642272994165595E-5
0.0055                    0.0245                   1.9552678959081003E-5
0.0055                    0.0255                   1.0681180856865393E-5
0.0055                    0.0265                   7.361322316667776E-6
0.0055                    0.0275                   6.092485592521919E-6
0.0055                    0.0285                   5.802182979764241E-6
0.0055                    0.0295                   5.763909569338708E-6
0.0055                    0.0305                   8.032049462452938E-6
0.0055                    0.0315                   5.23104686239235E-6
0.0065                    -0.0315                  2.2350209634139875E-6
0.0065                    -0.0305                  4.161328490725804E-6
0.0065                    -0.0295                  4.354634959933538E-6
0.0065                    -0.0285                  4.951510308967758E-6
0.0065                    -0.0275                  5.3103262172991775E-6
0.0065                    -0.0265                  5.55149377122893E-6
0.0065                    -0.0255                  5.6537905436839275E-6
0.0065                    -0.0245                  5.658489201411571E-6
0.0065                    -0.0235                  5.598062205528709E-6
0.0065                    -0.0225                  5.501125169472256E-6
0.0065                    -0.0215                  5.387081197267085E-6
0.0065                    -0.0205                  5.2690027217284575E-6
0.0065                    -0.0195                  5.155657710781177E-6
0.0065                    -0.0185                  5.053359992174218E-6
0.0065                    -0.0175                  4.967149713104656E-6
0.0065                    -0.0165                  4.901580215471435E-6
0.0065                    -0.0155                  4.861205990006279E-6
0.0065                    -0.0145                  4.8506688515443065E-6
0.0065                    -0.0135                  4.874137382879404E-6
0.0065                    -0.0125                  4.934040715848877E-6
0.0065                    -0.0115                  5.029551272004444E-6
0.0065                    -0.0105                  5.155719202644113E-6
0.0065                    -0.0095                  5.304152720482485E-6
0.0065                    -0.0085                  5.465349796888216E-6
0.0065                    -0.0075                  5.63167281258055E-6
0.0065                    -0.0065                  5.799722975418575E-6
0.0065                    -0.0055                  5.9722759090853396E-6