% Model:              Benchmark260518.mph
% Version:            COMSOL 6.2.0.339
% Date:               May 19 2026, 00:14
% Dimension:          2
% Nodes:              4096
% Expressions:        1
% Description:        速度大小
% Length unit:        m
% x                       y                        spf.U (m/s)
5.0E-4                    -0.0315                  1.3063810989906905E-6
5.0E-4                    -0.0305                  2.661271435775967E-6
5.0E-4                    -0.0295                  3.0202748991318634E-6
5.0E-4                    -0.0285                  3.358782304875895E-6
5.0E-4                    -0.0275                  3.5559682864636166E-6
5.0E-4                    -0.0265                  3.7344336074041027E-6
5.0E-4                    -0.0255                  3.854591109662599E-6
5.0E-4                    -0.0245                  3.9648606569325066E-6
5.0E-4                    -0.0235                  4.077132807641669E-6
5.0E-4                    -0.0225                  4.184310728599576E-6
5.0E-4                    -0.0215                  4.291519075208872E-6
5.0E-4                    -0.0205                  4.4147643334463006E-6
5.0E-4                    -0.0195                  4.577256648058523E-6
5.0E-4                    -0.0185                  4.8040612363701465E-6
5.0E-4                    -0.0175                  5.172185261433784E-6
5.0E-4                    -0.0165                  5.874147576050189E-6
5.0E-4                    -0.0155                  7.061075127109481E-6
5.0E-4                    -0.0145                  9.797533363155499E-6
5.0E-4                    -0.0135                  1.8331488664791697E-5
5.0E-4                    -0.0125                  4.5894208469264175E-5
5.0E-4                    -0.0115                  1.4417265655519124E-4
5.0E-4                    -0.0105                  3.360801998607006E-4
5.0E-4                    -0.0095                  5.742581731033122E-4
5.0E-4                    -0.0085                  9.777871010994618E-4
5.0E-4                    -0.0075                  0.001870950050759789
5.0E-4                    -0.0065                  0.003258271472606025
5.0E-4                    -0.0055                  0.0047569422144901905
5.0E-4                    -0.0045                  0.005903091281883519
5.0E-4                    -0.0035                  0.006339228927238055
5.0E-4                    -0.0025                  0.005922726692005047
5.0E-4                    -0.0015                  0.00479088755345631
5.0E-4                    -5.0E-4                  0.003311871268706051
5.0E-4                    5.0E-4                   0.0020724456652522565
5.0E-4                    0.0015                   0.002843812563363818
5.0E-4                    0.0025                   0.004592287017160197
5.0E-4                    0.0035                   0.00506046681277989
5.0E-4                    0.0045                   0.004135745583340142
5.0E-4                    0.0055                   0.0034962148638587143
5.0E-4                    0.0065                   0.03625028296404653
5.0E-4                    0.0075                   0.07287658231816745
5.0E-4                    0.0085                   0.06894076865097822
5.0E-4                    0.0095                   0.031018676817878822
5.0E-4                    0.0105                   0.0013384685951414131
5.0E-4                    0.0115                   9.432214396447263E-4
5.0E-4                    0.0125                   3.7540052955758096E-4
5.0E-4                    0.0135                   1.684764886283865E-4
5.0E-4                    0.0145                   5.952786166018399E-5
5.0E-4                    0.0155                   2.2070548929501504E-5
5.0E-4                    0.0165                   1.1782550214451539E-5
5.0E-4                    0.0175                   6.817281135078316E-6
5.0E-4                    0.0185                   4.4786959829447924E-6
5.0E-4                    0.0195                   3.2919439299907107E-6
5.0E-4                    0.0205                   2.6687462698284007E-6
5.0E-4                    0.0215                   2.37733902552107E-6
5.0E-4                    0.0225                   2.2873751381549343E-6
5.0E-4                    0.0235                   2.273145032603889E-6
5.0E-4                    0.0245                   2.2451158987499848E-6
5.0E-4                    0.0255                   2.1921155882252984E-6
5.0E-4                    0.0265                   2.14330348663988E-6
5.0E-4                    0.0275                   2.0864678189102853E-6
5.0E-4                    0.0285                   2.019022974921938E-6
5.0E-4                    0.0295                   1.942403055662167E-6
5.0E-4                    0.0305                   1.8864175978739833E-6
5.0E-4                    0.0315                   9.63688177160244E-7
0.0015                    -0.0315                  2.554276777212466E-6
0.0015                    -0.0305                  5.14596754240609E-6
0.0015                    -0.0295                  5.633721279400494E-6
0.0015                    -0.0285                  6.01906483186337E-6
0.0015                    -0.0275                  6.146654971049131E-6
0.0015                    -0.0265                  6.255174660148402E-6
0.0015                    -0.0255                  6.314021396011222E-6
0.0015                    -0.0245                  6.374827180711017E-6
0.0015                    -0.0235                  6.45039518225093E-6
0.0015                    -0.0225                  6.533687654703336E-6
0.0015                    -0.0215                  6.6316823881412915E-6
0.0015                    -0.0205                  6.7687050993793785E-6
0.0015                    -0.0195                  6.986045567405493E-6
0.0015                    -0.0185                  7.348637068140835E-6
0.0015                    -0.0175                  8.018511703486141E-6
0.0015                    -0.0165                  9.359795520934984E-6
0.0015                    -0.0155                  1.2008438489274976E-5
0.0015                    -0.0145                  1.839002886817618E-5
0.0015                    -0.0135                  3.6442311988578114E-5
0.0015                    -0.0125                  9.227071885663006E-5
0.0015                    -0.0115                  3.001072545522612E-4
0.0015                    -0.0105                  7.71498596472722E-4
0.0015                    -0.0095                  0.001753861267824308
0.0015                    -0.0085                  0.003864545152827955
0.0015                    -0.0075                  0.007163284172148024
0.0015                    -0.0065                  0.01081931584361557
0.0015                    -0.0055                  0.013978997990922419
0.0015                    -0.0045                  0.016109781178075856
0.0015                    -0.0035                  0.01700831841502861
0.0015                    -0.0025                  0.016696017676875983
0.0015                    -0.0015                  0.015360137485053205
0.0015                    -5.0E-4                  0.01321395679096185
0.0015                    5.0E-4                   0.010138136954077897
0.0015                    0.0015                   0.006023426966572743
0.0015                    0.0025                   0.003660047971541638
0.0015                    0.0035                   0.005819778902380966
0.0015                    0.0045                   0.006316792087292809
0.0015                    0.0055                   0.008849004033492107
0.0015                    0.0065                   0.041147194809087816
0.0015                    0.0075                   0.07104009160580665
0.0015                    0.0085                   0.06649129430091567
0.0015                    0.0095                   0.03264252425289591
0.0015                    0.0105                   0.003301706905366965
0.0015                    0.0115                   0.0025312045856048324
0.0015                    0.0125                   0.0013015252122727462
0.0015                    0.0135                   6.058122896334553E-4
0.0015                    0.0145                   2.4218078261176214E-4
0.0015                    0.0155                   9.268905493442755E-5
0.0015                    0.0165                   3.974265274286517E-5
0.0015                    0.0175                   2.1603696748874355E-5
0.0015                    0.0185                   1.354106964148926E-5
0.0015                    0.0195                   9.063488749019036E-6
0.0015                    0.0205                   6.584712946337941E-6
0.0015                    0.0215                   5.299034128713502E-6
0.0015                    0.0225                   4.671137648832294E-6
0.0015                    0.0235                   4.3551224494204905E-6
0.0015                    0.0245                   4.159123417688629E-6
0.0015                    0.0255                   4.02944138288049E-6
0.0015                    0.0265                   3.969887829017894E-6
0.0015                    0.0275                   3.94683194242E-6
0.0015                    0.0285                   3.940993509401599E-6
0.0015                    0.0295                   3.863404874642637E-6
0.0015                    0.0305                   3.734056908983665E-6
0.0015                    0.0315                   1.898050948451103E-6
0.0025                    -0.0315                  2.6274527368187843E-6
0.0025                    -0.0305                  5.202152137772138E-6
0.0025                    -0.0295                  5.55992030916544E-6
0.0025                    -0.0285                  5.805471117162159E-6
0.0025                    -0.0275                  5.697081170218245E-6
0.0025                    -0.0265                  5.528523949140955E-6
0.0025                    -0.0255                  5.346557553935445E-6
0.0025                    -0.0245                  5.18320314120889E-6
0.0025                    -0.0235                  5.048612529454048E-6
0.0025                    -0.0225                  4.948532667191148E-6
0.0025                    -0.0215                  4.891599474687703E-6
0.0025                    -0.0205                  4.902049828450167E-6
0.0025                    -0.0195                  5.033172476338394E-6
0.0025                    -0.0185                  5.398807336181078E-6
0.0025                    -0.0175                  6.2438593272016565E-6
0.0025                    -0.0165                  8.109226511206623E-6
0.0025                    -0.0155                  1.2425914739867786E-5
0.0025                    -0.0145                  2.2931788828422363E-5
0.0025                    -0.0135                  5.1428258041151505E-5
0.0025                    -0.0125                  1.330277508962737E-4
0.0025                    -0.0115                  4.5964752496262273E-4
0.0025                    -0.0105                  0.0014680164556314921
0.0025                    -0.0095                  0.004061247686179419
0.0025                    -0.0085                  0.008537437951753827
0.0025                    -0.0075                  0.013466508199272394
0.0025                    -0.0065                  0.017308932904971746
0.0025                    -0.0055                  0.019736714304198332
0.0025                    -0.0045                  0.021121894448709964
0.0025                    -0.0035                  0.021940265825620163
0.0025                    -0.0025                  0.022538858814457705
0.0025                    -0.0015                  0.023040607296554456
0.0025                    -5.0E-4                  0.02323040118216529
0.0025                    5.0E-4                   0.022467126715165393
0.0025                    0.0015                   0.01976167315601561
0.0025                    0.0025                   0.014373859431456842
0.0025                    0.0035                   0.007449453950788967
0.0025                    0.0045                   0.004376705835157464
0.0025                    0.0055                   0.015313126823485238
0.0025                    0.0065                   0.04447254928309585
0.0025                    0.0075                   0.06683678447692616
0.0025                    0.0085                   0.0626806821683086
0.0025                    0.0095                   0.034281147563215854
0.0025                    0.0105                   0.005423730741918511
0.0025                    0.0115                   0.003911571989672187
0.0025                    0.0125                   0.0030140648974575266
0.0025                    0.0135                   0.0016518311687361382
0.0025                    0.0145                   6.63307764971001E-4
0.0025                    0.0155                   2.3663651864718057E-4
0.0025                    0.0165                   9.003634291498753E-5
0.0025                    0.0175                   4.820003019573858E-5
0.0025                    0.0185                   2.7827278303449682E-5
0.0025                    0.0195                   1.6560162490575998E-5
0.0025                    0.0205                   1.0516500783014727E-5
0.0025                    0.0215                   7.361305444437044E-6
0.0025                    0.0225                   5.7340797945907115E-6
0.0025                    0.0235                   4.879842169638557E-6
0.0025                    0.0245                   4.429921833206007E-6
0.0025                    0.0255                   4.22711417300475E-6
0.0025                    0.0265                   4.191966682502575E-6
0.0025                    0.0275                   4.25308311177731E-6
0.0025                    0.0285                   4.3332805053122845E-6
0.0025                    0.0295                   4.191269417365102E-6
0.0025                    0.0305                   3.908449263899078E-6
0.0025                    0.0315                   1.9697710234078788E-6
0.0035                    -0.0315                  2.7599713220724164E-6
0.0035                    -0.0305                  5.336531801708116E-6
0.0035                    -0.0295                  5.7247207055265526E-6
0.0035                    -0.0285                  6.188666574542847E-6
0.0035                    -0.0275                  6.190040884413103E-6
0.0035                    -0.0265                  6.033435378114995E-6
0.0035                    -0.0255                  5.798499826231777E-6
0.0035                    -0.0245                  5.555532431613743E-6
0.0035                    -0.0235                  5.333248387524042E-6
0.0035                    -0.0225                  5.151805896816345E-6
0.0035                    -0.0215                  5.032679190899813E-6
0.0035                    -0.0205                  5.017982649951103E-6
0.0035                    -0.0195                  5.199887303108471E-6
0.0035                    -0.0185                  5.778029324681786E-6
0.0035                    -0.0175                  7.193319416249135E-6
0.0035                    -0.0165                  1.0511126286792257E-5
0.0035                    -0.0155                  1.840314329046035E-5
0.0035                    -0.0145                  3.874786972103549E-5
0.0035                    -0.0135                  9.50839558990516E-5
0.0035                    -0.0125                  2.885357516665725E-4
0.0035                    -0.0115                  9.492342571875136E-4
0.0035                    -0.0105                  0.0031892263289564813
0.0035                    -0.0095                  0.008009074688219592
0.0035                    -0.0085                  0.01379446731094187
0.0035                    -0.0075                  0.017944051528578888
0.0035                    -0.0065                  0.019895644599343534
0.0035                    -0.0055                  0.020447014786788807
0.0035                    -0.0045                  0.020436291275441346
0.0035                    -0.0035                  0.02053821436527652
0.0035                    -0.0025                  0.02131854383867397
0.0035                    -0.0015                  0.02305260828899688
0.0035                    -5.0E-4                  0.025496492321071013
0.0035                    5.0E-4                   0.02788850996366312
0.0035                    0.0015                   0.029101588376777822
0.0035                    0.0025                   0.027929170283765972
0.0035                    0.0035                   0.024048714675882325
0.0035                    0.0045                   0.020075432934446934
0.0035                    0.0055                   0.024547742606249607
0.0035                    0.0065                   0.043615059147636324
0.0035                    0.0075                   0.058620326656330685
0.0035                    0.0085                   0.056380346629846194
0.0035                    0.0095                   0.036728684624565494
0.0035                    0.0105                   0.011401244054819846
0.0035                    0.0115                   0.0022048632812551074
0.0035                    0.0125                   0.004474171608746414
0.0035                    0.0135                   0.003462690106866258
0.0035                    0.0145                   0.0017558275219926069
0.0035                    0.0155                   6.314216877548561E-4
0.0035                    0.0165                   2.3923617242755323E-4
0.0035                    0.0175                   1.1368874524070376E-4
0.0035                    0.0185                   5.428855131141493E-5
0.0035                    0.0195                   2.943716738612445E-5
0.0035                    0.0205                   1.697105242120092E-5
0.0035                    0.0215                   1.0671529661527982E-5
0.0035                    0.0225                   7.619564178179691E-6
0.0035                    0.0235                   6.199797659451999E-6
0.0035                    0.0245                   5.537378802055151E-6
0.0035                    0.0255                   5.241194976754436E-6
0.0035                    0.0265                   5.134580787265929E-6
0.0035                    0.0275                   5.094494139930288E-6
0.0035                    0.0285                   4.995582350623712E-6
0.0035                    0.0295                   4.577097798969272E-6
0.0035                    0.0305                   4.101265166182552E-6
0.0035                    0.0315                   2.06838853305313E-6
0.0045                    -0.0315                  2.8380515322852946E-6
0.0045                    -0.0305                  5.353241620675449E-6
0.0045                    -0.0295                  5.6662694235097715E-6
0.0045                    -0.0285                  6.278146966507504E-6
0.0045                    -0.0275                  6.446455858537249E-6
0.0045                    -0.0265                  6.3919528794315495E-6
0.0045                    -0.0255                  6.183005569063661E-6
0.0045                    -0.0245                  5.915919866655331E-6
0.0045                    -0.0235                  5.648301623847918E-6
0.0045                    -0.0225                  5.42707904650067E-6
0.0045                    -0.0215                  5.300242405371213E-6
0.0045                    -0.0205                  5.3445066463421225E-6
0.0045                    -0.0195                  5.719103133846205E-6
0.0045                    -0.0185                  6.776055646481614E-6
0.0045                    -0.0175                  9.34149792394746E-6
0.0045                    -0.0165                  1.541823858741658E-5
0.0045                    -0.0155                  3.078951582546732E-5
0.0045                    -0.0145                  7.27201456351922E-5
0.0045                    -0.0135                  2.1222952535606996E-4
0.0045                    -0.0125                  6.664143452526306E-4
0.0045                    -0.0115                  0.0020769573573959695
0.0045                    -0.0105                  0.006165953650763284
0.0045                    -0.0095                  0.012754921167463691
0.0045                    -0.0085                  0.018086729117465995
0.0045                    -0.0075                  0.019978615222673347
0.0045                    -0.0065                  0.019310997483917364
0.0045                    -0.0055                  0.017371611564792725
0.0045                    -0.0045                  0.015236307751060716
0.0045                    -0.0035                  0.01386311057632971
0.0045                    -0.0025                  0.013889677105237898
0.0045                    -0.0015                  0.015589716174244228
0.0045                    -5.0E-4                  0.018880641878950534
0.0045                    5.0E-4                   0.02330143036232166
0.0045                    0.0015                   0.027964160133534834
0.0045                    0.0025                   0.031579269298618616
0.0045                    0.0035                   0.0327959114881747
0.0045                    0.0045                   0.031140516618264
0.0045                    0.0055                   0.029649178315821555
0.0045                    0.0065                   0.03629417920660057
0.0045                    0.0075                   0.045535105150767384
0.0045                    0.0085                   0.04705804794207298
0.0045                    0.0095                   0.03904121143762875
0.0045                    0.0105                   0.023683139897523325
0.0045                    0.0115                   0.009095829406409038
0.0045                    0.0125                   0.0010219383774586325
0.0045                    0.0135                   0.0035711136118038228
0.0045                    0.0145                   0.0031557657662617165
0.0045                    0.0155                   0.0015765224989386195
0.0045                    0.0165                   5.886367008679407E-4
0.0045                    0.0175                   2.3085590791573746E-4
0.0045                    0.0185                   1.0044663464454858E-4
0.0045                    0.0195                   5.0103533914271496E-5
0.0045                    0.0205                   2.680148780447815E-5
0.0045                    0.0215                   1.526908250404975E-5
0.0045                    0.0225                   9.994072926235115E-6
0.0045                    0.0235                   7.698018056839533E-6
0.0045                    0.0245                   6.69782890218352E-6
0.0045                    0.0255                   6.24543207356203E-6
0.0045                    0.0265                   6.001097770033495E-6
0.0045                    0.0275                   5.776412180953727E-6
0.0045                    0.0285                   5.437333700636678E-6
0.0045                    0.0295                   4.788168490306763E-6
0.0045                    0.0305                   4.213871857753561E-6
0.0045                    0.0315                   2.1399762614105963E-6
0.0055                    -0.0315                  2.8618200681069432E-6
0.0055                    -0.0305                  5.343846061401423E-6
0.0055                    -0.0295                  5.625890245775986E-6
0.0055                    -0.0285                  6.3292983676224585E-6
0.0055                    -0.0275                  6.64779383088322E-6
0.0055                    -0.0265                  6.7411828961032895E-6
0.0055                    -0.0255                  6.633017413934308E-6
0.0055                    -0.0245                  6.4203188413993026E-6
0.0055                    -0.0235                  6.18792245526371E-6
0.0055                    -0.0225                  6.022799309584932E-6
0.0055                    -0.0215                  6.021256439133958E-6
0.0055                    -0.0205                  6.32425839928761E-6
0.0055                    -0.0195                  7.209757808687277E-6
0.0055                    -0.0185                  9.316582729980484E-6
0.0055                    -0.0175                  1.4146052739578981E-5
0.0055                    -0.0165                  2.59162196732541E-5
0.0055                    -0.0155                  5.7300151020846263E-5
0.0055                    -0.0145                  1.577172342962033E-4
0.0055                    -0.0135                  4.843385216236731E-4
0.0055                    -0.0125                  0.0013896731996596659
0.0055                    -0.0115                  0.004146658517681348
0.0055                    -0.0105                  0.010184539042065765
0.0055                    -0.0095                  0.017167517318260297
0.0055                    -0.0085                  0.02062189645337465
0.0055                    -0.0075                  0.01971470325695144
0.0055                    -0.0065                  0.016155699902628873
0.0055                    -0.0055                  0.011713602915426937
0.0055                    -0.0045                  0.00804257385622264
0.0055                    -0.0035                  0.005992647878528889
0.0055                    -0.0025                  0.005535714590245805
0.0055                    -0.0015                  0.006412963313039811
0.0055                    -5.0E-4                  0.008553449333774946
0.0055                    5.0E-4                   0.011971400649881357
0.0055                    0.0015                   0.016490632908859267
0.0055                    0.0025                   0.021507179354428953
0.0055                    0.0035                   0.025850675529076127
0.0055                    0.0045                   0.027701502101660728
0.0055                    0.0055                   0.025804721725532855
0.0055                    0.0065                   0.024377805580530258
0.0055                    0.0075                   0.029218360431974295
0.0055                    0.0085                   0.03619938624932787
0.0055                    0.0095                   0.03970241271953519
0.0055                    0.0105                   0.03611245223629093
0.0055                    0.0115                   0.02675437944420433
0.0055                    0.0125                   0.015352024865875063
0.0055                    0.0135                   0.005884300189978284
0.0055                    0.0145                   0.0017223223856927053
0.0055                    0.0155                   0.0021291051454219788
0.0055                    0.0165                   0.0011586129911370943
0.0055                    0.0175                   3.882710892049628E-4
0.0055                    0.0185                   1.553124927671012E-4
0.0055                    0.0195                   8.049165664805677E-5
0.0055                    0.0205                   4.017463357093287E-5
0.0055                    0.0215                   2.1644947588807152E-5
0.0055                    0.0225                   1.3345083731173511E-5
0.0055                    0.0235                   9.61076880932537E-6
0.0055                    0.0245                   8.019373575729235E-6
0.0055                    0.0255                   7.300276915736082E-6
0.0055                    0.0265                   6.8596381092332335E-6
0.0055                    0.0275                   6.423770222842131E-6
0.0055                    0.0285                   5.865295882633941E-6
0.0055                    0.0295                   5.037933478283295E-6
0.0055                    0.0305                   4.371132647542597E-6
0.0055                    0.0315                   2.2212622321212685E-6
0.0065                    -0.0315                  2.8592684642414203E-6
0.0065                    -0.0305                  5.320372914074235E-6
0.0065                    -0.0295                  5.592199717434051E-6
0.0065                    -0.0285                  6.351830043931351E-6
0.0065                    -0.0275                  6.785488292185914E-6
0.0065                    -0.0265                  7.030907198381692E-6
0.0065                    -0.0255                  7.079669767524216E-6
0.0065                    -0.0245                  7.020686716640157E-6
0.0065                    -0.0235                  6.966823233069942E-6
0.0065                    -0.0225                  7.070093787449355E-6
0.0065                    -0.0215                  7.514423689602903E-6
0.0065                    -0.0205                  8.551213677576092E-6
0.0065                    -0.0195                  1.0667279878621023E-5
0.0065                    -0.0185                  1.4991037193684963E-5
0.0065                    -0.0175                  2.4715960537800618E-5
0.0065                    -0.0165                  4.890912889153293E-5
0.0065                    -0.0155                  1.2314057121595587E-4
0.0065                    -0.0145                  3.5586622367440266E-4
0.0065                    -0.0135                  9.832888413141261E-4
0.0065                    -0.0125                  0.002752139360631908
0.0065                    -0.0115                  0.007351180291326359
0.0065                    -0.0105                  0.01459428927076999
0.0065                    -0.0095                  0.020345908971704515
0.0065                    -0.0085                  0.021075692271380397
0.0065                    -0.0075                  0.01729416802504059
0.0065                    -0.0065                  0.011487690763046865
0.0065                    -0.0055                  0.006249184496912388
0.0065                    -0.0045                  0.003101056729614368