% Model:              Benchmark260518.mph
% Version:            COMSOL 6.2.0.339
% Date:               May 19 2026, 10:47
% Dimension:          2
% Nodes:              4096
% Expressions:        1
% Description:        速度大小
% Length unit:        m
% x                       y                        spf.U (m/s)
5.0E-4                    -0.0315                  1.0301136074209305E-6
5.0E-4                    -0.0305                  2.0732992534422802E-6
5.0E-4                    -0.0295                  2.2945473642535526E-6
5.0E-4                    -0.0285                  2.5494750891307858E-6
5.0E-4                    -0.0275                  2.7297456233397715E-6
5.0E-4                    -0.0265                  2.8819660810134257E-6
5.0E-4                    -0.0255                  2.996830005200295E-6
5.0E-4                    -0.0245                  3.0900381881872376E-6
5.0E-4                    -0.0235                  3.1698903106779933E-6
5.0E-4                    -0.0225                  3.2364091933259335E-6
5.0E-4                    -0.0215                  3.2862082533464777E-6
5.0E-4                    -0.0205                  3.3258310715190988E-6
5.0E-4                    -0.0195                  3.368851017272742E-6
5.0E-4                    -0.0185                  3.4241781698609917E-6
5.0E-4                    -0.0175                  3.485937287150586E-6
5.0E-4                    -0.0165                  3.5429039825316028E-6
5.0E-4                    -0.0155                  3.5871827003725984E-6
5.0E-4                    -0.0145                  3.613257791412914E-6
5.0E-4                    -0.0135                  3.6179333452508232E-6
5.0E-4                    -0.0125                  3.5909423592602846E-6
5.0E-4                    -0.0115                  3.53612521858743E-6
5.0E-4                    -0.0105                  3.4600572014177446E-6
5.0E-4                    -0.0095                  3.3814420898407688E-6
5.0E-4                    -0.0085                  3.3415493340812518E-6
5.0E-4                    -0.0075                  3.3007993136136196E-6
5.0E-4                    -0.0065                  3.457662077731564E-6
5.0E-4                    -0.0055                  4.45590177513306E-6
5.0E-4                    -0.0045                  7.306354790358671E-6
5.0E-4                    -0.0035                  1.3921623325209471E-5
5.0E-4                    -0.0025                  2.737151962002892E-5
5.0E-4                    -0.0015                  5.1818746185723085E-5
5.0E-4                    -5.0E-4                  8.35806599591995E-5
5.0E-4                    5.0E-4                   2.492677722889503E-4
5.0E-4                    0.0015                   5.694910643227713E-4
5.0E-4                    0.0025                   0.0012062577082223688
5.0E-4                    0.0035                   0.00405792630385038
5.0E-4                    0.0045                   0.025636615312643257
5.0E-4                    0.0055                   0.041730548913227875
5.0E-4                    0.0065                   0.03785298358573068
5.0E-4                    0.0075                   0.028643618706824286
5.0E-4                    0.0085                   0.017339048186279012
5.0E-4                    0.0095                   0.007804342465784319
5.0E-4                    0.0105                   0.002252572006399329
5.0E-4                    0.0115                   4.400255978332979E-4
5.0E-4                    0.0125                   4.616972835033669E-5
5.0E-4                    0.0135                   1.737254837553108E-5
5.0E-4                    0.0145                   9.118483816139019E-6
5.0E-4                    0.0155                   7.0691289848431255E-6
5.0E-4                    0.0165                   6.6898264529579025E-6
5.0E-4                    0.0175                   6.406038457754469E-6
5.0E-4                    0.0185                   6.30294380722757E-6
5.0E-4                    0.0195                   6.2175911376768334E-6
5.0E-4                    0.0205                   6.143927028948207E-6
5.0E-4                    0.0215                   6.0464514896931535E-6
5.0E-4                    0.0225                   5.934295273316428E-6
5.0E-4                    0.0235                   5.8146412748206654E-6
5.0E-4                    0.0245                   5.670883543893077E-6
5.0E-4                    0.0255                   5.5015983029969535E-6
5.0E-4                    0.0265                   5.307817459905304E-6
5.0E-4                    0.0275                   5.0650313624348776E-6
5.0E-4                    0.0285                   4.813067218280394E-6
5.0E-4                    0.0295                   4.332710558872336E-6
5.0E-4                    0.0305                   3.902958849140519E-6
5.0E-4                    0.0315                   1.963841905604973E-6
0.0015                    -0.0315                  2.0211138674473173E-6
0.0015                    -0.0305                  4.042798284858902E-6
0.0015                    -0.0295                  4.363241528250868E-6
0.0015                    -0.0285                  4.66505725203573E-6
0.0015                    -0.0275                  4.807871163492912E-6
0.0015                    -0.0265                  4.926888972875675E-6
0.0015                    -0.0255                  5.012012225066146E-6
0.0015                    -0.0245                  5.083534181004931E-6
0.0015                    -0.0235                  5.14929568071593E-6
0.0015                    -0.0225                  5.208986550850895E-6
0.0015                    -0.0215                  5.259384940371915E-6
0.0015                    -0.0205                  5.307924750669264E-6
0.0015                    -0.0195                  5.3691015223723305E-6
0.0015                    -0.0185                  5.451213419463532E-6
0.0015                    -0.0175                  5.54585156986034E-6
0.0015                    -0.0165                  5.637180235765532E-6
0.0015                    -0.0155                  5.711628830278581E-6
0.0015                    -0.0145                  5.758801445677701E-6
0.0015                    -0.0135                  5.7725495796076705E-6
0.0015                    -0.0125                  5.7453862209914255E-6
0.0015                    -0.0115                  5.688427795570384E-6
0.0015                    -0.0105                  5.621755023839139E-6
0.0015                    -0.0095                  5.585096685732894E-6
0.0015                    -0.0085                  5.648158772001862E-6
0.0015                    -0.0075                  5.861369706749461E-6
0.0015                    -0.0065                  6.673855555082397E-6
0.0015                    -0.0055                  9.32302475196652E-6
0.0015                    -0.0045                  1.60196797333995E-5
0.0015                    -0.0035                  3.177228982591712E-5
0.0015                    -0.0025                  6.680477860324852E-5
0.0015                    -0.0015                  1.2832019727794495E-4
0.0015                    -5.0E-4                  2.944606719318696E-4
0.0015                    5.0E-4                   8.296958396076426E-4
0.0015                    0.0015                   0.0016402592225107197
0.0015                    0.0025                   0.0013883461242412804
0.0015                    0.0035                   0.011940512024032363
0.0015                    0.0045                   0.033112681241384154
0.0015                    0.0055                   0.042294916626155546
0.0015                    0.0065                   0.036882243841513014
0.0015                    0.0075                   0.026283849870567505
0.0015                    0.0085                   0.014421118565246784
0.0015                    0.0095                   0.005647073682334017
0.0015                    0.0105                   0.0015608731888040607
0.0015                    0.0115                   3.728958786692658E-4
0.0015                    0.0125                   8.071993932240924E-5
0.0015                    0.0135                   2.802475986034358E-5
0.0015                    0.0145                   1.4870216129691487E-5
0.0015                    0.0155                   1.1211008430325595E-5
0.0015                    0.0165                   1.0319881336864521E-5
0.0015                    0.0175                   9.918766007538205E-6
0.0015                    0.0185                   9.772284600403685E-6
0.0015                    0.0195                   9.673170851492583E-6
0.0015                    0.0205                   9.587440103749176E-6
0.0015                    0.0215                   9.48025218680048E-6
0.0015                    0.0225                   9.362135767040225E-6
0.0015                    0.0235                   9.2437947289406E-6
0.0015                    0.0245                   9.113297187213624E-6
0.0015                    0.0255                   8.971519910996441E-6
0.0015                    0.0265                   8.823253478794573E-6
0.0015                    0.0275                   8.64521609835658E-6
0.0015                    0.0285                   8.480096608654809E-6
0.0015                    0.0295                   7.975938282699276E-6
0.0015                    0.0305                   7.5228714276847645E-6
0.0015                    0.0315                   3.8402187570652066E-6
0.0025                    -0.0315                  2.1038227009555347E-6
0.0025                    -0.0305                  4.152070671308391E-6
0.0025                    -0.0295                  4.42094559363535E-6
0.0025                    -0.0285                  4.637489862313801E-6
0.0025                    -0.0275                  4.596807427601846E-6
0.0025                    -0.0265                  4.522588370937085E-6
0.0025                    -0.0255                  4.435918086189865E-6
0.0025                    -0.0245                  4.360233023813558E-6
0.0025                    -0.0235                  4.300474382446581E-6
0.0025                    -0.0225                  4.259349611193864E-6
0.0025                    -0.0215                  4.2382913599526514E-6
0.0025                    -0.0205                  4.2394258899300394E-6
0.0025                    -0.0195                  4.264570949021358E-6
0.0025                    -0.0185                  4.3126574940109195E-6
0.0025                    -0.0175                  4.378274502661343E-6
0.0025                    -0.0165                  4.451561842083619E-6
0.0025                    -0.0155                  4.520008319127572E-6
0.0025                    -0.0145                  4.571577010228217E-6
0.0025                    -0.0135                  4.598705345448418E-6
0.0025                    -0.0125                  4.6056808567857076E-6
0.0025                    -0.0115                  4.611690272591074E-6
0.0025                    -0.0105                  4.653207831975718E-6
0.0025                    -0.0095                  4.7841227149551555E-6
0.0025                    -0.0085                  5.08832855295937E-6
0.0025                    -0.0075                  5.793140261462062E-6
0.0025                    -0.0065                  7.540336822289865E-6
0.0025                    -0.0055                  1.1921021213487808E-5
0.0025                    -0.0045                  2.2213517782815547E-5
0.0025                    -0.0035                  4.443121464699882E-5
0.0025                    -0.0025                  9.749812912955553E-5
0.0025                    -0.0015                  2.2872704962631285E-4
0.0025                    -5.0E-4                  6.585709737331409E-4
0.0025                    5.0E-4                   0.0015872234715672748
0.0025                    0.0015                   0.002175148825363965
0.0025                    0.0025                   0.0034746783829409703
0.0025                    0.0035                   0.020056526693445403
0.0025                    0.0045                   0.037476187659408494
0.0025                    0.0055                   0.04180898649831288
0.0025                    0.0065                   0.03460339409424007
0.0025                    0.0075                   0.022756122961253237
0.0025                    0.0085                   0.011137518695424642
0.0025                    0.0095                   0.003946954632710562
0.0025                    0.0105                   0.0011599061784076195
0.0025                    0.0115                   3.1189498471375515E-4
0.0025                    0.0125                   7.30987420114107E-5
0.0025                    0.0135                   2.4962260105052584E-5
0.0025                    0.0145                   1.2390149676777616E-5
0.0025                    0.0155                   8.817156861193723E-6
0.0025                    0.0165                   7.70028039029673E-6
0.0025                    0.0175                   7.4128303654147526E-6
0.0025                    0.0185                   7.334302941701304E-6
0.0025                    0.0195                   7.316657710611056E-6
0.0025                    0.0205                   7.31103828850294E-6
0.0025                    0.0215                   7.314975088406985E-6
0.0025                    0.0225                   7.33425234637973E-6
0.0025                    0.0235                   7.376369975713304E-6
0.0025                    0.0245                   7.447962152825016E-6
0.0025                    0.0255                   7.550437525116488E-6
0.0025                    0.0265                   7.6844636074925E-6
0.0025                    0.0275                   7.824262861881076E-6
0.0025                    0.0285                   7.951980442403167E-6
0.0025                    0.0295                   7.720777299744805E-6
0.0025                    0.0305                   7.738918240560409E-6
0.0025                    0.0315                   4.1178188859273134E-6
0.0035                    -0.0315                  2.263114699886637E-6
0.0035                    -0.0305                  4.326502642184325E-6
0.0035                    -0.0295                  4.56662910223325E-6
0.0035                    -0.0285                  4.943262978711104E-6
0.0035                    -0.0275                  4.988822482671835E-6
0.0035                    -0.0265                  4.936094766749535E-6
0.0035                    -0.0255                  4.830254777486005E-6
0.0035                    -0.0245                  4.717914749290471E-6
0.0035                    -0.0235                  4.61511342965538E-6
0.0035                    -0.0225                  4.531805205418683E-6
0.0035                    -0.0215                  4.4737237814178784E-6
0.0035                    -0.0205                  4.445729350195178E-6
0.0035                    -0.0195                  4.451809199454086E-6
0.0035                    -0.0185                  4.493975870027551E-6
0.0035                    -0.0175                  4.570593990605819E-6
0.0035                    -0.0165                  4.675198633972043E-6
0.0035                    -0.0155                  4.795912394959847E-6
0.0035                    -0.0145                  4.916037560426656E-6
0.0035                    -0.0135                  5.0177170389927E-6
0.0035                    -0.0125                  5.089949240520483E-6
0.0035                    -0.0115                  5.141183944820302E-6
0.0035                    -0.0105                  5.211118401401153E-6
0.0035                    -0.0095                  5.380713050877001E-6
0.0035                    -0.0085                  5.806249186590957E-6
0.0035                    -0.0075                  6.842796198351659E-6
0.0035                    -0.0065                  9.361996427445455E-6
0.0035                    -0.0055                  1.548809286234999E-5
0.0035                    -0.0045                  3.054234708022588E-5
0.0035                    -0.0035                  6.567616415893749E-5
0.0035                    -0.0025                  1.5021058299990133E-4
0.0035                    -0.0015                  4.1959620742817663E-4
0.0035                    -5.0E-4                  0.0012122609371495435
0.0035                    5.0E-4                   0.002300953050643514
0.0035                    0.0015                   7.313920326961908E-4
0.0035                    0.0025                   0.009881601429346541
0.0035                    0.0035                   0.02775113437270066
0.0035                    0.0045                   0.04021396977348237
0.0035                    0.0055                   0.04025815882255646
0.0035                    0.0065                   0.03109583269595194
0.0035                    0.0075                   0.01855269319835472
0.0035                    0.0085                   0.00811415556535814
0.0035                    0.0095                   0.002711225327415337
0.0035                    0.0105                   8.535035177911827E-4
0.0035                    0.0115                   2.4145341168666076E-4
0.0035                    0.0125                   6.394168703814816E-5
0.0035                    0.0135                   2.4459990714164898E-5
0.0035                    0.0145                   1.2806051922331281E-5
0.0035                    0.0155                   9.19357991373252E-6
0.0035                    0.0165                   8.047935192158347E-6
0.0035                    0.0175                   7.719503024934007E-6
0.0035                    0.0185                   7.634228666380358E-6
0.0035                    0.0195                   7.611857436283932E-6
0.0035                    0.0205                   7.612700729482654E-6
0.0035                    0.0215                   7.635775759462563E-6
0.0035                    0.0225                   7.68871201459269E-6
0.0035                    0.0235                   7.77695823474838E-6
0.0035                    0.0245                   7.900983750464079E-6
0.0035                    0.0255                   8.05223653213924E-6
0.0035                    0.0265                   8.213341348904169E-6
0.0035                    0.0275                   8.314985955029978E-6
0.0035                    0.0285                   8.317811285989313E-6
0.0035                    0.0295                   7.866448503578481E-6
0.0035                    0.0305                   8.12901144835494E-6
0.0035                    0.0315                   4.523422530071967E-6
0.0045                    -0.0315                  2.426943396717626E-6
0.0045                    -0.0305                  4.445417409431364E-6
0.0045                    -0.0295                  4.507844325631769E-6
0.0045                    -0.0285                  4.9707711813682275E-6
0.0045                    -0.0275                  5.136555207950156E-6
0.0045                    -0.0265                  5.171913243888464E-6
0.0045                    -0.0255                  5.105227968259219E-6
0.0045                    -0.0245                  4.9975415614272226E-6
0.0045                    -0.0235                  4.8781207907839436E-6
0.0045                    -0.0225                  4.766810783481108E-6
0.0045                    -0.0215                  4.676497350910857E-6
0.0045                    -0.0205                  4.617558902049249E-6
0.0045                    -0.0195                  4.598955582928795E-6
0.0045                    -0.0185                  4.628194475084221E-6
0.0045                    -0.0175                  4.710166617979225E-6
0.0045                    -0.0165                  4.845181037242963E-6
0.0045                    -0.0155                  5.026352468107263E-6
0.0045                    -0.0145                  5.237049949859033E-6
0.0045                    -0.0135                  5.4506850786521565E-6
0.0045                    -0.0125                  5.637273872079244E-6
0.0045                    -0.0115                  5.780870663245788E-6
0.0045                    -0.0105                  5.9085509735577386E-6
0.0045                    -0.0095                  6.12989995718716E-6
0.0045                    -0.0085                  6.6995305516577824E-6
0.0045                    -0.0075                  8.147204504740734E-6
0.0045                    -0.0065                  1.1522387746139361E-5
0.0045                    -0.0055                  1.9002897294493128E-5
0.0045                    -0.0045                  3.659132439457965E-5
0.0045                    -0.0035                  8.820761228183917E-5
0.0045                    -0.0025                  2.418175756256314E-4
0.0045                    -0.0015                  7.441025279007904E-4
0.0045                    -5.0E-4                  0.0018571322142869136
0.0045                    5.0E-4                   0.0022695626282562146
0.0045                    0.0015                   0.0033206088526102832
0.0045                    0.0025                   0.017812207405284948
0.0045                    0.0035                   0.03369958086276289
0.0045                    0.0045                   0.04110470031099296
0.0045                    0.0055                   0.037552289020469476
0.0045                    0.0065                   0.0266132846875609
0.0045                    0.0075                   0.014203666170794186
0.0045                    0.0085                   0.005571972066363046
0.0045                    0.0095                   0.0018058824784329146
0.0045                    0.0105                   5.891022631678063E-4
0.0045                    0.0115                   1.779653337264055E-4
0.0045                    0.0125                   5.421980643344988E-5
0.0045                    0.0135                   2.2920578152798356E-5
0.0045                    0.0145                   1.2912226483694806E-5
0.0045                    0.0155                   9.530007256483485E-6
0.0045                    0.0165                   8.41177985699829E-6
0.0045                    0.0175                   8.069463840649561E-6
0.0045                    0.0185                   7.95760986921285E-6
0.0045                    0.0195                   7.915697625798775E-6
0.0045                    0.0205                   7.909062957262118E-6
0.0045                    0.0215                   7.938639944470512E-6
0.0045                    0.0225                   8.00852040914218E-6
0.0045                    0.0235                   8.117070139132826E-6
0.0045                    0.0245                   8.253833382067818E-6
0.0045                    0.0255                   8.392918246633256E-6
0.0045                    0.0265                   8.491685898576534E-6
0.0045                    0.0275                   8.45559547832256E-6
0.0045                    0.0285                   8.273444308618597E-6
0.0045                    0.0295                   7.702041468405575E-6
0.0045                    0.0305                   8.274228364668046E-6
0.0045                    0.0315                   4.7703755210401194E-6
0.0055                    -0.0315                  2.5596957995022773E-6
0.0055                    -0.0305                  4.548827495436518E-6
0.0055                    -0.0295                  4.441724354658876E-6
0.0055                    -0.0285                  4.930398351534162E-6
0.0055                    -0.0275                  5.1878154320104615E-6
0.0055                    -0.0265                  5.331164016500099E-6
0.0055                    -0.0255                  5.3446472605270285E-6
0.0055                    -0.0245                  5.281507918326404E-6
0.0055                    -0.0235                  5.176754866449947E-6
0.0055                    -0.0225                  5.058798279908508E-6
0.0055                    -0.0215                  4.94827690952242E-6
0.0055                    -0.0205                  4.8626167280123366E-6
0.0055                    -0.0195                  4.81766652772572E-6
0.0055                    -0.0185                  4.828327001176787E-6
0.0055                    -0.0175                  4.907852993617641E-6
0.0055                    -0.0165                  5.065922265655415E-6
0.0055                    -0.0155                  5.3051834966021895E-6
0.0055                    -0.0145                  5.616246188975856E-6
0.0055                    -0.0135                  5.972811382142266E-6
0.0055                    -0.0125                  6.332461713429496E-6
0.0055                    -0.0115                  6.653343495380847E-6
0.0055                    -0.0105                  6.9401918024809E-6
0.0055                    -0.0095                  7.330659521379849E-6
0.0055                    -0.0085                  8.223741624424585E-6
0.0055                    -0.0075                  1.0419210763715386E-5
0.0055                    -0.0065                  1.5195225546106378E-5
0.0055                    -0.0055                  2.455877674563079E-5
0.0055                    -0.0045                  4.357060896839018E-5
0.0055                    -0.0035                  1.1322521592483814E-4
0.0055                    -0.0025                  3.8170773514808174E-4
0.0055                    -0.0015                  0.0012007750243678355
0.0055                    -5.0E-4                  0.0023005099302639085
0.0055                    5.0E-4                   5.555845949934649E-4
0.0055                    0.0015                   0.00957551369188985
0.0055                    0.0025                   0.02534346940247847
0.0055                    0.0035                   0.03747375509284832
0.0055                    0.0045                   0.040316053927694204
0.0055                    0.0055                   0.033736627237164155
0.0055                    0.0065                   0.02154595369385594
0.0055                    0.0075                   0.01017971416760748
0.0055                    0.0085                   0.0036131418375979596
0.0055                    0.0095                   0.0011547796480585076
0.0055                    0.0105                   3.650931616169865E-4
0.0055                    0.0115                   1.1679000662808381E-4
0.0055                    0.0125                   4.471634073667178E-5
0.0055                    0.0135                   2.129934674206568E-5
0.0055                    0.0145                   1.299692996907319E-5
0.0055                    0.0155                   9.983521364906404E-6
0.0055                    0.0165                   8.935994293334658E-6
0.0055                    0.0175                   8.56987482519285E-6
0.0055                    0.0185                   8.419779212925582E-6
0.0055                    0.0195                   8.347241578289306E-6
0.0055                    0.0205                   8.32392134749036E-6
0.0055                    0.0215                   8.347630650177206E-6
0.0055                    0.0225                   8.41524937939563E-6
0.0055                    0.0235                   8.51451495658791E-6
0.0055                    0.0245                   8.620916259442198E-6
0.0055                    0.0255                   8.691300757085103E-6
0.0055                    0.0265                   8.669635028605256E-6
0.0055                    0.0275                   8.470805431927295E-6
0.0055                    0.0285                   8.152387833910499E-6
0.0055                    0.0295                   7.547052367929715E-6
0.0055                    0.0305                   8.413530653816535E-6
0.0055                    0.0315                   4.979600636797757E-6
0.0065                    -0.0315                  2.664958757595332E-6
0.0065                    -0.0305                  4.628675878210624E-6
0.0065                    -0.0295                  4.365701087208991E-6
0.0065                    -0.0285                  4.844294155423741E-6
0.0065                    -0.0275                  5.1506735367450385E-6
0.0065                    -0.0265                  5.381227049480557E-6
0.0065                    -0.0255                  5.4824588244225815E-6
0.0065                    -0.0245                  5.485887616108055E-6
0.0065                    -0.0235                  5.4196421955303015E-6
0.0065                    -0.0225                  5.314405115317296E-6
0.0065                    -0.0215                  5.196202205083195E-6
0.0065                    -0.0205                  5.088865858914242E-6
0.0065                    -0.0195                  5.015223613935495E-6
0.0065                    -0.0185                  4.997913164793586E-6
0.0065                    -0.0175                  5.059145410264738E-6
0.0065                    -0.0165                  5.21929384878526E-6
0.0065                    -0.0155                  5.493825937228359E-6
0.0065                    -0.0145                  5.888125244437485E-6
0.0065                    -0.0135                  6.390301798627529E-6
0.0065                    -0.0125                  6.966122531749461E-6
0.0065                    -0.0115                  7.570275703107222E-6
0.0065                    -0.0105                  8.203509159634943E-6
0.0065                    -0.0095                  9.058055563690285E-6
0.0065                    -0.0085                  1.0770343389641853E-5
0.0065                    -0.0075                  1.4683858060047752E-5
0.0065                    -0.0065                  2.265887321789844E-5
0.0065                    -0.0055                  3.699308515638595E-5