% Model:              Benchmark260518.mph
% Version:            COMSOL 6.2.0.339
% Date:               May 19 2026, 21:20
% Dimension:          2
% Nodes:              4096
% Expressions:        1
% Description:        速度大小
% Length unit:        m
% x                       y                        spf.U (m/s)
% mirrored_by_python_y_to_minus_y, coord_match_decimals=12
0.0005 -0.0315 1.61447484891e-06
0.0005 -0.0305 3.259575259e-06
0.0005 -0.0295 3.6730872782e-06
0.0005 -0.0285 4.10429138104e-06
0.0005 -0.0275 4.33509950758e-06
0.0005 -0.0265 4.51707194723e-06
0.0005 -0.0255 4.65280693971e-06
0.0005 -0.0245 4.76772232158e-06
0.0005 -0.0235 4.86789980477e-06
0.0005 -0.0225 4.95935391674e-06
0.0005 -0.0215 5.04877411821e-06
0.0005 -0.0205 5.14378172499e-06
0.0005 -0.0195 5.2483216205e-06
0.0005 -0.0185 5.37072019646e-06
0.0005 -0.0175 5.52574502274e-06
0.0005 -0.0165 5.73629679629e-06
0.0005 -0.0155 6.04930485392e-06
0.0005 -0.0145 6.58833671852e-06
0.0005 -0.0135 7.58666721158e-06
0.0005 -0.0125 9.81311120472e-06
0.0005 -0.0115 1.68656215771e-05
0.0005 -0.0105 3.93479265107e-05
0.0005 -0.0095 0.000111400573707
0.0005 -0.0085 0.000219456524922
0.0005 -0.0075 0.000276993856134
0.0005 -0.0065 0.000268887497541
0.0005 -0.0055 0.000497015318098
0.0005 -0.0045 0.0022166545712
0.0005 -0.0035 0.00770586245069
0.0005 -0.0025 0.0125784391005
0.0005 -0.0015 0.0133153858092
0.0005 -0.0005 0.0130424271237
0.0005 0.0005 0.0120909473669
0.0005 0.0015 0.010759133027
0.0005 0.0025 0.00934714753093
0.0005 0.0035 0.0059377756808
0.0005 0.0045 0.00284485484743
0.0005 0.0055 0.00188306715087
0.0005 0.0065 0.00134628435831
0.0005 0.0075 0.000966760100907
0.0005 0.0085 0.000637964597721
0.0005 0.0095 0.000362291669446
0.0005 0.0105 0.000156140291678
0.0005 0.0115 5.06461012706e-05
0.0005 0.0125 2.04035968635e-05
0.0005 0.0135 1.10889552936e-05
0.0005 0.0145 8.09609198995e-06
0.0005 0.0155 6.69881611143e-06
0.0005 0.0165 5.82837102312e-06
0.0005 0.0175 5.28338997052e-06
0.0005 0.0185 4.92573377822e-06
0.0005 0.0195 4.68877983225e-06
0.0005 0.0205 4.52382488826e-06
0.0005 0.0215 4.39625497322e-06
0.0005 0.0225 4.28166060388e-06
0.0005 0.0235 4.16791557312e-06
0.0005 0.0245 4.0458215962e-06
0.0005 0.0255 3.91223971258e-06
0.0005 0.0265 3.76556304864e-06
0.0005 0.0275 3.58723459108e-06
0.0005 0.0285 3.3917655093e-06
0.0005 0.0295 3.04041822106e-06
0.0005 0.0305 2.70429630069e-06
0.0005 0.0315 1.34157315357e-06
0.0015 -0.0315 3.14837490626e-06
0.0015 -0.0305 6.29276389458e-06
0.0015 -0.0295 6.8346296531e-06
0.0015 -0.0285 7.31016542975e-06
0.0015 -0.0275 7.45185700773e-06
0.0015 -0.0265 7.54579354712e-06
0.0015 -0.0255 7.60202913655e-06
0.0015 -0.0245 7.65151001975e-06
0.0015 -0.0235 7.69902006527e-06
0.0015 -0.0225 7.74878631363e-06
0.0015 -0.0215 7.80595313678e-06
0.0015 -0.0205 7.8776505853e-06
0.0015 -0.0195 7.97002073585e-06
0.0015 -0.0185 8.09757746401e-06
0.0015 -0.0175 8.2884278879e-06
0.0015 -0.0165 8.59263823261e-06
0.0015 -0.0155 9.11610299147e-06
0.0015 -0.0145 1.01138841721e-05
0.0015 -0.0135 1.21795032647e-05
0.0015 -0.0125 1.71266401655e-05
0.0015 -0.0115 3.08774743725e-05
0.0015 -0.0105 7.10711569859e-05
0.0015 -0.0095 0.000197380551524
0.0015 -0.0085 0.000410195472038
0.0015 -0.0075 0.000661891787817
0.0015 -0.0065 0.00118932238538
0.0015 -0.0055 0.00283413838348
0.0015 -0.0045 0.00654349399676
0.0015 -0.0035 0.010760219823
0.0015 -0.0025 0.0125957770094
0.0015 -0.0015 0.012189301196
0.0015 -0.0005 0.0111162940081
0.0015 0.0005 0.00987002185084
0.0015 0.0015 0.00896572709874
0.0015 0.0025 0.00870999874537
0.0015 0.0035 0.0084166850824
0.0015 0.0045 0.00740881706554
0.0015 0.0055 0.00595798303801
0.0015 0.0065 0.00445110383118
0.0015 0.0075 0.00294498944535
0.0015 0.0085 0.00164654922596
0.0015 0.0095 0.000784123891815
0.0015 0.0105 0.000316047307375
0.0015 0.0115 0.00010266974912
0.0015 0.0125 4.12398925605e-05
0.0015 0.0135 2.13481957476e-05
0.0015 0.0145 1.43345161995e-05
0.0015 0.0155 1.11917171837e-05
0.0015 0.0165 9.42996148122e-06
0.0015 0.0175 8.38728178368e-06
0.0015 0.0185 7.7594938207e-06
0.0015 0.0195 7.38349125454e-06
0.0015 0.0205 7.15074169316e-06
0.0015 0.0215 6.98959132675e-06
0.0015 0.0225 6.85552041255e-06
0.0015 0.0235 6.72828910469e-06
0.0015 0.0245 6.59915559112e-06
0.0015 0.0255 6.46865723145e-06
0.0015 0.0265 6.33987075638e-06
0.0015 0.0275 6.1939846406e-06
0.0015 0.0285 6.04538393562e-06
0.0015 0.0295 5.64823550643e-06
0.0015 0.0305 5.23327180843e-06
0.0015 0.0315 2.6310936945e-06
0.0025 -0.0315 3.25833177303e-06
0.0025 -0.0305 6.37683185233e-06
0.0025 -0.0295 6.71871843576e-06
0.0025 -0.0285 6.98550600026e-06
0.0025 -0.0275 6.84220633908e-06
0.0025 -0.0265 6.63023984628e-06
0.0025 -0.0255 6.4000368928e-06
0.0025 -0.0245 6.18916822642e-06
0.0025 -0.0235 6.00473636332e-06
0.0025 -0.0225 5.84826937277e-06
0.0025 -0.0215 5.71833526917e-06
0.0025 -0.0205 5.61458745729e-06
0.0025 -0.0195 5.54198604331e-06
0.0025 -0.0185 5.51612439291e-06
0.0025 -0.0175 5.57235584472e-06
0.0025 -0.0165 5.78425792739e-06
0.0025 -0.0155 6.30978141937e-06
0.0025 -0.0145 7.50922984245e-06
0.0025 -0.0135 1.03068833796e-05
0.0025 -0.0125 1.72739119491e-05
0.0025 -0.0115 3.50535884888e-05
0.0025 -0.0105 8.08488067071e-05
0.0025 -0.0095 0.000234314289441
0.0025 -0.0085 0.000606639608145
0.0025 -0.0075 0.00145048127452
0.0025 -0.0065 0.00341689207355
0.0025 -0.0055 0.00672212524077
0.0025 -0.0045 0.0102633514787
0.0025 -0.0035 0.0123452392532
0.0025 -0.0025 0.0122385126912
0.0025 -0.0015 0.0106543371098
0.0025 -0.0005 0.00861933059184
0.0025 0.0005 0.00699609209701
0.0025 0.0015 0.00664797963765
0.0025 0.0025 0.00757495745296
0.0025 0.0035 0.00878905847391
0.0025 0.0045 0.00938568986012
0.0025 0.0055 0.00893170657648
0.0025 0.0065 0.00750167329165
0.0025 0.0075 0.00542269394794
0.0025 0.0085 0.00309195838425
0.0025 0.0095 0.00129565785099
0.0025 0.0105 0.000443518564171
0.0025 0.0115 0.000138610254067
0.0025 0.0125 5.56391226208e-05
0.0025 0.0135 2.71134007194e-05
0.0025 0.0145 1.58285779112e-05
0.0025 0.0155 1.07666651615e-05
0.0025 0.0165 8.22987810163e-06
0.0025 0.0175 6.89499067802e-06
0.0025 0.0185 6.20591438017e-06
0.0025 0.0195 5.8666980758e-06
0.0025 0.0205 5.70965415462e-06
0.0025 0.0215 5.63708436986e-06
0.0025 0.0225 5.59937292293e-06
0.0025 0.0235 5.5791022972e-06
0.0025 0.0245 5.57768916964e-06
0.0025 0.0255 5.60148781688e-06
0.0025 0.0265 5.65545407699e-06
0.0025 0.0275 5.71918251542e-06
0.0025 0.0285 5.76996253861e-06
0.0025 0.0295 5.53510908627e-06
0.0025 0.0305 5.36249684521e-06
0.0025 0.0315 2.78408097452e-06
0.0035 -0.0315 3.45371404635e-06
0.0035 -0.0305 6.57237426442e-06
0.0035 -0.0295 6.91289975227e-06
0.0035 -0.0285 7.43857946609e-06
0.0035 -0.0275 7.43219614626e-06
0.0035 -0.0265 7.24641715673e-06
0.0035 -0.0255 6.9675224564e-06
0.0035 -0.0245 6.67268017711e-06
0.0035 -0.0235 6.38813412102e-06
0.0035 -0.0225 6.12643372286e-06
0.0035 -0.0215 5.8921867179e-06
0.0035 -0.0205 5.6895095595e-06
0.0035 -0.0195 5.52851964466e-06
0.0035 -0.0185 5.43522021046e-06
0.0035 -0.0175 5.4674757447e-06
0.0035 -0.0165 5.74623203605e-06
0.0035 -0.0155 6.52924926382e-06
0.0035 -0.0145 8.40712215871e-06
0.0035 -0.0135 1.28583381522e-05
0.0035 -0.0125 2.37540074954e-05
0.0035 -0.0115 5.45278093326e-05
0.0035 -0.0105 0.00015608148458
0.0035 -0.0095 0.000472844114524
0.0035 -0.0085 0.00136198041026
0.0035 -0.0075 0.00345388085411
0.0035 -0.0065 0.00686756358688
0.0035 -0.0055 0.0104548661075
0.0035 -0.0045 0.0126839695454
0.0035 -0.0035 0.0128392991772
0.0035 -0.0025 0.0112043139602
0.0035 -0.0015 0.00857257683496
0.0035 -0.0005 0.0058025743509
0.0035 0.0005 0.00395076651072
0.0035 0.0015 0.00409109477769
0.0035 0.0025 0.00546748894984
0.0035 0.0035 0.00690891832905
0.0035 0.0045 0.00800935733844
0.0035 0.0055 0.00866709783443
0.0035 0.0065 0.00879228398193
0.0035 0.0075 0.00792117484668
0.0035 0.0085 0.00542591897143
0.0035 0.0095 0.00241357392305
0.0035 0.0105 0.000736600475208
0.0035 0.0115 0.000230141822294
0.0035 0.0125 9.40624395943e-05
0.0035 0.0135 4.45492627852e-05
0.0035 0.0145 2.40066955101e-05
0.0035 0.0155 1.4304782927e-05
0.0035 0.0165 9.71935273081e-06
0.0035 0.0175 7.58532259632e-06
0.0035 0.0185 6.6152274182e-06
0.0035 0.0195 6.20066139541e-06
0.0035 0.0205 6.03566616699e-06
0.0035 0.0215 5.96890455298e-06
0.0035 0.0225 5.93773215805e-06
0.0035 0.0235 5.92757847751e-06
0.0035 0.0245 5.94332479198e-06
0.0035 0.0255 5.98818696637e-06
0.0035 0.0265 6.05453657184e-06
0.0035 0.0275 6.0890861171e-06
0.0035 0.0285 6.04595351674e-06
0.0035 0.0295 5.64172078432e-06
0.0035 0.0305 5.59269716984e-06
0.0035 0.0315 3.02531255348e-06
0.0045 -0.0315 3.54949309561e-06
0.0045 -0.0305 6.59325171545e-06
0.0045 -0.0295 6.84246456269e-06
0.0045 -0.0285 7.54675104502e-06
0.0045 -0.0275 7.74787509249e-06
0.0045 -0.0265 7.69567568636e-06
0.0045 -0.0255 7.45964081353e-06
0.0045 -0.0245 7.14227125796e-06
0.0045 -0.0235 6.79478694543e-06
0.0045 -0.0225 6.44753426169e-06
0.0045 -0.0215 6.11781507705e-06
0.0045 -0.0205 5.82022504732e-06
0.0045 -0.0195 5.5767142546e-06
0.0045 -0.0185 5.43235364314e-06
0.0045 -0.0175 5.48244359385e-06
0.0045 -0.0165 5.92642827252e-06
0.0045 -0.0155 7.19219955515e-06
0.0045 -0.0145 1.02916245757e-05
0.0045 -0.0135 1.77475352197e-05
0.0045 -0.0125 3.72518787687e-05
0.0045 -0.0115 9.30698356795e-05
0.0045 -0.0105 0.000314374656152
0.0045 -0.0095 0.00100530372158
0.0045 -0.0085 0.00294198871153
0.0045 -0.0075 0.00656452255546
0.0045 -0.0065 0.0105104823924
0.0045 -0.0055 0.0129139612603
0.0045 -0.0045 0.0130807758737
0.0045 -0.0035 0.0113626184204
0.0045 -0.0025 0.0086005720906
0.0045 -0.0015 0.00563828640795
0.0045 -0.0005 0.00313491603496
0.0045 0.0005 0.00167259274132
0.0045 0.0015 0.00183163563767
0.0045 0.0025 0.00265209398701
0.0045 0.0035 0.003493540155
0.0045 0.0045 0.00444085443111
0.0045 0.0055 0.00582063144488
0.0045 0.0065 0.00775850115132
0.0045 0.0075 0.00920159137098
0.0045 0.0085 0.00799972267844
0.0045 0.0095 0.0043750792934
0.0045 0.0105 0.00151992749065
0.0045 0.0115 0.000490039129233
0.0045 0.0125 0.000190200797918
0.0045 0.0135 8.88152341575e-05
0.0045 0.0145 4.23385241224e-05
0.0045 0.0155 2.15857143441e-05
0.0045 0.0165 1.27849812055e-05
0.0045 0.0175 8.96693168251e-06
0.0045 0.0185 7.34778164622e-06
0.0045 0.0195 6.68698197453e-06
0.0045 0.0205 6.41872805154e-06
0.0045 0.0215 6.29337278372e-06
0.0045 0.0225 6.22174409028e-06
0.0045 0.0235 6.18540322217e-06
0.0045 0.0245 6.18481054114e-06
0.0045 0.0255 6.21020023543e-06
0.0045 0.0265 6.23195367987e-06
0.0045 0.0275 6.17300551272e-06
0.0045 0.0285 6.00322917111e-06
0.0045 0.0295 5.51623781843e-06
0.0045 0.0305 5.68538566134e-06
0.0045 0.0315 3.19276043042e-06
0.0055 -0.0315 3.58714818247e-06
0.0055 -0.0305 6.58779709719e-06
0.0055 -0.0295 6.79234048122e-06
0.0055 -0.0285 7.61231120338e-06
0.0055 -0.0275 8.00043447972e-06
0.0055 -0.0265 8.12994030787e-06
0.0055 -0.0255 8.01326971285e-06
0.0055 -0.0245 7.74426329368e-06
0.0055 -0.0235 7.38770763709e-06
0.0055 -0.0225 6.99178646896e-06
0.0055 -0.0215 6.59082787982e-06
0.0055 -0.0205 6.21696005637e-06
0.0055 -0.0195 5.91438963065e-06
0.0055 -0.0185 5.76482073558e-06
0.0055 -0.0175 5.93375306826e-06
0.0055 -0.0165 6.75843627281e-06
0.0055 -0.0155 8.98206682683e-06
0.0055 -0.0145 1.44400570868e-05
0.0055 -0.0135 2.8589343461e-05
0.0055 -0.0125 6.81145502232e-05
0.0055 -0.0115 0.000201949549805
0.0055 -0.0105 0.000656898129355
0.0055 -0.0095 0.00208686758672
0.0055 -0.0085 0.00550703698918
0.0055 -0.0075 0.0100937642089
0.0055 -0.0065 0.013097363882
0.0055 -0.0055 0.0131524158843
0.0055 -0.0045 0.0109166654
0.0055 -0.0035 0.00774865473481
0.0055 -0.0025 0.00481263641439
0.0055 -0.0015 0.00264023982268
0.0055 -0.0005 0.00126417020111
0.0055 0.0005 0.000603857556623
0.0055 0.0015 0.000595180588784
0.0055 0.0025 0.000844869531612
0.0055 0.0035 0.00116307008828
0.0055 0.0045 0.00167601958426
0.0055 0.0055 0.00284004849703
0.0055 0.0065 0.00530762795304
0.0055 0.0075 0.00857102804753
0.0055 0.0085 0.00976375679435
0.0055 0.0095 0.00710057914813
0.0055 0.0105 0.00331909037074
0.0055 0.0115 0.00122332736113
0.0055 0.0125 0.000500132957144
0.0055 0.0135 0.000214103519884
0.0055 0.0145 8.21719522332e-05
0.0055 0.0155 3.67668255942e-05
0.0055 0.0165 1.89909639677e-05
0.0055 0.0175 1.17545039506e-05
0.0055 0.0185 8.72367198853e-06
0.0055 0.0195 7.48588612548e-06
0.0055 0.0205 6.95026645069e-06
0.0055 0.0215 6.67519711422e-06
0.0055 0.0225 6.51181889968e-06
0.0055 0.0235 6.4191069579e-06
0.0055 0.0245 6.37832200895e-06
0.0055 0.0255 6.35720462512e-06
0.0055 0.0265 6.3063851065e-06
0.0055 0.0275 6.14757806137e-06
0.0055 0.0285 5.89582928162e-06
0.0055 0.0295 5.39801964104e-06
0.0055 0.0305 5.77581745299e-06
0.0055 0.0315 3.33270391946e-06
0.0065 -0.0315 3.58627143307e-06
0.0065 -0.0305 6.55361889727e-06
0.0065 -0.0295 6.74415490733e-06
0.0065 -0.0285 7.63919776621e-06
0.0065 -0.0275 8.16452983741e-06
0.0065 -0.0265 8.46059318961e-06
0.0065 -0.0255 8.4899722474e-06
0.0065 -0.0245 8.31488975462e-06
0.0065 -0.0235 7.9938192127e-06
0.0065 -0.0225 7.58449205467e-06
0.0065 -0.0215 7.13865178112e-06
0.0065 -0.0205 6.71295081553e-06
0.0065 -0.0195 6.38912333846e-06
0.0065 -0.0185 6.3137958583e-06
0.0065 -0.0175 6.7815632163e-06
0.0065 -0.0165 8.39708776961e-06
0.0065 -0.0155 1.24675449477e-05
0.0065 -0.0145 2.28576912914e-05
0.0065 -0.0135 5.21136277355e-05
0.0065 -0.0125 0.000150600982421
0.0065 -0.0115 0.000472477998744
0.0065 -0.0105 0.00140737976365
0.0065 -0.0095 0.0040511838136
0.0065 -0.0085 0.00876678245362
0.0065 -0.0075 0.0129476536688
0.0065 -0.0065 0.0136837194154
0.0065 -0.0055 0.0110513084374
0.0065 -0.0045 0.00714515166877
0.0065 -0.0035 0.00389825664488
0.0065 -0.0025 0.00193097763664
0.0065 -0.0015 0.000924709442385
0.0065 -0.0005 0.00043196778274
0.0065 0.0005 0.000228528018379
0.0065 0.0015 0.000213627888395
0.0065 0.0025 0.000276917745275
0.0065 0.0035 0.000381614127048
0.0065 0.0045 0.000571327433472
0.0065 0.0055 0.00115234406642
0.0065 0.0065 0.00285651358141
0.0065 0.0075 0.00629495718682
0.0065 0.0085 0.00960066431872
0.0065 0.0095 0.00944044190464
0.0065 0.0105 0.00608999924225
0.0065 0.0115 0.00283816055019
0.0065 0.0125 0.00119451003118
0.0065 0.0135 0.000496864984967
0.0065 0.0145 0.000180855812175
0.0065 0.0155 6.89852125456e-05
0.0065 0.0165 3.14058881309e-05
0.0065 0.0175 1.67049999563e-05
0.0065 0.0185 1.09204878853e-05
0.0065 0.0195 8.5788663829e-06
0.0065 0.0205 7.52887301642e-06
0.0065 0.0215 6.98522714285e-06
0.0065 0.0225 6.67965231762e-06
0.0065 0.0235 6.51306502174e-06
0.0065 0.0245 6.42680842218e-06
0.0065 0.0255 6.35872383045e-06
0.0065 0.0265 6.24745936542e-06
0.0065 0.0275 6.02752788118e-06
0.0065 0.0285 5.75192312478e-06
0.0065 0.0295 5.287682679e-06
0.0065 0.0305 5.86615878736e-06
0.0065 0.0315 3.45916172135e-06
0.0075 -0.0315 3.53763008238e-06
0.0075 -0.0305 6.48871559135e-06
0.0075 -0.0295 6.72029454168e-06
0.0075 -0.0285 7.66898913857e-06
0.0075 -0.0275 8.29719133293e-06
0.0075 -0.0265 8.73339716384e-06
0.0075 -0.0255 8.90964725213e-06
0.0075 -0.0245 8.85493606351e-06
0.0075 -0.0235 8.6078589144e-06
0.0075 -0.0225 8.22418999011e-06
0.0075 -0.0215 7.77008423705e-06
0.0075 -0.0205 7.33409375009e-06
0.0075 -0.0195 7.05738450052e-06
0.0075 -0.0185 7.1965983464e-06
0.0075 -0.0175 8.24863462897e-06
0.0075 -0.0165 1.13036584124e-05
0.0075 -0.0155 1.91518989056e-05
0.0075 -0.0145 4.04585764773e-05
0.0075 -0.0135 0.000111806701543
0.0075 -0.0125 0.00034714243563
0.0075 -0.0115 0.00100118832263
0.0075 -0.0105 0.00284989785572
0.0075 -0.0095 0.00692442847489
0.0075 -0.0085 0.0119079925489
0.0075 -0.0075 0.0141833053097
0.0075 -0.0065 0.012134515886
0.0075 -0.0055 0.0076797089515
0.0075 -0.0045 0.00376740965285
0.0075 -0.0035 0.00160752858994
0.0075 -0.0025 0.000680083253461
0.0075 -0.0015 0.000313197834574
0.0075 -0.0005 0.000156672887266
0.0075 0.0005 8.90144832486e-05
0.0075 0.0015 8.25682956459e-05
0.0075 0.0025 0.000100039321322
0.0075 0.0035 0.000134396815908
0.0075 0.0045 0.000208628516274
0.0075 0.0055 0.000457866472617
0.0075 0.0065 0.00130924192636
0.0075 0.0075 0.0036652766984
0.0075 0.0085 0.00746055891857
0.0075 0.0095 0.00990818364456
0.0075 0.0105 0.00873214247571
0.0075 0.0115 0.00539519958542
0.0075 0.0125 0.0025515924529
0.0075 0.0135 0.00105878377942
0.0075 0.0145 0.000410734662295
0.0075 0.0155 0.000147951615781
0.0075 0.0165 5.46338469698e-05
0.0075 0.0175 2.4798294401e-05
0.0075 0.0185 1.43973150874e-05
0.0075 0.0195 1.01875954697e-05
0.0075 0.0205 8.25025057021e-06
0.0075 0.0215 7.26782083819e-06
0.0075 0.0225 6.75452447812e-06
0.0075 0.0235 6.4996858168e-06
0.0075 0.0245 6.37310301451e-06
0.0075 0.0255 6.27313063884e-06
0.0075 0.0265 6.12924733688e-06
0.0075 0.0275 5.88688566339e-06
0.0075 0.0285 5.62205160873e-06
0.0075 0.0295 5.20655666824e-06
0.0075 0.0305 5.95912623588e-06
0.0075 0.0315 3.57207390247e-06
0.0085 -0.0315 3.49873073819e-06
0.0085 -0.0305 6.44588485579e-06
0.0085 -0.0295 6.71582753071e-06
0.0085 -0.0285 7.70078710709e-06
0.0085 -0.0275 8.40646621214e-06
0.0085 -0.0265 8.96022879889e-06
0.0085 -0.0255 9.27639576591e-06
0.0085 -0.0245 9.35710499833e-06
0.0085 -0.0235 9.21745190363e-06
0.0085 -0.0225 8.90358100946e-06
0.0085 -0.0215 8.493372779e-06
0.0085 -0.0205 8.11735738898e-06
0.0085 -0.0195 8.00614027686e-06
0.0085 -0.0185 8.59271545461e-06
0.0085 -0.0175 1.07027327304e-05
0.0085 -0.0165 1.60533413524e-05
0.0085 -0.0155 3.0713378453e-05
0.0085 -0.0145 8.08849834917e-05
0.0085 -0.0135 0.000245650130429
0.0085 -0.0125 0.000711979613748
0.0085 -0.0115 0.00199366215174
0.0085 -0.0105 0.00518960163136
0.0085 -0.0095 0.0101722483697
0.0085 -0.0085 0.0139250566244
0.0085 -0.0075 0.0134214977965
0.0085 -0.0065 0.00918096533402
0.0085 -0.0055 0.00454440507395
0.0085 -0.0045 0.00180484177909
0.0085 -0.0035 0.000673319676652
0.0085 -0.0025 0.000247407088705
0.0085 -0.0015 0.000108355611007
0.0085 -0.0005 6.31639942705e-05
0.0085 0.0005 4.4505838991e-05
0.0085 0.0015 4.0744832528e-05
0.0085 0.0025 4.65280948363e-05
0.0085 0.0035 6.16660778968e-05
0.0085 0.0045 9.96035977162e-05
0.0085 0.0055 0.000207864269916
0.0085 0.0065 0.000615272028806
0.0085 0.0075 0.00183072019236
0.0085 0.0085 0.004619256426
0.0085 0.0095 0.00817534423094
0.0085 0.0105 0.00972486343924
0.0085 0.0115 0.00802839038827
0.0085 0.0125 0.00475082500099
0.0085 0.0135 0.00213070401129
0.0085 0.0145 0.000818707083217
0.0085 0.0155 0.000283669516056
0.0085 0.0165 8.98859918182e-05
0.0085 0.0175 3.81014345985e-05
0.0085 0.0185 2.03374963312e-05
0.0085 0.0195 1.2938910041e-05
0.0085 0.0205 9.42805258389e-06
0.0085 0.0215 7.67640950166e-06
0.0085 0.0225 6.82752698015e-06
0.0085 0.0235 6.44839016061e-06
0.0085 0.0245 6.27869538899e-06
0.0085 0.0255 6.1593574017e-06
0.0085 0.0265 6.00375019779e-06
0.0085 0.0275 5.76039253759e-06
0.0085 0.0285 5.5190089702e-06
0.0085 0.0295 5.15110714206e-06
0.0085 0.0305 6.05023368436e-06
0.0085 0.0315 3.67212177578e-06
0.0095 -0.0315 3.51219340693e-06
0.0095 -0.0305 6.4659762466e-06
0.0095 -0.0295 6.72939525591e-06
0.0095 -0.0285 7.72974290529e-06
0.0095 -0.0275 8.48802605327e-06
0.0095 -0.0265 9.13976914416e-06
0.0095 -0.0255 9.59043356016e-06
0.0095 -0.0245 9.82239341826e-06
0.0095 -0.0235 9.82851855539e-06
0.0095 -0.0225 9.64358687078e-06
0.0095 -0.0215 9.35992249417e-06
0.0095 -0.0205 9.16864909742e-06
0.0095 -0.0195 9.43764987625e-06
0.0095 -0.0185 1.085876125e-05
0.0095 -0.0175 1.47946061498e-05
0.0095 -0.0165 2.4342359915e-05
0.0095 -0.0155 4.94766003994e-05
0.0095 -0.0145 0.00014788362146
0.0095 -0.0135 0.000467512572932
0.0095 -0.0125 0.0013451513425
0.0095 -0.0115 0.0037097848379
0.0095 -0.0105 0.00818845389081
0.0095 -0.0095 0.0128339553162
0.0095 -0.0085 0.0141581270054
0.0095 -0.0075 0.0109999442151
0.0095 -0.0065 0.00597788880857
0.0095 -0.0055 0.0024293014759
0.0095 -0.0045 0.00089635299873
0.0095 -0.0035 0.0003130973386
0.0095 -0.0025 0.000107220117296
0.0095 -0.0015 5.21442629514e-05
0.0095 -0.0005 3.21822455328e-05
0.0095 0.0005 2.50637025949e-05
0.0095 0.0015 2.34138609996e-05
0.0095 0.0025 2.58549289479e-05
0.0095 0.0035 3.38109822825e-05
0.0095 0.0045 5.42600963511e-05
0.0095 0.0055 0.000112858266763
0.0095 0.0065 0.000303859559746
0.0095 0.0075 0.000870728729031
0.0095 0.0085 0.00240556153554
0.0095 0.0095 0.00541509090892
0.0095 0.0105 0.00859784241358
0.0095 0.0115 0.00944990967984
0.0095 0.0125 0.00726982957017
0.0095 0.0135 0.00390349907341
0.0095 0.0145 0.00151735074178
0.0095 0.0155 0.00048462572132
0.0095 0.0165 0.000150402731224
0.0095 0.0175 6.41985994569e-05
0.0095 0.0185 3.21973344468e-05
0.0095 0.0195 1.85532040638e-05
0.0095 0.0205 1.17791234498e-05
0.0095 0.0215 8.53095580036e-06
0.0095 0.0225 7.07511709796e-06
0.0095 0.0235 6.46895251662e-06
0.0095 0.0245 6.22136643676e-06
0.0095 0.0255 6.07468047511e-06
0.0095 0.0265 5.90853721207e-06
0.0095 0.0275 5.66584502161e-06
0.0095 0.0285 5.44493527833e-06
0.0095 0.0295 5.11533339376e-06
0.0095 0.0305 6.13729493242e-06
0.0095 0.0315 3.76141936838e-06
0.0105 -0.0315 3.55679894168e-06
0.0105 -0.0305 6.52896942883e-06
0.0105 -0.0295 6.76182479973e-06
0.0105 -0.0285 7.75202714851e-06
0.0105 -0.0275 8.53188198022e-06
0.0105 -0.0265 9.25676715249e-06
0.0105 -0.0255 9.83646588555e-06
0.0105 -0.0245 1.02436580253e-05
0.0105 -0.0235 1.0453519899e-05
0.0105 -0.0225 1.04923803774e-05
0.0105 -0.0215 1.04790086734e-05
0.0105 -0.0205 1.07003452253e-05
0.0105 -0.0195 1.17518407077e-05
0.0105 -0.0185 1.47532188994e-05
0.0105 -0.0175 2.17583818087e-05
0.0105 -0.0165 3.90754283079e-05
0.0105 -0.0155 9.17925218132e-05
0.0105 -0.0145 0.00027062888901
0.0105 -0.0135 0.00082434436842
0.0105 -0.0125 0.00243758442678
0.0105 -0.0115 0.00611919008685
0.0105 -0.0105 0.0110878871253
0.0105 -0.0095 0.0140728494943
0.0105 -0.0085 0.0125957415042
0.0105 -0.0075 0.00782239842458
0.0105 -0.0065 0.00341626813691
0.0105 -0.0055 0.00123139511323
0.0105 -0.0045 0.000442546986492
0.0105 -0.0035 0.000155607525743
0.0105 -0.0025 5.98828328171e-05
0.0105 -0.0015 3.02178894797e-05
0.0105 -0.0005 1.99735779494e-05
0.0105 0.0005 1.62631502833e-05
0.0105 0.0015 1.55424688751e-05
0.0105 0.0025 1.69282157906e-05
0.0105 0.0035 2.13815857252e-05
0.0105 0.0045 3.2810864859e-05
0.0105 0.0055 6.24678968403e-05
0.0105 0.0065 0.000140440063583
0.0105 0.0075 0.000414799381771
0.0105 0.0085 0.0011715879478
0.0105 0.0095 0.00301490736743
0.0105 0.0105 0.0062049511524
0.0105 0.0115 0.00906013033926
0.0105 0.0125 0.00913313428197
0.0105 0.0135 0.00625628130763
0.0105 0.0145 0.0028706514546
0.0105 0.0155 0.000973117991306
0.0105 0.0165 0.000324571069564
0.0105 0.0175 0.000127628511505
0.0105 0.0185 6.20319699035e-05
0.0105 0.0195 3.08633112438e-05
0.0105 0.0205 1.65329930813e-05
0.0105 0.0215 1.03592095653e-05
0.0105 0.0225 7.73819181721e-06
0.0105 0.0235 6.6900853635e-06
0.0105 0.0245 6.27555252586e-06
0.0105 0.0255 6.05978815946e-06
0.0105 0.0265 5.86074549013e-06
0.0105 0.0275 5.60437624482e-06
0.0105 0.0285 5.39258270609e-06
0.0105 0.0295 5.09073183306e-06
0.0105 0.0305 6.2123887245e-06
0.0105 0.0315 3.83576838622e-06
0.0115 -0.0315 3.62093398874e-06
0.0115 -0.0305 6.62771792785e-06
0.0115 -0.0295 6.82415509276e-06
0.0115 -0.0285 7.77925110878e-06
0.0115 -0.0275 8.54164606653e-06
0.0115 -0.0265 9.3029061123e-06
0.0115 -0.0255 1.00008018902e-05
0.0115 -0.0245 1.06203098203e-05
0.0115 -0.0235 1.11333583094e-05
0.0115 -0.0225 1.15699725695e-05
0.0115 -0.0215 1.21027666688e-05
0.0115 -0.0205 1.3185282493e-05
0.0115 -0.0195 1.57815447975e-05
0.0115 -0.0185 2.18467714209e-05
0.0115 -0.0175 3.51699596487e-05
0.0115 -0.0165 6.52402975266e-05
0.0115 -0.0155 0.000165146613612
0.0115 -0.0145 0.000479115647432
0.0115 -0.0135 0.00143022948865
0.0115 -0.0125 0.00407611384541
0.0115 -0.0115 0.00876263848905
0.0115 -0.0105 0.0130788722253
0.0115 -0.0095 0.0136451969948
0.0115 -0.0085 0.00988612458951
0.0115 -0.0075 0.00490298162422
0.0115 -0.0065 0.00179923635614
0.0115 -0.0055 0.000602831895159
0.0115 -0.0045 0.000197071970359
0.0115 -0.0035 7.48141026657e-05
0.0115 -0.0025 3.53273492449e-05
0.0115 -0.0015 2.01025178251e-05
0.0115 -0.0005 1.42737151336e-05
0.0115 0.0005 1.22468629847e-05
0.0115 0.0015 1.19264048962e-05
0.0115 0.0025 1.27436220567e-05
0.0115 0.0035 1.51891312076e-05
0.0115 0.0045 2.1259300039e-05
0.0115 0.0055 3.59548964526e-05
0.0115 0.0065 7.56285911253e-05
0.0115 0.0075 0.000198848005405
0.0115 0.0085 0.000548713827662
0.0115 0.0095 0.00148811591324
0.0115 0.0105 0.00375220437458
0.0115 0.0115 0.00720635377087
0.0115 0.0125 0.00954226280317
0.0115 0.0135 0.00853830550464
0.0115 0.0145 0.00512361502548
0.0115 0.0155 0.00217231759356
0.0115 0.0165 0.000814495012868
0.0115 0.0175 0.000337993419572
0.0115 0.0185 0.000146661043239
0.0115 0.0195 5.74976461576e-05
0.0115 0.0205 2.61161728055e-05
0.0115 0.0215 1.38733058662e-05
0.0115 0.0225 9.13060643914e-06
0.0115 0.0235 7.26380799352e-06
0.0115 0.0245 6.50774724559e-06
0.0115 0.0255 6.13803942012e-06
0.0115 0.0265 5.86126500136e-06
0.0115 0.0275 5.5670136684e-06
0.0115 0.0285 5.35139114482e-06
0.0115 0.0295 5.06917841923e-06
0.0115 0.0305 6.27435793911e-06
0.0115 0.0315 3.89729765733e-06
0.0125 -0.0315 3.70713825132e-06
0.0125 -0.0305 6.7765661673e-06
0.0125 -0.0295 6.94574878227e-06
0.0125 -0.0285 7.84862059986e-06
0.0125 -0.0275 8.55307407068e-06
0.0125 -0.0265 9.30492778558e-06
0.0125 -0.0255 1.01063570855e-05
0.0125 -0.0245 1.10013999347e-05
0.0125 -0.0235 1.20029117769e-05
0.0125 -0.0225 1.3183457151e-05
0.0125 -0.0215 1.4839316457e-05
0.0125 -0.0205 1.77463523467e-05
0.0125 -0.0195 2.35699393105e-05
0.0125 -0.0185 3.55495757678e-05
0.0125 -0.0175 6.28771281848e-05
0.0125 -0.0165 0.000131772398879
0.0125 -0.0155 0.000308602256013
0.0125 -0.0145 0.000812973256901
0.0125 -0.0135 0.00237684021195
0.0125 -0.0125 0.00607052127382
0.0125 -0.0115 0.0110155323438
0.0125 -0.0105 0.0137834483929
0.0125 -0.0095 0.0119451382111
0.0125 -0.0085 0.0070042674615
0.0125 -0.0075 0.00283188277935
0.0125 -0.0065 0.000955632753118
0.0125 -0.0055 0.000308155620432
0.0125 -0.0045 9.75355565832e-05
0.0125 -0.0035 4.27929583131e-05
0.0125 -0.0025 2.26094958694e-05
0.0125 -0.0015 1.46236502735e-05
0.0125 -0.0005 1.13659875676e-05
0.0125 0.0005 1.02644189563e-05
0.0125 0.0015 1.01248719069e-05
0.0125 0.0025 1.05626629626e-05
0.0125 0.0035 1.18029208117e-05
0.0125 0.0045 1.48655594055e-05
0.0125 0.0055 2.24173212859e-05
0.0125 0.0065 4.10442941951e-05
0.0125 0.0075 8.74252481884e-05
0.0125 0.0085 0.000229429919389
0.0125 0.0095 0.000686437198408
0.0125 0.0105 0.00198159023312
0.0125 0.0115 0.00478426754546
0.0125 0.0125 0.00825723564859
0.0125 0.0135 0.00968988358013
0.0125 0.0145 0.00778006697756
0.0125 0.0155 0.00440065393669
0.0125 0.0165 0.00194634204166
0.0125 0.0175 0.000824292383423
0.0125 0.0185 0.000341440311452
0.0125 0.0195 0.000121547084639
0.0125 0.0205 4.40876553059e-05
0.0125 0.0215 2.02071903291e-05
0.0125 0.0225 1.17634151492e-05
0.0125 0.0235 8.37007624001e-06
0.0125 0.0245 6.97307381979e-06
0.0125 0.0255 6.31700934081e-06
0.0125 0.0265 5.90015403027e-06
0.0125 0.0275 5.54148966208e-06
0.0125 0.0285 5.31247052517e-06
0.0125 0.0295 5.04631509127e-06
0.0125 0.0305 6.32477151292e-06
0.0125 0.0315 3.94876632894e-06
0.0135 -0.0315 3.81992335241e-06
0.0135 -0.0305 6.99404635392e-06
0.0135 -0.0295 7.16583443614e-06
0.0135 -0.0285 8.02354457737e-06
0.0135 -0.0275 8.64963351532e-06
0.0135 -0.0265 9.36158070484e-06
0.0135 -0.0255 1.02779164021e-05
0.0135 -0.0245 1.15907031395e-05
0.0135 -0.0235 1.34644356646e-05
0.0135 -0.0225 1.61388623333e-05
0.0135 -0.0215 2.02214404137e-05
0.0135 -0.0205 2.72879323258e-05
0.0135 -0.0195 4.05093501573e-05
0.0135 -0.0185 6.67050904127e-05
0.0135 -0.0175 0.000122133947788
0.0135 -0.0165 0.000271348829273
0.0135 -0.0155 0.000594006231969
0.0135 -0.0145 0.00138681269987
0.0135 -0.0135 0.00366179638684
0.0135 -0.0125 0.00802986760757
0.0135 -0.0115 0.0124161323034
0.0135 -0.0105 0.0133014501434
0.0135 -0.0095 0.00969805831084
0.0135 -0.0085 0.0046846262816
0.0135 -0.0075 0.00161990092857
0.0135 -0.0065 0.00052373379406
0.0135 -0.0055 0.000168868039335
0.0135 -0.0045 6.1190678927e-05
0.0135 -0.0035 2.81232509401e-05
0.0135 -0.0025 1.63389521059e-05
0.0135 -0.0015 1.16081721694e-05
0.0135 -0.0005 9.76692027366e-06
0.0135 0.0005 9.16872512282e-06
0.0135 0.0015 9.0924656984e-06
0.0135 0.0025 9.28061802652e-06
0.0135 0.0035 9.83722275928e-06
0.0135 0.0045 1.13154755634e-05
0.0135 0.0055 1.50513260401e-05
0.0135 0.0065 2.38324687838e-05
0.0135 0.0075 4.55426960212e-05
0.0135 0.0085 0.000104271889999
0.0135 0.0095 0.000327634428897
0.0135 0.0105 0.000989207945352
0.0135 0.0115 0.00267731477377
0.0135 0.0125 0.00581415170947
0.0135 0.0135 0.0089268061201
0.0135 0.0145 0.00952873945399
0.0135 0.0155 0.00723100786923
0.0135 0.0165 0.00402860315884
0.0135 0.0175 0.00179107164986
0.0135 0.0185 0.000705732783522
0.0135 0.0195 0.000240709958936
0.0135 0.0205 7.65896002855e-05
0.0135 0.0215 3.25246444295e-05
0.0135 0.0225 1.63593533623e-05
0.0135 0.0235 1.02059503518e-05
0.0135 0.0245 7.72423654216e-06
0.0135 0.0255 6.60098459867e-06
0.0135 0.0265 5.97035458208e-06
0.0135 0.0275 5.52244483707e-06
0.0135 0.0285 5.27440128178e-06
0.0135 0.0295 5.02401510295e-06
0.0135 0.0305 6.36820269204e-06
0.0135 0.0315 3.99328745982e-06
0.0145 -0.0315 3.95945492356e-06
0.0145 -0.0305 7.28841786171e-06
0.0145 -0.0295 7.51517490489e-06
0.0145 -0.0285 8.37845749194e-06
0.0145 -0.0275 8.96415332439e-06
0.0145 -0.0265 9.6799875729e-06
0.0145 -0.0255 1.08364761629e-05
0.0145 -0.0245 1.2953965579e-05
0.0145 -0.0235 1.66180593239e-05
0.0145 -0.0225 2.253640682e-05
0.0145 -0.0215 3.21386013219e-05
0.0145 -0.0205 4.90411292823e-05
0.0145 -0.0195 8.22701700629e-05
0.0145 -0.0185 0.000150754337453
0.0145 -0.0175 0.000308295955141
0.0145 -0.0165 0.000648579881283
0.0145 -0.0155 0.0012322674925
0.0145 -0.0145 0.00238090946001
0.0145 -0.0135 0.00512090136166
0.0145 -0.0125 0.00947114842336
0.0145 -0.0115 0.0127588080142
0.0145 -0.0105 0.0120358362632
0.0145 -0.0095 0.00760295839795
0.0145 -0.0085 0.00316433891923
0.0145 -0.0075 0.00101632176798
0.0145 -0.0065 0.000313518206961
0.0145 -0.0055 9.83387502848e-05