% Model:              Benchmark260518.mph
% Version:            COMSOL 6.2.0.339
% Date:               May 20 2026, 14:03
% Dimension:          2
% Nodes:              4096
% Expressions:        1
% Description:        速度大小
% Length unit:        m
% x                       y                        spf.U (m/s)
5.0E-4                    -0.0315                  1.226902121263E-6
5.0E-4                    -0.0305                  2.4509599069128906E-6
5.0E-4                    -0.0295                  2.7292926214607407E-6
5.0E-4                    -0.0285                  3.0284640929749447E-6
5.0E-4                    -0.0275                  3.191232674062922E-6
5.0E-4                    -0.0265                  3.33262167355767E-6
5.0E-4                    -0.0255                  3.4393649760992562E-6
5.0E-4                    -0.0245                  3.546127717741832E-6
5.0E-4                    -0.0235                  3.6262607079812955E-6
5.0E-4                    -0.0225                  3.6885707239690175E-6
5.0E-4                    -0.0215                  3.760231932166272E-6
5.0E-4                    -0.0205                  3.83331015677331E-6
5.0E-4                    -0.0195                  3.902958861233914E-6
5.0E-4                    -0.0185                  3.984618261963806E-6
5.0E-4                    -0.0175                  4.081874909497913E-6
5.0E-4                    -0.0165                  4.1907835526002035E-6
5.0E-4                    -0.0155                  4.3175596991001155E-6
5.0E-4                    -0.0145                  4.454561567109407E-6
5.0E-4                    -0.0135                  4.5981107002140295E-6
5.0E-4                    -0.0125                  4.745340582676138E-6
5.0E-4                    -0.0115                  4.874495766847901E-6
5.0E-4                    -0.0105                  4.97030185556188E-6
5.0E-4                    -0.0095                  5.018715080885742E-6
5.0E-4                    -0.0085                  5.0157603823281575E-6
5.0E-4                    -0.0075                  4.9754649390296555E-6
5.0E-4                    -0.0065                  4.934341068285714E-6
5.0E-4                    -0.0055                  4.990612375260638E-6
5.0E-4                    -0.0045                  5.096950865484063E-6
5.0E-4                    -0.0035                  5.342112431217685E-6
5.0E-4                    -0.0025                  6.799945352551685E-6
5.0E-4                    -0.0015                  1.1591969849385822E-5
5.0E-4                    -5.0E-4                  2.4737637188756952E-5
5.0E-4                    5.0E-4                   5.947263867611179E-5
5.0E-4                    0.0015                   9.318037772410429E-5
5.0E-4                    0.0025                   1.3764196013145351E-4
5.0E-4                    0.0035                   3.8086785259282854E-4
5.0E-4                    0.0045                   8.800264418748569E-4
5.0E-4                    0.0055                   0.00190573118581771
5.0E-4                    0.0065                   0.017388962955698715
5.0E-4                    0.0075                   0.03179290386249691
5.0E-4                    0.0085                   0.027667727386479414
5.0E-4                    0.0095                   0.011758716549040057
5.0E-4                    0.0105                   4.89697088254735E-4
5.0E-4                    0.0115                   2.6494401455517974E-4
5.0E-4                    0.0125                   1.7827669399476918E-4
5.0E-4                    0.0135                   1.455431560043423E-4
5.0E-4                    0.0145                   7.46414209736834E-5
5.0E-4                    0.0155                   2.6211055930826096E-5
5.0E-4                    0.0165                   1.094525133197566E-5
5.0E-4                    0.0175                   6.779294080257404E-6
5.0E-4                    0.0185                   5.748262671131768E-6
5.0E-4                    0.0195                   5.3272605163352905E-6
5.0E-4                    0.0205                   5.137529956970547E-6
5.0E-4                    0.0215                   4.983511307643622E-6
5.0E-4                    0.0225                   4.836975546646222E-6
5.0E-4                    0.0235                   4.719555242194577E-6
5.0E-4                    0.0245                   4.61072280162006E-6
5.0E-4                    0.0255                   4.481660978856836E-6
5.0E-4                    0.0265                   4.316646762865147E-6
5.0E-4                    0.0275                   4.094679064008575E-6
5.0E-4                    0.0285                   3.8800439264020505E-6
5.0E-4                    0.0295                   3.4684482893571297E-6
5.0E-4                    0.0305                   3.1170276449400205E-6
5.0E-4                    0.0315                   1.5796917909873318E-6
0.0015                    -0.0315                  2.382530189578527E-6
0.0015                    -0.0305                  4.712571221507893E-6
0.0015                    -0.0295                  5.051141856521892E-6
0.0015                    -0.0285                  5.3778659115076534E-6
0.0015                    -0.0275                  5.482995213604192E-6
0.0015                    -0.0265                  5.575283579472835E-6
0.0015                    -0.0255                  5.6429592825083895E-6
0.0015                    -0.0245                  5.719739010206911E-6
0.0015                    -0.0235                  5.7792975010271855E-6
0.0015                    -0.0225                  5.829300705626177E-6
0.0015                    -0.0215                  5.896048436821731E-6
0.0015                    -0.0205                  5.973045912471173E-6
0.0015                    -0.0195                  6.056600488485906E-6
0.0015                    -0.0185                  6.163186284856209E-6
0.0015                    -0.0175                  6.298620353388284E-6
0.0015                    -0.0165                  6.461105836970229E-6
0.0015                    -0.0155                  6.656898629051384E-6
0.0015                    -0.0145                  6.878421089659567E-6
0.0015                    -0.0135                  7.118971276921744E-6
0.0015                    -0.0125                  7.368404280021521E-6
0.0015                    -0.0115                  7.594916718655939E-6
0.0015                    -0.0105                  7.769913416821875E-6
0.0015                    -0.0095                  7.870184450288021E-6
0.0015                    -0.0085                  7.89497283100073E-6
0.0015                    -0.0075                  7.884913847546944E-6
0.0015                    -0.0065                  7.93997918865698E-6
0.0015                    -0.0055                  8.251734755935566E-6
0.0015                    -0.0045                  8.926243895629628E-6
0.0015                    -0.0035                  1.0338403003752172E-5
0.0015                    -0.0025                  1.4092575223657513E-5
0.0015                    -0.0015                  2.3443343323940477E-5
0.0015                    -5.0E-4                  4.607768484239445E-5
0.0015                    5.0E-4                   1.0236325676984098E-4
0.0015                    0.0015                   1.8876420636476914E-4
0.0015                    0.0025                   4.531545755716061E-4
0.0015                    0.0035                   0.0010880288978098423
0.0015                    0.0045                   0.001420055414368444
0.0015                    0.0055                   0.005339548109520301
0.0015                    0.0065                   0.020952382420655117
0.0015                    0.0075                   0.031082991780182125
0.0015                    0.0085                   0.025433319111844807
0.0015                    0.0095                   0.010991881244962717
0.0015                    0.0105                   9.905338046234092E-4
0.0015                    0.0115                   5.635605179972281E-4
0.0015                    0.0125                   2.9425991038944667E-4
0.0015                    0.0135                   2.0764360534293437E-4
0.0015                    0.0145                   1.0839530394136265E-4
0.0015                    0.0155                   4.168695812618389E-5
0.0015                    0.0165                   1.8205736946884453E-5
0.0015                    0.0175                   1.1050459931897778E-5
0.0015                    0.0185                   8.998522184723836E-6
0.0015                    0.0195                   8.25133933139277E-6
0.0015                    0.0205                   7.932749529807721E-6
0.0015                    0.0215                   7.718434940095028E-6
0.0015                    0.0225                   7.536989972486334E-6
0.0015                    0.0235                   7.400071683767733E-6
0.0015                    0.0245                   7.287961879912927E-6
0.0015                    0.0255                   7.171164136441904E-6
0.0015                    0.0265                   7.033618079061029E-6
0.0015                    0.0275                   6.85623671927343E-6
0.0015                    0.0285                   6.704575533125091E-6
0.0015                    0.0295                   6.279719854615471E-6
0.0015                    0.0305                   5.9387874133406E-6
0.0015                    0.0315                   3.0527843050651508E-6
0.0025                    -0.0315                  2.490736941676488E-6
0.0025                    -0.0305                  4.7891654505432315E-6
0.0025                    -0.0295                  4.927061545214268E-6
0.0025                    -0.0285                  5.106865547948861E-6
0.0025                    -0.0275                  5.022715669755437E-6
0.0025                    -0.0265                  4.912978543228708E-6
0.0025                    -0.0255                  4.800197612813243E-6
0.0025                    -0.0245                  4.7034034039945525E-6
0.0025                    -0.0235                  4.625686579812805E-6
0.0025                    -0.0225                  4.568017505211218E-6
0.0025                    -0.0215                  4.531293649731047E-6
0.0025                    -0.0205                  4.518129181062577E-6
0.0025                    -0.0195                  4.530915956787305E-6
0.0025                    -0.0185                  4.573005019400768E-6
0.0025                    -0.0175                  4.648967231287984E-6
0.0025                    -0.0165                  4.762324102947957E-6
0.0025                    -0.0155                  4.913632120465688E-6
0.0025                    -0.0145                  5.101273598085309E-6
0.0025                    -0.0135                  5.318145970938442E-6
0.0025                    -0.0125                  5.5501477085642115E-6
0.0025                    -0.0115                  5.776539456500095E-6
0.0025                    -0.0105                  5.970905810661232E-6
0.0025                    -0.0095                  6.112085186530054E-6
0.0025                    -0.0085                  6.20361254976685E-6
0.0025                    -0.0075                  6.308165255833977E-6
0.0025                    -0.0065                  6.598158969599899E-6
0.0025                    -0.0055                  7.410943772155642E-6
0.0025                    -0.0045                  9.343502784037001E-6
0.0025                    -0.0035                  1.3173849501485434E-5
0.0025                    -0.0025                  1.966313891521843E-5
0.0025                    -0.0015                  3.05794990705705E-5
0.0025                    -5.0E-4                  5.083415358485149E-5
0.0025                    5.0E-4                   1.047200078396437E-4
0.0025                    0.0015                   2.8476312926886433E-4
0.0025                    0.0025                   8.540875579837931E-4
0.0025                    0.0035                   0.0016284094120646482
0.0025                    0.0045                   3.165423892018398E-4
0.0025                    0.0055                   0.009105530889127805
0.0025                    0.0065                   0.023404784485372695
0.0025                    0.0075                   0.029905750861826685
0.0025                    0.0085                   0.022600771243555008
0.0025                    0.0095                   0.009137545416488287
0.0025                    0.0105                   0.001091171177856114
0.0025                    0.0115                   5.21915773106989E-4
0.0025                    0.0125                   1.9698666334508339E-4
0.0025                    0.0135                   1.065208110446877E-4
0.0025                    0.0145                   5.6879962067129706E-5
0.0025                    0.0155                   2.7848432099953642E-5
0.0025                    0.0165                   1.4171519472450158E-5
0.0025                    0.0175                   8.753614454786704E-6
0.0025                    0.0185                   6.807075371844783E-6
0.0025                    0.0195                   6.143848261719769E-6
0.0025                    0.0205                   5.89115721164978E-6
0.0025                    0.0215                   5.78053925557844E-6
0.0025                    0.0225                   5.7288902687314944E-6
0.0025                    0.0235                   5.716026583264367E-6
0.0025                    0.0245                   5.740065685347652E-6
0.0025                    0.0255                   5.7972980215927484E-6
0.0025                    0.0265                   5.884059127218444E-6
0.0025                    0.0275                   5.981523050277359E-6
0.0025                    0.0285                   6.0790735572233216E-6
0.0025                    0.0295                   5.922783873167716E-6
0.0025                    0.0305                   6.03061074729722E-6
0.0025                    0.0315                   3.2450542363154813E-6
0.0035                    -0.0315                  2.699725389382137E-6
0.0035                    -0.0305                  4.991433942458932E-6
0.0035                    -0.0295                  5.037369238090023E-6
0.0035                    -0.0285                  5.3767988027066E-6
0.0035                    -0.0275                  5.379614552692414E-6
0.0035                    -0.0265                  5.2912428834222435E-6
0.0035                    -0.0255                  5.153021707152455E-6
0.0035                    -0.0245                  5.0134908396918775E-6
0.0035                    -0.0235                  4.885721221038748E-6
0.0035                    -0.0225                  4.777172826619454E-6
0.0035                    -0.0215                  4.691745936788517E-6
0.0035                    -0.0205                  4.633014030591244E-6
0.0035                    -0.0195                  4.605067393856424E-6
0.0035                    -0.0185                  4.613097739664415E-6
0.0035                    -0.0175                  4.662750410038711E-6
0.0035                    -0.0165                  4.758994250866224E-6
0.0035                    -0.0155                  4.905321362353741E-6
0.0035                    -0.0145                  5.1027469284722686E-6
0.0035                    -0.0135                  5.349345528533282E-6
0.0035                    -0.0125                  5.639379698761503E-6
0.0035                    -0.0115                  5.961517656816249E-6
0.0035                    -0.0105                  6.297273519471579E-6
0.0035                    -0.0095                  6.623181132136727E-6
0.0035                    -0.0085                  6.928920888999255E-6
0.0035                    -0.0075                  7.271674192826986E-6
0.0035                    -0.0065                  7.89347043292933E-6
0.0035                    -0.0055                  9.44823381823453E-6
0.0035                    -0.0045                  1.3392552624320145E-5
0.0035                    -0.0035                  2.193988614082747E-5
0.0035                    -0.0025                  3.511207808839395E-5
0.0035                    -0.0015                  5.022368887285843E-5
0.0035                    -5.0E-4                  7.642705737432158E-5
0.0035                    5.0E-4                   1.6299546893691868E-4
0.0035                    0.0015                   5.0051625412528E-4
0.0035                    0.0025                   0.0013029707640393727
0.0035                    0.0035                   0.0016422020596864196
0.0035                    0.0045                   0.0023806550381220027
0.0035                    0.0055                   0.01348933304932086
0.0035                    0.0065                   0.025355666526179675
0.0035                    0.0075                   0.028183230835179467
0.0035                    0.0085                   0.019275718135575798
0.0035                    0.0095                   0.006987700793784565
0.0035                    0.0105                   0.001011738174662698
0.0035                    0.0115                   3.1100167065376477E-4
0.0035                    0.0125                   1.419991679217519E-4
0.0035                    0.0135                   8.157244934674484E-5
0.0035                    0.0145                   4.175859659665818E-5
0.0035                    0.0155                   2.2364474690634075E-5
0.0035                    0.0165                   1.3013061084550537E-5
0.0035                    0.0175                   8.799262108219904E-6
0.0035                    0.0185                   7.109891394120962E-6
0.0035                    0.0195                   6.441191120658438E-6
0.0035                    0.0205                   6.151960772264555E-6
0.0035                    0.0215                   6.012057718454212E-6
0.0035                    0.0225                   5.9513571409906155E-6
0.0035                    0.0235                   5.948727006343787E-6
0.0035                    0.0245                   5.995150539961916E-6
0.0035                    0.0255                   6.0793609364717545E-6
0.0035                    0.0265                   6.185604052197922E-6
0.0035                    0.0275                   6.259956232621818E-6
0.0035                    0.0285                   6.278178141848568E-6
0.0035                    0.0295                   5.978299734566525E-6
0.0035                    0.0305                   6.3180583481662E-6
0.0035                    0.0315                   3.566205995016693E-6
0.0045                    -0.0315                  2.8413928490577823E-6
0.0045                    -0.0305                  5.074407460666552E-6
0.0045                    -0.0295                  4.952747558018762E-6
0.0045                    -0.0285                  5.379833675734581E-6
0.0045                    -0.0275                  5.5060383667277105E-6
0.0045                    -0.0265                  5.504461836609416E-6
0.0045                    -0.0255                  5.400178926249185E-6
0.0045                    -0.0245                  5.258133036565607E-6
0.0045                    -0.0235                  5.107312772945649E-6
0.0045                    -0.0225                  4.964900892481519E-6
0.0045                    -0.0215                  4.839994031181296E-6
0.0045                    -0.0205                  4.7397089379548546E-6
0.0045                    -0.0195                  4.671119975811859E-6
0.0045                    -0.0185                  4.641896726904332E-6
0.0045                    -0.0175                  4.660036551827022E-6
0.0045                    -0.0165                  4.7330092948908875E-6
0.0045                    -0.0155                  4.86690435275122E-6
0.0045                    -0.0145                  5.06645940874619E-6
0.0045                    -0.0135                  5.335722783086035E-6
0.0045                    -0.0125                  5.678821070336298E-6
0.0045                    -0.0115                  6.0993860341653395E-6
0.0045                    -0.0105                  6.596819919840318E-6
0.0045                    -0.0095                  7.162876897871668E-6
0.0045                    -0.0085                  7.795262574545908E-6
0.0045                    -0.0075                  8.56987305249062E-6
0.0045                    -0.0065                  9.848387783295154E-6
0.0045                    -0.0055                  1.2736418229986567E-5
0.0045                    -0.0045                  1.993515828769123E-5
0.0045                    -0.0035                  3.775113495682217E-5
0.0045                    -0.0025                  7.248616624906285E-5
0.0045                    -0.0015                  1.01653578319178E-4
0.0045                    -5.0E-4                  1.3458598458579703E-4
0.0045                    5.0E-4                   3.1134550285017386E-4
0.0045                    0.0015                   8.809457077931111E-4
0.0045                    0.0025                   0.0016387674385993714
0.0045                    0.0035                   5.873534828270434E-4
0.0045                    0.0045                   0.0061431670336157505
0.0045                    0.0055                   0.017682543824349143
0.0045                    0.0065                   0.026346719246808304
0.0045                    0.0075                   0.025735421561328024
0.0045                    0.0085                   0.015670629560373992
0.0045                    0.0095                   0.004970438686077942
0.0045                    0.0105                   8.306821366774923E-4
0.0045                    0.0115                   2.0466365767355405E-4
0.0045                    0.0125                   1.0993195843974567E-4
0.0045                    0.0135                   6.368170623407159E-5
0.0045                    0.0145                   3.377951056261944E-5
0.0045                    0.0155                   1.8809078474461835E-5
0.0045                    0.0165                   1.1878473087832008E-5
0.0045                    0.0175                   8.731923073658898E-6
0.0045                    0.0185                   7.363530051704671E-6
0.0045                    0.0195                   6.743847335398177E-6
0.0045                    0.0205                   6.426050508558203E-6
0.0045                    0.0215                   6.25167457082785E-6
0.0045                    0.0225                   6.169141391779484E-6
0.0045                    0.0235                   6.1572946296952855E-6
0.0045                    0.0245                   6.199087595215133E-6
0.0045                    0.0255                   6.269385168417424E-6
0.0045                    0.0265                   6.331789434075981E-6
0.0045                    0.0275                   6.31160053970347E-6
0.0045                    0.0285                   6.20313512136024E-6
0.0045                    0.0295                   5.826602033737688E-6
0.0045                    0.0305                   6.418274186253972E-6
0.0045                    0.0315                   3.754319159165528E-6
0.0055                    -0.0315                  2.959888437010334E-6
0.0055                    -0.0305                  5.159950865996908E-6
0.0055                    -0.0295                  4.881831269248723E-6
0.0055                    -0.0285                  5.336021779969428E-6
0.0055                    -0.0275                  5.5539224093603665E-6
0.0055                    -0.0265                  5.6568267437321125E-6
0.0055                    -0.0255                  5.626285463590732E-6
0.0055                    -0.0245                  5.521295083903024E-6
0.0055                    -0.0235                  5.378768542275471E-6
0.0055                    -0.0225                  5.225214958601512E-6
0.0055                    -0.0215                  5.076271867085305E-6
0.0055                    -0.0205                  4.9432583551003255E-6
0.0055                    -0.0195                  4.836534639903387E-6
0.0055                    -0.0185                  4.767198806469787E-6
0.0055                    -0.0175                  4.746920827442032E-6
0.0055                    -0.0165                  4.786999685372488E-6
0.0055                    -0.0155                  4.897646757629823E-6
0.0055                    -0.0145                  5.08844559134839E-6
0.0055                    -0.0135                  5.37032380257242E-6
0.0055                    -0.0125                  5.758105716742091E-6
0.0055                    -0.0115                  6.272326090859749E-6
0.0055                    -0.0105                  6.938710918826831E-6
0.0055                    -0.0095                  7.786070183206465E-6
0.0055                    -0.0085                  8.860528453931773E-6
0.0055                    -0.0075                  1.0318913303344051E-5
0.0055                    -0.0065                  1.2746969811478826E-5
0.0055                    -0.0055                  1.7944400503844356E-5
0.0055                    -0.0045                  3.0395419820618597E-5
0.0055                    -0.0035                  6.166570337986175E-5
0.0055                    -0.0025                  1.30132689756806E-4
0.0055                    -0.0015                  1.8758169950313218E-4
0.0055                    -5.0E-4                  2.3514216915326237E-4
0.0055                    5.0E-4                   5.823548920893636E-4
0.0055                    0.0015                   0.0012965483247611835
0.0055                    0.0025                   0.0013366167845500088
0.0055                    0.0035                   0.002183663386202088
0.0055                    0.0045                   0.010782447273030134
0.0055                    0.0055                   0.020930485433162383
0.0055                    0.0065                   0.026081730577280686
0.0055                    0.0075                   0.02257002219389027
0.0055                    0.0085                   0.012102319577722422
0.0055                    0.0095                   0.003409469057763458
0.0055                    0.0105                   6.893367811169961E-4
0.0055                    0.0115                   1.937906409620472E-4
0.0055                    0.0125                   8.503150806507611E-5
0.0055                    0.0135                   4.7948404078753967E-5
0.0055                    0.0145                   2.814187630512591E-5
0.0055                    0.0155                   1.697613799628017E-5
0.0055                    0.0165                   1.1435298632974098E-5
0.0055                    0.0175                   8.917471906013184E-6
0.0055                    0.0185                   7.748986235627114E-6
0.0055                    0.0195                   7.145491091388509E-6
0.0055                    0.0205                   6.791602251438661E-6
0.0055                    0.0215                   6.5763946740995935E-6
0.0055                    0.0225                   6.460428841156847E-6
0.0055                    0.0235                   6.420350368604136E-6
0.0055                    0.0245                   6.429499292398628E-6
0.0055                    0.0255                   6.448204932016487E-6
0.0055                    0.0265                   6.4271896114983185E-6
0.0055                    0.0275                   6.295643771246436E-6
0.0055                    0.0285                   6.095455641038378E-6
0.0055                    0.0295                   5.699933318726011E-6
0.0055                    0.0305                   6.505152722632561E-6
0.0055                    0.0315                   3.898561116990733E-6
0.0065                    -0.0315                  3.0855438219017546E-6
0.0065                    -0.0305                  5.264526060920975E-6
0.0065                    -0.0295                  4.81817803005248E-6
0.0065                    -0.0285                  5.259772809818081E-6
0.0065                    -0.0275                  5.5207493413109675E-6
0.0065                    -0.0265                  5.701903711843122E-6
0.0065                    -0.0255                  5.747818713525612E-6
0.0065                    -0.0245                  5.69792133454884E-6
0.0065                    -0.0235                  5.584942087653654E-6
0.0065                    -0.0225                  5.439246467651319E-6
0.0065                    -0.0215                  5.281136435773743E-6
0.0065                    -0.0205                  5.125356394293208E-6
0.0065                    -0.0195                  4.9848896755097676E-6
0.0065                    -0.0185                  4.873897909686852E-6
0.0065                    -0.0175                  4.808368281088763E-6
0.0065                    -0.0165                  4.8050357818586735E-6
0.0065                    -0.0155                  4.880104916611502E-6
0.0065                    -0.0145                  5.049531164334656E-6
0.0065                    -0.0135                  5.331876568924193E-6
0.0065                    -0.0125                  5.753240273497435E-6
0.0065                    -0.0115                  6.352703728737064E-6
0.0065                    -0.0105                  7.189305814175717E-6
0.0065                    -0.0095                  8.35453313169341E-6
0.0065                    -0.0085                  1.0002586833718365E-5
0.0065                    -0.0075                  1.2466845208153777E-5
0.0065                    -0.0065                  1.6690603002692603E-5
0.0065                    -0.0055                  2.5472165026671994E-5