% Model:              Benchmark260518.mph
% Version:            COMSOL 6.2.0.339
% Date:               May 21 2026, 04:33
% Dimension:          2
% Nodes:              4096
% Expressions:        1
% Description:        速度大小
% Length unit:        m
% x                       y                        spf.U (m/s)
% mirrored_by_python_y_to_minus_y, coord_match_decimals=12
0.0005 -0.0315 1.6254171063e-05
0.0005 -0.0305 2.01032966748e-05
0.0005 -0.0295 7.08386214073e-06
0.0005 -0.0285 5.60294761383e-06
0.0005 -0.0275 4.9525167512e-06
0.0005 -0.0265 5.72766910277e-06
0.0005 -0.0255 8.88710952549e-06
0.0005 -0.0245 1.99890399021e-05
0.0005 -0.0235 6.19103151447e-05
0.0005 -0.0225 0.000315056630631
0.0005 -0.0215 0.00170270401882
0.0005 -0.0205 0.00564294004912
0.0005 -0.0195 0.0120128111977
0.0005 -0.0185 0.0186433811657
0.0005 -0.0175 0.0240934469267
0.0005 -0.0165 0.0180476742693
0.0005 -0.0155 0.00623452269994
0.0005 -0.0145 0.0013278327458
0.0005 -0.0135 0.000711787503909
0.0005 -0.0125 0.000933110044649
0.0005 -0.0115 0.000832520432703
0.0005 -0.0105 0.000542969658114
0.0005 -0.0095 0.000236148546017
0.0005 -0.0085 0.000143326692472
0.0005 -0.0075 0.000126939197908
0.0005 -0.0065 6.97798392523e-05
0.0005 -0.0055 2.83073970883e-05
0.0005 -0.0045 1.35439480866e-05
0.0005 -0.0035 8.86662194198e-06
0.0005 -0.0025 7.05465101059e-06
0.0005 -0.0015 6.16823598906e-06
0.0005 -0.0005 5.72229606133e-06
0.0005 0.0005 5.45167794801e-06
0.0005 0.0015 5.30308003656e-06
0.0005 0.0025 5.1964618078e-06
0.0005 0.0035 5.13343789514e-06
0.0005 0.0045 5.11558300165e-06
0.0005 0.0055 5.07357180512e-06
0.0005 0.0065 5.04994389934e-06
0.0005 0.0075 5.02591835234e-06
0.0005 0.0085 4.99193864601e-06
0.0005 0.0095 4.94383455982e-06
0.0005 0.0105 4.87964771152e-06
0.0005 0.0115 4.80236481758e-06
0.0005 0.0125 4.71919851114e-06
0.0005 0.0135 4.63795153929e-06
0.0005 0.0145 4.56426545331e-06
0.0005 0.0155 4.49871234771e-06
0.0005 0.0165 4.43664795441e-06
0.0005 0.0175 4.38532360578e-06
0.0005 0.0185 4.34998822121e-06
0.0005 0.0195 4.32271236558e-06
0.0005 0.0205 4.29847711413e-06
0.0005 0.0215 4.2707891523e-06
0.0005 0.0225 4.24165071494e-06
0.0005 0.0235 4.2137195487e-06
0.0005 0.0245 4.17798824114e-06
0.0005 0.0255 4.13191047758e-06
0.0005 0.0265 4.06011120686e-06
0.0005 0.0275 3.95482528997e-06
0.0005 0.0285 3.81982430831e-06
0.0005 0.0295 3.49074150395e-06
0.0005 0.0305 3.31636904163e-06
0.0005 0.0315 1.73500010559e-06
0.0015 -0.0315 8.75594296668e-06
0.0015 -0.0305 1.26778643022e-05
0.0015 -0.0295 7.03387972402e-06
0.0015 -0.0285 5.54346578883e-06
0.0015 -0.0275 4.99816362513e-06
0.0015 -0.0265 5.72199011331e-06
0.0015 -0.0255 8.77142297601e-06
0.0015 -0.0245 2.00003663569e-05
0.0015 -0.0235 6.48501982337e-05
0.0015 -0.0225 0.000274699591908
0.0015 -0.0215 0.000967178506501
0.0015 -0.0205 0.00326589837515
0.0015 -0.0195 0.00850324926706
0.0015 -0.0185 0.0157036055622
0.0015 -0.0175 0.0227689710036
0.0015 -0.0165 0.0239998173459
0.0015 -0.0155 0.0167404190698
0.0015 -0.0145 0.00783898103796
0.0015 -0.0135 0.00248872192014
0.0015 -0.0125 0.00055722868604
0.0015 -0.0115 0.00101371585861
0.0015 -0.0105 0.00109752786448
0.0015 -0.0095 0.000708860772921
0.0015 -0.0085 0.00033176749022
0.0015 -0.0075 0.000227066406335
0.0015 -0.0065 0.000127227990299
0.0015 -0.0055 5.17544133366e-05
0.0015 -0.0045 2.39560070203e-05
0.0015 -0.0035 1.45194004725e-05
0.0015 -0.0025 1.08840003179e-05
0.0015 -0.0015 9.24340731709e-06
0.0015 -0.0005 8.45923532731e-06
0.0015 0.0005 8.04182220926e-06
0.0015 0.0015 7.83284049479e-06
0.0015 0.0025 7.71255176153e-06
0.0015 0.0035 7.66008683004e-06
0.0015 0.0045 7.66310246159e-06
0.0015 0.0055 7.6489286994e-06
0.0015 0.0065 7.6459362394e-06
0.0015 0.0075 7.63126361245e-06
0.0015 0.0085 7.58874685437e-06
0.0015 0.0095 7.51197578263e-06
0.0015 0.0105 7.40162881753e-06
0.0015 0.0115 7.26680974173e-06
0.0015 0.0125 7.12236226016e-06
0.0015 0.0135 6.98305133542e-06
0.0015 0.0145 6.85910361177e-06
0.0015 0.0155 6.75280189921e-06
0.0015 0.0165 6.65993799347e-06
0.0015 0.0175 6.58674554644e-06
0.0015 0.0185 6.53732744691e-06
0.0015 0.0195 6.5030244601e-06
0.0015 0.0205 6.47738040727e-06
0.0015 0.0215 6.45387702448e-06
0.0015 0.0225 6.4350676746e-06
0.0015 0.0235 6.42457833446e-06
0.0015 0.0245 6.41575148212e-06
0.0015 0.0255 6.40690227185e-06
0.0015 0.0265 6.38767495515e-06
0.0015 0.0275 6.35164533328e-06
0.0015 0.0285 6.31995327862e-06
0.0015 0.0295 6.06957727113e-06
0.0015 0.0305 6.13848647289e-06
0.0015 0.0315 3.29648105223e-06
0.0025 -0.0315 6.56142051268e-06
0.0025 -0.0305 9.72434283054e-06
0.0025 -0.0295 6.1580280488e-06
0.0025 -0.0285 5.51492157214e-06
0.0025 -0.0275 5.12607928552e-06
0.0025 -0.0265 5.82624751353e-06
0.0025 -0.0255 8.73035900628e-06
0.0025 -0.0245 1.91747442414e-05
0.0025 -0.0235 5.57117586687e-05
0.0025 -0.0225 0.000198251369261
0.0025 -0.0215 0.000632813414521
0.0025 -0.0205 0.0018303637902
0.0025 -0.0195 0.00512572289792
0.0025 -0.0185 0.0111290553399
0.0025 -0.0175 0.018684110166
0.0025 -0.0165 0.0235566411991
0.0025 -0.0155 0.0225851525334
0.0025 -0.0145 0.0173600350093
0.0025 -0.0135 0.0110243549018
0.0025 -0.0125 0.00591730745691
0.0025 -0.0115 0.00247622274234
0.0025 -0.0105 0.000996660235553
0.0025 -0.0095 0.000939068640876
0.0025 -0.0085 0.000462147206691
0.0025 -0.0075 0.000232562510225
0.0025 -0.0065 0.000130193891999
0.0025 -0.0055 5.24662573013e-05
0.0025 -0.0045 2.358646531e-05
0.0025 -0.0035 1.27603374348e-05
0.0025 -0.0025 8.36702143599e-06
0.0025 -0.0015 6.47777859714e-06
0.0025 -0.0005 5.63652685922e-06
0.0025 0.0005 5.27909022747e-06
0.0025 0.0015 5.14981367864e-06
0.0025 0.0025 5.13946350062e-06
0.0025 0.0035 5.19331339798e-06
0.0025 0.0045 5.27799227964e-06
0.0025 0.0055 5.37184668872e-06
0.0025 0.0065 5.44622466011e-06
0.0025 0.0075 5.48305314798e-06
0.0025 0.0085 5.46894798704e-06
0.0025 0.0095 5.40228814811e-06
0.0025 0.0105 5.29298036169e-06
0.0025 0.0115 5.15816778417e-06
0.0025 0.0125 5.01689513779e-06
0.0025 0.0135 4.88527118937e-06
0.0025 0.0145 4.77339799706e-06
0.0025 0.0155 4.6849663938e-06
0.0025 0.0165 4.61999967562e-06
0.0025 0.0175 4.57638281448e-06
0.0025 0.0185 4.55157145836e-06
0.0025 0.0195 4.54347984948e-06
0.0025 0.0205 4.5500841323e-06
0.0025 0.0215 4.57140698747e-06
0.0025 0.0225 4.60889063811e-06
0.0025 0.0235 4.66459817917e-06
0.0025 0.0245 4.74159077062e-06
0.0025 0.0255 4.84051458596e-06
0.0025 0.0265 4.96658201694e-06
0.0025 0.0275 5.10948471909e-06
0.0025 0.0285 5.29904863787e-06
0.0025 0.0295 5.36987507897e-06
0.0025 0.0305 6.06837048117e-06
0.0025 0.0315 3.48236825566e-06
0.0035 -0.0315 6.33466483796e-06
0.0035 -0.0305 9.23803205777e-06
0.0035 -0.0295 5.76030435974e-06
0.0035 -0.0285 5.40380068695e-06
0.0035 -0.0275 5.23616531586e-06
0.0035 -0.0265 5.91781548403e-06
0.0035 -0.0255 8.45713812095e-06
0.0035 -0.0245 1.6409731855e-05
0.0035 -0.0235 4.04567074377e-05
0.0035 -0.0225 0.000124539766667
0.0035 -0.0215 0.000376807001348
0.0035 -0.0205 0.00101034119582
0.0035 -0.0195 0.0027310288123
0.0035 -0.0185 0.00652516004379
0.0035 -0.0175 0.0128459654328
0.0035 -0.0165 0.0193657415865
0.0035 -0.0155 0.022824368825
0.0035 -0.0145 0.0225239950178
0.0035 -0.0135 0.0193754374731
0.0035 -0.0125 0.0147256197113
0.0035 -0.0115 0.00968615242551
0.0035 -0.0105 0.00513787809398
0.0035 -0.0095 0.00212199594132
0.0035 -0.0085 0.000827910620541
0.0035 -0.0075 0.000410192060955
0.0035 -0.0065 0.000197208508369
0.0035 -0.0055 7.13820696469e-05
0.0035 -0.0045 3.17839017049e-05
0.0035 -0.0035 1.67673569354e-05
0.0035 -0.0025 1.02438926939e-05
0.0035 -0.0015 7.31424203782e-06
0.0035 -0.0005 6.01074950538e-06
0.0035 0.0005 5.45152088899e-06
0.0035 0.0015 5.25425815287e-06
0.0035 0.0025 5.24296296658e-06
0.0035 0.0035 5.33037931568e-06
0.0035 0.0045 5.46071080892e-06
0.0035 0.0055 5.58647251205e-06
0.0035 0.0065 5.66889983927e-06
0.0035 0.0075 5.68196499124e-06
0.0035 0.0085 5.6194674772e-06
0.0035 0.0095 5.49316968723e-06
0.0035 0.0105 5.3265665747e-06
0.0035 0.0115 5.1465572804e-06
0.0035 0.0125 4.9763129383e-06
0.0035 0.0135 4.83120370267e-06
0.0035 0.0145 4.7180185231e-06
0.0035 0.0155 4.63680776665e-06
0.0035 0.0165 4.58386070135e-06
0.0035 0.0175 4.55461529103e-06
0.0035 0.0185 4.54526528513e-06
0.0035 0.0195 4.55338110238e-06
0.0035 0.0205 4.57817641926e-06
0.0035 0.0215 4.62008511725e-06
0.0035 0.0225 4.68030806336e-06
0.0035 0.0235 4.7598819131e-06
0.0035 0.0245 4.85889241368e-06
0.0035 0.0255 4.97416989807e-06
0.0035 0.0265 5.10191818917e-06
0.0035 0.0275 5.2137374128e-06
0.0035 0.0285 5.34296600265e-06
0.0035 0.0295 5.32973761159e-06
0.0035 0.0305 6.40953710121e-06
0.0035 0.0315 3.88575500904e-06
0.0045 -0.0315 6.37083993515e-06
0.0045 -0.0305 9.26988839167e-06
0.0045 -0.0295 5.74530506699e-06
0.0045 -0.0285 5.4079387331e-06
0.0045 -0.0275 5.30622908988e-06
0.0045 -0.0265 5.93993850697e-06
0.0045 -0.0255 7.97525086277e-06
0.0045 -0.0245 1.36094145412e-05
0.0045 -0.0235 2.87344434156e-05
0.0045 -0.0225 7.42340838235e-05
0.0045 -0.0215 0.000202605159238
0.0045 -0.0205 0.000529458870835
0.0045 -0.0195 0.00132189865919
0.0045 -0.0185 0.0031634903964
0.0045 -0.0175 0.00702654563253
0.0045 -0.0165 0.0127034546327
0.0045 -0.0155 0.0181456764417
0.0045 -0.0145 0.0215637442556
0.0045 -0.0135 0.0224003533435
0.0045 -0.0125 0.0207755600631
0.0045 -0.0115 0.0171034706162
0.0045 -0.0105 0.0119592742871
0.0045 -0.0095 0.00655233537747
0.0045 -0.0085 0.00271444076344
0.0045 -0.0075 0.00100075453675
0.0045 -0.0065 0.000375385280617
0.0045 -0.0055 0.000125481917297
0.0045 -0.0045 5.49834190073e-05
0.0045 -0.0035 2.64051198168e-05
0.0045 -0.0025 1.4632545387e-05
0.0045 -0.0015 9.59030329458e-06
0.0045 -0.0005 7.2835090538e-06
0.0045 0.0005 6.2360259087e-06
0.0045 0.0015 5.80597294271e-06
0.0045 0.0025 5.70153957825e-06
0.0045 0.0035 5.77006520829e-06
0.0045 0.0045 5.90603586321e-06
0.0045 0.0055 6.02390742317e-06
0.0045 0.0065 6.06370185837e-06
0.0045 0.0075 6.0015664086e-06
0.0045 0.0085 5.84711055704e-06
0.0045 0.0095 5.63181508151e-06
0.0045 0.0105 5.39430306506e-06
0.0045 0.0115 5.1682938057e-06
0.0045 0.0125 4.97612676325e-06
0.0045 0.0135 4.82772000998e-06
0.0045 0.0145 4.72313990415e-06
0.0045 0.0155 4.65665284558e-06
0.0045 0.0165 4.62064506541e-06
0.0045 0.0175 4.60843602252e-06
0.0045 0.0185 4.61570050882e-06
0.0045 0.0195 4.64052778968e-06
0.0045 0.0205 4.68259389096e-06
0.0045 0.0215 4.74208854189e-06
0.0045 0.0225 4.81863095969e-06
0.0045 0.0235 4.91003817086e-06
0.0045 0.0245 5.01124287749e-06
0.0045 0.0255 5.11023226677e-06
0.0045 0.0265 5.19082174125e-06
0.0045 0.0275 5.21351078091e-06
0.0045 0.0285 5.23684859947e-06
0.0045 0.0295 5.17465426029e-06
0.0045 0.0305 6.55243896952e-06
0.0045 0.0315 4.11118710076e-06
0.0055 -0.0315 6.4023579247e-06
0.0055 -0.0305 9.33918533165e-06
0.0055 -0.0295 5.83662820335e-06
0.0055 -0.0285 5.50488371307e-06
0.0055 -0.0275 5.38285455457e-06
0.0055 -0.0265 5.89370455296e-06
0.0055 -0.0255 7.45023917865e-06
0.0055 -0.0245 1.15592259246e-05
0.0055 -0.0235 2.18010206462e-05
0.0055 -0.0225 4.62060160591e-05
0.0055 -0.0215 0.000106331706932
0.0055 -0.0205 0.000257944697315
0.0055 -0.0195 0.000608984024465
0.0055 -0.0185 0.00135776741072
0.0055 -0.0175 0.00304056135391
0.0055 -0.0165 0.00627842520158
0.0055 -0.0155 0.0108714981767
0.0055 -0.0145 0.0156845837791
0.0055 -0.0135 0.0194644734705
0.0055 -0.0125 0.0213208521084
0.0055 -0.0115 0.0207621947056
0.0055 -0.0105 0.0176903042341
0.0055 -0.0095 0.0124809736416
0.0055 -0.0085 0.00670151180661
0.0055 -0.0075 0.00264300931552
0.0055 -0.0065 0.000888270935126
0.0055 -0.0055 0.000327364871671
0.0055 -0.0045 0.000127749385932
0.0055 -0.0035 5.01148060328e-05
0.0055 -0.0025 2.51579372527e-05
0.0055 -0.0015 1.5242974447e-05
0.0055 -0.0005 1.07784687169e-05
0.0055 0.0005 8.5497509083e-06
0.0055 0.0015 7.43732737045e-06
0.0055 0.0025 6.94954636093e-06
0.0055 0.0035 6.81602652976e-06
0.0055 0.0045 6.82688976964e-06
0.0055 0.0055 6.82226177594e-06
0.0055 0.0065 6.71654251056e-06
0.0055 0.0075 6.49494285832e-06
0.0055 0.0085 6.19115592804e-06
0.0055 0.0095 5.85814475926e-06
0.0055 0.0105 5.54442531673e-06
0.0055 0.0115 5.28174251904e-06
0.0055 0.0125 5.08309479115e-06
0.0055 0.0135 4.94690656433e-06
0.0055 0.0145 4.86316883148e-06
0.0055 0.0155 4.81914539767e-06
0.0055 0.0165 4.80361619616e-06
0.0055 0.0175 4.80909275408e-06
0.0055 0.0185 4.8319162395e-06
0.0055 0.0195 4.87093485775e-06
0.0055 0.0205 4.92573594469e-06
0.0055 0.0215 4.9950461122e-06
0.0055 0.0225 5.0754873294e-06
0.0055 0.0235 5.16012548204e-06
0.0055 0.0245 5.2370689425e-06
0.0055 0.0255 5.28557343795e-06
0.0055 0.0265 5.28354986955e-06
0.0055 0.0275 5.19978722715e-06
0.0055 0.0285 5.13951674135e-06
0.0055 0.0295 5.06075966049e-06
0.0055 0.0305 6.69891825822e-06
0.0055 0.0315 4.30780373527e-06
0.0065 -0.0315 6.48281589417e-06
0.0065 -0.0305 9.47285526868e-06
0.0065 -0.0295 5.95042640762e-06
0.0065 -0.0285 5.624585092e-06
0.0065 -0.0275 5.47746895984e-06
0.0065 -0.0265 5.85660621152e-06
0.0065 -0.0255 6.98693433332e-06
0.0065 -0.0245 9.8907312716e-06
0.0065 -0.0235 1.65711002971e-05
0.0065 -0.0225 3.07747322469e-05
0.0065 -0.0215 6.09867350828e-05
0.0065 -0.0205 0.000124653859965
0.0065 -0.0195 0.000268980426521
0.0065 -0.0185 0.000572778585714
0.0065 -0.0175 0.00117501541104
0.0065 -0.0165 0.00240492586023
0.0065 -0.0155 0.00470192348589
0.0065 -0.0145 0.00823659307146
0.0065 -0.0135 0.0126381229253
0.0065 -0.0125 0.0169402296543
0.0065 -0.0115 0.019810526792
0.0065 -0.0105 0.0201624839526
0.0065 -0.0095 0.0174250028727
0.0065 -0.0085 0.0119008281232
0.0065 -0.0075 0.00588007262973
0.0065 -0.0065 0.00216428111998
0.0065 -0.0055 0.000794488361823
0.0065 -0.0045 0.000311500965936
0.0065 -0.0035 0.000114597707808
0.0065 -0.0025 5.05113903692e-05
0.0065 -0.0015 2.90663704663e-05
0.0065 -0.0005 1.94152711716e-05
0.0065 0.0005 1.42710108586e-05
0.0065 0.0015 1.11925356267e-05
0.0065 0.0025 9.47687341224e-06
0.0065 0.0035 8.63600676979e-06
0.0065 0.0045 8.19826001419e-06
0.0065 0.0055 7.84742489723e-06
0.0065 0.0065 7.43573553961e-06
0.0065 0.0075 6.95029564267e-06
0.0065 0.0085 6.44552940853e-06
0.0065 0.0095 5.9847482883e-06
0.0065 0.0105 5.60992973188e-06
0.0065 0.0115 5.33544514619e-06
0.0065 0.0125 5.15458046408e-06
0.0065 0.0135 5.04906936961e-06
0.0065 0.0145 4.99733370488e-06
0.0065 0.0155 4.9806125184e-06
0.0065 0.0165 4.98634913363e-06
0.0065 0.0175 5.00840112705e-06
0.0065 0.0185 5.04490158744e-06
0.0065 0.0195 5.0953697218e-06
0.0065 0.0205 5.15832036375e-06
0.0065 0.0215 5.2297388258e-06
0.0065 0.0225 5.30213604763e-06
0.0065 0.0235 5.36342001526e-06
0.0065 0.0245 5.39626154676e-06
0.0065 0.0255 5.37675920598e-06
0.0065 0.0265 5.28885275761e-06
0.0065 0.0275 5.12204033412e-06
0.0065 0.0285 5.01991789801e-06
0.0065 0.0295 4.95628740854e-06
0.0065 0.0305 6.82077132917e-06
0.0065 0.0315 4.46602454608e-06
0.0075 -0.0315 6.6400496483e-06
0.0075 -0.0305 9.68397131635e-06
0.0075 -0.0295 6.06407190966e-06
0.0075 -0.0285 5.74282209626e-06
0.0075 -0.0275 5.58124866557e-06
0.0075 -0.0265 5.86273635269e-06
0.0075 -0.0255 6.63584859828e-06
0.0075 -0.0245 8.50281796991e-06
0.0075 -0.0235 1.25554747035e-05
0.0075 -0.0225 2.06406603242e-05
0.0075 -0.0215 3.57135364379e-05
0.0075 -0.0205 6.41714699087e-05
0.0075 -0.0195 0.000120961979912
0.0075 -0.0185 0.000237662589131
0.0075 -0.0175 0.000469334113846
0.0075 -0.0165 0.000869484734027
0.0075 -0.0155 0.00160204432206
0.0075 -0.0145 0.00311046539001
0.0075 -0.0135 0.00591763111072
0.0075 -0.0125 0.0102504114112
0.0075 -0.0115 0.0153134406294
0.0075 -0.0105 0.0191377720407
0.0075 -0.0095 0.0198626936783
0.0075 -0.0085 0.0165435799101
0.0075 -0.0075 0.010282369063
0.0075 -0.0065 0.00459745161042
0.0075 -0.0055 0.00170198293189
0.0075 -0.0045 0.000684790831313
0.0075 -0.0035 0.000287559949758
0.0075 -0.0025 0.000125268243111
0.0075 -0.0015 6.69722521686e-05
0.0075 -0.0005 4.45059470928e-05
0.0075 0.0005 2.97696715209e-05
0.0075 0.0015 2.02328596693e-05
0.0075 0.0025 1.48489792172e-05
0.0075 0.0035 1.19552362402e-05
0.0075 0.0045 1.03580164176e-05
0.0075 0.0055 9.24012818474e-06
0.0075 0.0065 8.25735666153e-06
0.0075 0.0075 7.36059555101e-06
0.0075 0.0085 6.59745976756e-06
0.0075 0.0095 6.00818398929e-06
0.0075 0.0105 5.59684142596e-06
0.0075 0.0115 5.3395130938e-06
0.0075 0.0125 5.19931236518e-06
0.0075 0.0135 5.13762864095e-06
0.0075 0.0145 5.12210183803e-06
0.0075 0.0155 5.13139640512e-06
0.0075 0.0165 5.1553975424e-06
0.0075 0.0175 5.19154655575e-06
0.0075 0.0185 5.23996992464e-06
0.0075 0.0195 5.2996539125e-06
0.0075 0.0205 5.3664302858e-06
0.0075 0.0215 5.43234212047e-06
0.0075 0.0225 5.48561236826e-06
0.0075 0.0235 5.51047923753e-06
0.0075 0.0245 5.48832288814e-06
0.0075 0.0255 5.39942642075e-06
0.0075 0.0265 5.24086066099e-06
0.0075 0.0275 5.02106116948e-06
0.0075 0.0285 4.90677137976e-06
0.0075 0.0295 4.87144695466e-06
0.0075 0.0305 6.92190914331e-06
0.0075 0.0315 4.59122662256e-06
0.0085 -0.0315 6.77582866031e-06
0.0085 -0.0305 9.87452243864e-06
0.0085 -0.0295 6.17234863195e-06
0.0085 -0.0285 5.85342770109e-06
0.0085 -0.0275 5.68959007628e-06
0.0085 -0.0265 5.91172870287e-06
0.0085 -0.0255 6.42934362151e-06
0.0085 -0.0245 7.55377084008e-06
0.0085 -0.0235 9.83753793858e-06
0.0085 -0.0225 1.4160712876e-05
0.0085 -0.0215 2.18000243618e-05
0.0085 -0.0205 3.48391632097e-05
0.0085 -0.0195 5.76410591163e-05
0.0085 -0.0185 0.000101760585797
0.0085 -0.0175 0.000183053543469
0.0085 -0.0165 0.000312339456391
0.0085 -0.0155 0.000539217222672
0.0085 -0.0145 0.00103640112075
0.0085 -0.0135 0.00219947899763
0.0085 -0.0125 0.00483141008754
0.0085 -0.0115 0.00963450215561
0.0085 -0.0105 0.0154884925558
0.0085 -0.0095 0.0194607392335
0.0085 -0.0085 0.0191900066517
0.0085 -0.0075 0.0145437168701
0.0085 -0.0065 0.0081596396468
0.0085 -0.0055 0.00350996384044
0.0085 -0.0045 0.00144735041301
0.0085 -0.0035 0.000700670922031
0.0085 -0.0025 0.000369414062839
0.0085 -0.0015 0.000212135300845
0.0085 -0.0005 0.000129798576548
0.0085 0.0005 7.3595466731e-05
0.0085 0.0015 4.2814436687e-05
0.0085 0.0025 2.63824965128e-05
0.0085 0.0035 1.84085922655e-05
0.0085 0.0045 1.42340184724e-05
0.0085 0.0055 1.15123796485e-05
0.0085 0.0065 9.44812228782e-06
0.0085 0.0075 7.86517243643e-06
0.0085 0.0085 6.73079559615e-06
0.0085 0.0095 5.9883345691e-06
0.0085 0.0105 5.55055198304e-06
0.0085 0.0115 5.32645660743e-06
0.0085 0.0125 5.23613298974e-06
0.0085 0.0135 5.21754835818e-06
0.0085 0.0145 5.23104462054e-06
0.0085 0.0155 5.25838803305e-06
0.0085 0.0165 5.29566767061e-06
0.0085 0.0175 5.34439667859e-06
0.0085 0.0185 5.40486929619e-06
0.0085 0.0195 5.47304050362e-06
0.0085 0.0205 5.54019551206e-06
0.0085 0.0215 5.59394072591e-06
0.0085 0.0225 5.61942619766e-06
0.0085 0.0235 5.60036001911e-06
0.0085 0.0245 5.52165612426e-06
0.0085 0.0255 5.3723123129e-06
0.0085 0.0265 5.16259273646e-06
0.0085 0.0275 4.91308824795e-06
0.0085 0.0285 4.80360597622e-06
0.0085 0.0295 4.8009709933e-06
0.0085 0.0305 7.01296560395e-06
0.0085 0.0315 4.69900535688e-06
0.0095 -0.0315 6.90617629061e-06
0.0095 -0.0305 1.00579662444e-05
0.0095 -0.0295 6.27132251213e-06
0.0095 -0.0285 5.95363576713e-06
0.0095 -0.0275 5.7961044686e-06
0.0095 -0.0265 5.99176050695e-06
0.0095 -0.0255 6.36085477012e-06
0.0095 -0.0245 7.04440872696e-06
0.0095 -0.0235 8.28853313323e-06
0.0095 -0.0225 1.05117996674e-05
0.0095 -0.0215 1.42992645823e-05
0.0095 -0.0205 2.04872148479e-05
0.0095 -0.0195 3.06757886035e-05
0.0095 -0.0185 4.71515559704e-05
0.0095 -0.0175 7.16005441876e-05
0.0095 -0.0165 0.000109318318341
0.0095 -0.0155 0.000185632424493
0.0095 -0.0145 0.000374687333983
0.0095 -0.0135 0.000855378169626
0.0095 -0.0125 0.00207429777108
0.0095 -0.0115 0.00521120644785
0.0095 -0.0105 0.0108928521439
0.0095 -0.0095 0.0168297693027
0.0095 -0.0085 0.0194062027372
0.0095 -0.0075 0.0173025157887
0.0095 -0.0065 0.0119974591382
0.0095 -0.0055 0.00654267677055
0.0095 -0.0045 0.00320033555954
0.0095 -0.0035 0.00174994870487
0.0095 -0.0025 0.00108854455893
0.0095 -0.0015 0.00069124190671
0.0095 -0.0005 0.000416630165472
0.0095 0.0005 0.00021392303064
0.0095 0.0015 9.64944559075e-05
0.0095 0.0025 5.09112633403e-05
0.0095 0.0035 3.21987409526e-05
0.0095 0.0045 2.24762924991e-05
0.0095 0.0055 1.62634648558e-05
0.0095 0.0065 1.18931063239e-05
0.0095 0.0075 8.94240886451e-06
0.0095 0.0085 7.11939106934e-06
0.0095 0.0095 6.09465667347e-06
0.0095 0.0105 5.57988687666e-06
0.0095 0.0115 5.36377367167e-06
0.0095 0.0125 5.30093570056e-06
0.0095 0.0135 5.30169172841e-06
0.0095 0.0145 5.32413150788e-06
0.0095 0.0155 5.35786350845e-06
0.0095 0.0165 5.4053706358e-06
0.0095 0.0175 5.46887340304e-06
0.0095 0.0185 5.54448358121e-06
0.0095 0.0195 5.62183310692e-06
0.0095 0.0205 5.68638677435e-06
0.0095 0.0215 5.72214573393e-06
0.0095 0.0225 5.71376342581e-06
0.0095 0.0235 5.64805038482e-06
0.0095 0.0245 5.51675483272e-06
0.0095 0.0255 5.31839266014e-06
0.0095 0.0265 5.07333384774e-06
0.0095 0.0275 4.80880064844e-06
0.0095 0.0285 4.71277385908e-06
0.0095 0.0295 4.74392773374e-06
0.0095 0.0305 7.09813592339e-06
0.0095 0.0315 4.79461852941e-06
0.0105 -0.0315 7.09219797034e-06
0.0105 -0.0305 1.02872409636e-05
0.0105 -0.0295 6.3538877034e-06
0.0105 -0.0285 6.04140080155e-06
0.0105 -0.0275 5.89329880733e-06
0.0105 -0.0265 6.08680401473e-06
0.0105 -0.0255 6.38874148977e-06
0.0105 -0.0245 6.85214484644e-06
0.0105 -0.0235 7.57128002307e-06
0.0105 -0.0225 8.73318119957e-06
0.0105 -0.0215 1.06118177507e-05
0.0105 -0.0205 1.36072854573e-05
0.0105 -0.0195 1.82170357389e-05
0.0105 -0.0185 2.4952282484e-05
0.0105 -0.0175 3.4910639266e-05
0.0105 -0.0165 5.15170068582e-05
0.0105 -0.0155 8.46262390442e-05
0.0105 -0.0145 0.000159411352717
0.0105 -0.0135 0.000400393072836
0.0105 -0.0125 0.00101033791575
0.0105 -0.0115 0.002716440532
0.0105 -0.0105 0.0069723623334
0.0105 -0.0095 0.013179554083
0.0105 -0.0085 0.0175987979693
0.0105 -0.0075 0.0178341248236
0.0105 -0.0065 0.0146046800067
0.0105 -0.0055 0.010085340249
0.0105 -0.0045 0.00649733243953
0.0105 -0.0035 0.0044083389958
0.0105 -0.0025 0.00309609331582
0.0105 -0.0015 0.00203965271498
0.0105 -0.0005 0.00117212795231
0.0105 0.0005 0.000544742533381
0.0105 0.0015 0.000217268959064
0.0105 0.0025 0.000109439385072
0.0105 0.0035 6.57890429223e-05
0.0105 0.0045 4.29355802112e-05
0.0105 0.0055 2.78174250232e-05
0.0105 0.0065 1.77416554538e-05
0.0105 0.0075 1.16539159839e-05
0.0105 0.0085 8.33867462709e-06
0.0105 0.0095 6.65402630581e-06
0.0105 0.0105 5.86343583857e-06
0.0105 0.0115 5.54037577927e-06
0.0105 0.0125 5.42810860423e-06
0.0105 0.0135 5.39560724525e-06
0.0105 0.0145 5.39770916184e-06
0.0105 0.0155 5.42843409674e-06
0.0105 0.0165 5.48917970429e-06
0.0105 0.0175 5.57459553893e-06
0.0105 0.0185 5.67048051288e-06
0.0105 0.0195 5.75740095762e-06
0.0105 0.0205 5.81537666851e-06
0.0105 0.0215 5.82726926391e-06
0.0105 0.0225 5.780569092e-06
0.0105 0.0235 5.66812381345e-06
0.0105 0.0245 5.48974419212e-06
0.0105 0.0255 5.25219306644e-06
0.0105 0.0265 4.98275855474e-06
0.0105 0.0275 4.71187096327e-06
0.0105 0.0285 4.6333742883e-06
0.0105 0.0295 4.69767692624e-06
0.0105 0.0305 7.18232193634e-06
0.0105 0.0315 4.8845608017e-06
0.0115 -0.0315 7.20701610543e-06
0.0115 -0.0305 1.04407437029e-05
0.0115 -0.0295 6.42259444204e-06
0.0115 -0.0285 6.11278308081e-06
0.0115 -0.0275 5.97558271346e-06
0.0115 -0.0265 6.18032306186e-06
0.0115 -0.0255 6.46398442387e-06
0.0115 -0.0245 6.83706579043e-06
0.0115 -0.0235 7.32320892488e-06
0.0115 -0.0225 8.00512255082e-06
0.0115 -0.0215 9.01454384869e-06
0.0115 -0.0205 1.05418069652e-05
0.0115 -0.0195 1.28487763774e-05
0.0115 -0.0185 1.63769396767e-05
0.0115 -0.0175 2.21544796081e-05
0.0115 -0.0165 3.25747164102e-05
0.0115 -0.0155 5.36407039213e-05
0.0115 -0.0145 0.000102562399635
0.0115 -0.0135 0.000251470290515
0.0115 -0.0125 0.000616199497347
0.0115 -0.0115 0.00157739205927
0.0115 -0.0105 0.00443190492622
0.0115 -0.0095 0.0097053533395
0.0115 -0.0085 0.0145937129259
0.0115 -0.0075 0.0162215898654
0.0115 -0.0065 0.0148545528576
0.0115 -0.0055 0.0123331201837
0.0115 -0.0045 0.0102749545376
0.0115 -0.0035 0.008826423021
0.0115 -0.0025 0.00731272876165
0.0115 -0.0015 0.00537699605694
0.0115 -0.0005 0.00319931759677
0.0115 0.0005 0.00145834262954
0.0115 0.0015 0.000575577878419
0.0115 0.0025 0.000267105165705
0.0115 0.0035 0.000160044399481
0.0115 0.0045 0.000101351117228
0.0115 0.0055 5.89004304367e-05
0.0115 0.0065 3.19825974087e-05
0.0115 0.0075 1.82908554727e-05
0.0115 0.0085 1.16433347958e-05
0.0115 0.0095 8.27371652668e-06
0.0115 0.0105 6.66845172037e-06
0.0115 0.0115 5.96488122426e-06
0.0115 0.0125 5.65073297439e-06
0.0115 0.0135 5.50408916682e-06
0.0115 0.0145 5.45411551712e-06
0.0115 0.0155 5.4796515325e-06
0.0115 0.0165 5.56351395154e-06
0.0115 0.0175 5.68044734994e-06
0.0115 0.0185 5.80006640745e-06
0.0115 0.0195 5.89339700981e-06
0.0115 0.0205 5.93776286501e-06
0.0115 0.0215 5.91866205907e-06
0.0115 0.0225 5.82963805819e-06
0.0115 0.0235 5.67124247844e-06
0.0115 0.0245 5.45102316386e-06
0.0115 0.0255 5.18199762651e-06
0.0115 0.0265 4.89574930155e-06
0.0115 0.0275 4.62364664622e-06
0.0115 0.0285 4.56404127695e-06
0.0115 0.0295 4.65861632465e-06
0.0115 0.0305 7.26830184093e-06
0.0115 0.0315 4.97413336984e-06
0.0125 -0.0315 7.25406639218e-06
0.0125 -0.0305 1.05226325048e-05
0.0125 -0.0295 6.47829591839e-06
0.0125 -0.0285 6.1666273302e-06
0.0125 -0.0275 6.03883485976e-06
0.0125 -0.0265 6.25891271087e-06
0.0125 -0.0255 6.54707392646e-06
0.0125 -0.0245 6.8922945108e-06
0.0125 -0.0235 7.28586947344e-06
0.0125 -0.0225 7.76715470587e-06
0.0125 -0.0215 8.41420232804e-06
0.0125 -0.0205 9.37089295826e-06
0.0125 -0.0195 1.09122582341e-05
0.0125 -0.0185 1.36086275793e-05
0.0125 -0.0175 1.87005909863e-05
0.0125 -0.0165 2.87416047075e-05
0.0125 -0.0155 4.96743601322e-05
0.0125 -0.0145 9.55151959022e-05
0.0125 -0.0135 0.000228001847151
0.0125 -0.0125 0.000557196194833
0.0125 -0.0115 0.00134393554709
0.0125 -0.0105 0.0034464091514
0.0125 -0.0095 0.0074131233758
0.0125 -0.0085 0.0113599601169
0.0125 -0.0075 0.0129915421075
0.0125 -0.0065 0.0125491906812
0.0125 -0.0055 0.0118698637306
0.0125 -0.0045 0.0120476877827
0.0125 -0.0035 0.0124103668527
0.0125 -0.0025 0.0120766701763
0.0125 -0.0015 0.0105510056361
0.0125 -0.0005 0.00761298559893
0.0125 0.0005 0.00414390087596
0.0125 0.0015 0.00177851251854
0.0125 0.0025 0.000832785604438
0.0125 0.0035 0.000496704009331
0.0125 0.0045 0.000292236105306
0.0125 0.0055 0.000148118577898
0.0125 0.0065 6.81190368116e-05
0.0125 0.0075 3.64110176753e-05
0.0125 0.0085 2.00695449706e-05
0.0125 0.0095 1.19492326702e-05
0.0125 0.0105 8.37952849151e-06
0.0125 0.0115 6.79716191891e-06
0.0125 0.0125 6.03165428075e-06
0.0125 0.0135 5.65739615146e-06
0.0125 0.0145 5.52034230081e-06
0.0125 0.0155 5.54230653805e-06
0.0125 0.0165 5.65933244007e-06
0.0125 0.0175 5.81224067767e-06
0.0125 0.0185 5.95116886994e-06
0.0125 0.0195 6.04046676046e-06
0.0125 0.0205 6.05952227083e-06
0.0125 0.0215 6.00050995569e-06
0.0125 0.0225 5.86530279787e-06
0.0125 0.0235 5.66241939597e-06
0.0125 0.0245 5.40568801152e-06
0.0125 0.0255 5.11199732433e-06
0.0125 0.0265 4.81485026055e-06
0.0125 0.0275 4.54486769329e-06
0.0125 0.0285 4.50361737097e-06
0.0125 0.0295 4.62358983935e-06
0.0125 0.0305 7.33684428944e-06
0.0125 0.0315 5.04613984979e-06
0.0135 -0.0315 7.36673007625e-06
0.0135 -0.0305 1.06628159801e-05
0.0135 -0.0295 6.52185021838e-06
0.0135 -0.0285 6.20554799393e-06
0.0135 -0.0275 6.08015211802e-06
0.0135 -0.0265 6.31287953742e-06
0.0135 -0.0255 6.61099245396e-06
0.0135 -0.0245 6.95174021174e-06
0.0135 -0.0235 7.31045929934e-06
0.0135 -0.0225 7.71162750737e-06
0.0135 -0.0215 8.23096981142e-06
0.0135 -0.0205 9.05162474606e-06
0.0135 -0.0195 1.05833956015e-05
0.0135 -0.0185 1.36971672189e-05
0.0135 -0.0175 2.01516540616e-05
0.0135 -0.0165 3.34874371036e-05
0.0135 -0.0155 6.26808835632e-05
0.0135 -0.0145 0.000135371347373
0.0135 -0.0135 0.000346039338108
0.0135 -0.0125 0.000893030285348
0.0135 -0.0115 0.00210977641614
0.0135 -0.0105 0.00434018083434
0.0135 -0.0095 0.00717592024337
0.0135 -0.0085 0.00915709082729
0.0135 -0.0075 0.00926317120039
0.0135 -0.0065 0.00833336366574
0.0135 -0.0055 0.00840285236813
0.0135 -0.0045 0.00975646739252
0.0135 -0.0035 0.0113081349759
0.0135 -0.0025 0.012784015692
0.0135 -0.0015 0.0136787183619
0.0135 -0.0005 0.0126005643118
0.0135 0.0005 0.00908333391285
0.0135 0.0015 0.00504971382312
0.0135 0.0025 0.00249486853828
0.0135 0.0035 0.00134134196219
0.0135 0.0045 0.000758513476068
0.0135 0.0055 0.000392671749302
0.0135 0.0065 0.000191288195451
0.0135 0.0075 9.27725643899e-05
0.0135 0.0085 3.88907178578e-05
0.0135 0.0095 1.91539436065e-05
0.0135 0.0105 1.17311733378e-05
0.0135 0.0115 8.41170930036e-06
0.0135 0.0125 6.75739816688e-06
0.0135 0.0135 5.96346117257e-06
0.0135 0.0145 5.67490514843e-06
0.0135 0.0155 5.6775743353e-06
0.0135 0.0165 5.82084896531e-06
0.0135 0.0175 5.99698638033e-06
0.0135 0.0185 6.13632096938e-06
0.0135 0.0195 6.20151957647e-06
0.0135 0.0205 6.17885334633e-06
0.0135 0.0215 6.07008756971e-06
0.0135 0.0225 5.88613902162e-06
0.0135 0.0235 5.64220493148e-06
0.0135 0.0245 5.3557891126e-06
0.0135 0.0255 5.04475975371e-06
0.0135 0.0265 4.74220339375e-06
0.0135 0.0275 4.47682741901e-06
0.0135 0.0285 4.45208698735e-06
0.0135 0.0295 4.5922832926e-06
0.0135 0.0305 7.36932122033e-06
0.0135 0.0315 5.08182875293e-06
0.0145 -0.0315 7.49548792878e-06
0.0145 -0.0305 1.08213728792e-05
0.0145 -0.0295 6.56470602616e-06
0.0145 -0.0285 6.23190105888e-06
0.0145 -0.0275 6.09914658801e-06
0.0145 -0.0265 6.33579012089e-06
0.0145 -0.0255 6.63925162303e-06
0.0145 -0.0245 6.98047442124e-06
0.0145 -0.0235 7.32804893676e-06
0.0145 -0.0225 7.70843267964e-06
0.0145 -0.0215 8.22812510505e-06
0.0145 -0.0205 9.17047045432e-06
0.0145 -0.0195 1.11854723451e-05
0.0145 -0.0185 1.56795633668e-05
0.0145 -0.0175 2.54866720735e-05
0.0145 -0.0165 4.72725936795e-05
0.0145 -0.0155 0.00010006113973
0.0145 -0.0145 0.000255522620976
0.0145 -0.0135 0.000699972595399
0.0145 -0.0125 0.00184869158203
0.0145 -0.0115 0.00400661589507
0.0145 -0.0105 0.00664507360302
0.0145 -0.0095 0.00845688147052
0.0145 -0.0085 0.00837094214639
0.0145 -0.0075 0.00642949211346