% Model:              Benchmark260518.mph
% Version:            COMSOL 6.2.0.339
% Date:               May 21 2026, 13:49
% Dimension:          2
% Nodes:              4096
% Expressions:        1
% Description:        速度大小
% Length unit:        m
% x                       y                        spf.U (m/s)
5.0E-4                    -0.0315                  2.0224254853841277E-6
5.0E-4                    -0.0305                  4.093692823986775E-6
5.0E-4                    -0.0295                  4.646728701604013E-6
5.0E-4                    -0.0285                  5.23234058887527E-6
5.0E-4                    -0.0275                  5.567072051881344E-6
5.0E-4                    -0.0265                  5.856181662691288E-6
5.0E-4                    -0.0255                  6.095762442567724E-6
5.0E-4                    -0.0245                  6.3061296410672E-6
5.0E-4                    -0.0235                  6.485449254044744E-6
5.0E-4                    -0.0225                  6.639668217925219E-6
5.0E-4                    -0.0215                  6.768809572904845E-6
5.0E-4                    -0.0205                  6.8775101519838795E-6
5.0E-4                    -0.0195                  6.972852136794975E-6
5.0E-4                    -0.0185                  7.060571614139185E-6
5.0E-4                    -0.0175                  7.146934043101838E-6
5.0E-4                    -0.0165                  7.234439514885538E-6
5.0E-4                    -0.0155                  7.331444210986311E-6
5.0E-4                    -0.0145                  7.449850402901739E-6
5.0E-4                    -0.0135                  7.608105085488832E-6
5.0E-4                    -0.0125                  7.863732476859754E-6
5.0E-4                    -0.0115                  8.294876136209827E-6
5.0E-4                    -0.0105                  9.103005142116046E-6
5.0E-4                    -0.0095                  1.0681981582551253E-5
5.0E-4                    -0.0085                  1.4093879066548675E-5
5.0E-4                    -0.0075                  2.4605685497844394E-5
5.0E-4                    -0.0065                  5.8750905355791406E-5
5.0E-4                    -0.0055                  1.7432500911342447E-4
5.0E-4                    -0.0045                  3.713754549926971E-4
5.0E-4                    -0.0035                  5.479547561608151E-4
5.0E-4                    -0.0025                  7.54390376971397E-4
5.0E-4                    -0.0015                  0.0013437574264921692
5.0E-4                    -5.0E-4                  0.002505917820984646
5.0E-4                    5.0E-4                   0.004046830494201395
5.0E-4                    0.0015                   0.0056361068833866755
5.0E-4                    0.0025                   0.006937297319120743
5.0E-4                    0.0035                   0.007697799332177019
5.0E-4                    0.0045                   0.007782360398358055
5.0E-4                    0.0055                   0.007173741648412226
5.0E-4                    0.0065                   0.0059659250713809085
5.0E-4                    0.0075                   0.004357684432379528
5.0E-4                    0.0085                   0.0025881286049974556
5.0E-4                    0.0095                   0.0012503053285134091
5.0E-4                    0.0105                   0.0019158307008278015
5.0E-4                    0.0115                   0.002889267308019774
5.0E-4                    0.0125                   0.0030838683797549554
5.0E-4                    0.0135                   0.002630513402436067
5.0E-4                    0.0145                   0.0018470566884490002
5.0E-4                    0.0155                   0.0054978821464226335
5.0E-4                    0.0165                   0.02659473713301987
5.0E-4                    0.0175                   0.041165771118108915
5.0E-4                    0.0185                   0.03677163480378621
5.0E-4                    0.0195                   0.02761287831301838
5.0E-4                    0.0205                   0.016758079598412648
5.0E-4                    0.0215                   0.007785347755244055
5.0E-4                    0.0225                   0.0022245985972026406
5.0E-4                    0.0235                   4.4107673528352427E-4
5.0E-4                    0.0245                   1.1136565567219036E-4
5.0E-4                    0.0255                   1.5974737252645204E-5
5.0E-4                    0.0265                   6.805404394004255E-6
5.0E-4                    0.0275                   4.303034860992224E-6
5.0E-4                    0.0285                   3.5273655859142152E-6
5.0E-4                    0.0295                   3.42942604422537E-6
5.0E-4                    0.0305                   4.8467965547293E-6
5.0E-4                    0.0315                   3.1535197790153425E-6
0.0015                    -0.0315                  3.9339838143456325E-6
0.0015                    -0.0305                  7.878086096300973E-6
0.0015                    -0.0295                  8.60256656696649E-6
0.0015                    -0.0285                  9.270314271895674E-6
0.0015                    -0.0275                  9.527683105089227E-6
0.0015                    -0.0265                  9.749041041743328E-6
0.0015                    -0.0255                  9.936002284614627E-6
0.0015                    -0.0245                  1.0110984095947028E-5
0.0015                    -0.0235                  1.026471210859116E-5
0.0015                    -0.0225                  1.0395483585072425E-5
0.0015                    -0.0215                  1.0498489021031934E-5
0.0015                    -0.0205                  1.0576885797813412E-5
0.0015                    -0.0195                  1.0639758899860964E-5
0.0015                    -0.0185                  1.069685829791348E-5
0.0015                    -0.0175                  1.0758282265507542E-5
0.0015                    -0.0165                  1.0830899219248994E-5
0.0015                    -0.0155                  1.0928831711671411E-5
0.0015                    -0.0145                  1.1074105113533301E-5
0.0015                    -0.0135                  1.1306519735748703E-5
0.0015                    -0.0125                  1.1726106253014807E-5
0.0015                    -0.0115                  1.2511980047587353E-5
0.0015                    -0.0105                  1.409013050430479E-5
0.0015                    -0.0095                  1.7405848409873033E-5
0.0015                    -0.0085                  2.5120810271338893E-5
0.0015                    -0.0075                  4.644289235625868E-5
0.0015                    -0.0065                  1.1131378209546312E-4
0.0015                    -0.0055                  3.352653011854845E-4
0.0015                    -0.0045                  7.742068264486139E-4
0.0015                    -0.0035                  0.0015234854040196582
0.0015                    -0.0025                  0.003167592312729361
0.0015                    -0.0015                  0.006073448978717214
0.0015                    -5.0E-4                  0.009725882847923905
0.0015                    5.0E-4                   0.013397303463996445
0.0015                    0.0015                   0.01651865178218426
0.0015                    0.0025                   0.01875531488689733
0.0015                    0.0035                   0.019970543939234784
0.0015                    0.0045                   0.02014458261284539
0.0015                    0.0055                   0.01931611477412075
0.0015                    0.0065                   0.017570744836384246
0.0015                    0.0075                   0.01504374967632977
0.0015                    0.0085                   0.011828475274716949
0.0015                    0.0095                   0.008030216430279935
0.0015                    0.0105                   0.0041291031377293265
0.0015                    0.0115                   0.001594050645515283
0.0015                    0.0125                   0.002294669764954118
0.0015                    0.0135                   0.0024208458795255284
0.0015                    0.0145                   0.0038034364917701262
0.0015                    0.0155                   0.01689130319889415
0.0015                    0.0165                   0.03456965974686757
0.0015                    0.0175                   0.04051275334323613
0.0015                    0.0185                   0.03479145155858749
0.0015                    0.0195                   0.02477747925853528
0.0015                    0.0205                   0.014058061105362871
0.0015                    0.0215                   0.005907336065339863
0.0015                    0.0225                   0.0016293432153916126
0.0015                    0.0235                   3.5757230731653746E-4
0.0015                    0.0245                   7.277574978738435E-5
0.0015                    0.0255                   1.6586825451951814E-5
0.0015                    0.0265                   7.5038405790483994E-6
0.0015                    0.0275                   4.549063057441426E-6
0.0015                    0.0285                   3.7177022315850386E-6
0.0015                    0.0295                   3.545063989140027E-6
0.0015                    0.0305                   4.013222281098828E-6
0.0015                    0.0315                   2.2940821630517533E-6
0.0025                    -0.0315                  4.056987658133171E-6
0.0025                    -0.0305                  7.942194101728276E-6
0.0025                    -0.0295                  8.378636925746657E-6
0.0025                    -0.0285                  8.763209480758514E-6
0.0025                    -0.0275                  8.66009477682945E-6
0.0025                    -0.0265                  8.498239717100737E-6
0.0025                    -0.0255                  8.330712096563949E-6
0.0025                    -0.0245                  8.192478273796444E-6
0.0025                    -0.0235                  8.075820528330602E-6
0.0025                    -0.0225                  7.966984661945265E-6
0.0025                    -0.0215                  7.853543939413504E-6
0.0025                    -0.0205                  7.73097706151822E-6
0.0025                    -0.0195                  7.604466285963659E-6
0.0025                    -0.0185                  7.486018570353581E-6
0.0025                    -0.0175                  7.388944437720218E-6
0.0025                    -0.0165                  7.326092294818712E-6
0.0025                    -0.0155                  7.31278979131521E-6
0.0025                    -0.0145                  7.377273576934272E-6
0.0025                    -0.0135                  7.577884744997549E-6
0.0025                    -0.0125                  8.037794542703308E-6
0.0025                    -0.0115                  9.041228572725783E-6
0.0025                    -0.0105                  1.123906815575086E-5
0.0025                    -0.0095                  1.6245971375390525E-5
0.0025                    -0.0085                  2.8189825351407218E-5
0.0025                    -0.0075                  5.925676709930438E-5
0.0025                    -0.0065                  1.449552878524265E-4
0.0025                    -0.0055                  4.691039725096151E-4
0.0025                    -0.0045                  0.001368134144919651
0.0025                    -0.0035                  0.003627382651772626
0.0025                    -0.0025                  0.00784288029721158
0.0025                    -0.0015                  0.013037144754893301
0.0025                    -5.0E-4                  0.017634366534234745
0.0025                    5.0E-4                   0.020958807266132938
0.0025                    0.0015                   0.023094212852177703
0.0025                    0.0025                   0.024355738122949267
0.0025                    0.0035                   0.02504015184173056
0.0025                    0.0045                   0.02535261990060574
0.0025                    0.0055                   0.025415260210890894
0.0025                    0.0065                   0.02522145303153678
0.0025                    0.0075                   0.024591309873967244
0.0025                    0.0085                   0.023179256894940794
0.0025                    0.0095                   0.020576838338667885
0.0025                    0.0105                   0.016725578717953847
0.0025                    0.0115                   0.012265063349075333
0.0025                    0.0125                   0.008751566757509701
0.0025                    0.0135                   0.008685197121083536
0.0025                    0.0145                   0.015044864331774236
0.0025                    0.0155                   0.02710006080693111
0.0025                    0.0165                   0.037053152770458876
0.0025                    0.0175                   0.03810493519743782
0.0025                    0.0185                   0.03133434178807526
0.0025                    0.0195                   0.02102904928163213
0.0025                    0.0205                   0.011061217276557159
0.0025                    0.0215                   0.004276386256491185
0.0025                    0.0225                   0.0012021175283080704
0.0025                    0.0235                   3.262192272608373E-4
0.0025                    0.0245                   8.145300243406125E-5
0.0025                    0.0255                   2.2152320025827304E-5
0.0025                    0.0265                   9.546500091797322E-6
0.0025                    0.0275                   5.448382840984778E-6
0.0025                    0.0285                   4.106682069903987E-6
0.0025                    0.0295                   3.5143353814056647E-6
0.0025                    0.0305                   3.7414486844344236E-6
0.0025                    0.0315                   2.156791559023727E-6
0.0035                    -0.0315                  4.296904874265277E-6
0.0035                    -0.0305                  8.154056104123212E-6
0.0035                    -0.0295                  8.538700990780056E-6
0.0035                    -0.0285                  9.210424762903209E-6
0.0035                    -0.0275                  9.254108477308628E-6
0.0035                    -0.0265                  9.120297487240278E-6
0.0035                    -0.0255                  8.910570191873432E-6
0.0035                    -0.0245                  8.713136724491942E-6
0.0035                    -0.0235                  8.541055986387835E-6
0.0035                    -0.0225                  8.384483997720428E-6
0.0035                    -0.0215                  8.22371467490103E-6
0.0035                    -0.0205                  8.045719241437526E-6
0.0035                    -0.0195                  7.853010405580187E-6
0.0035                    -0.0185                  7.66486431089967E-6
0.0035                    -0.0175                  7.510087744785767E-6
0.0035                    -0.0165                  7.417333771463475E-6
0.0035                    -0.0155                  7.415292034414705E-6
0.0035                    -0.0145                  7.5482215130289656E-6
0.0035                    -0.0135                  7.912999549135454E-6
0.0035                    -0.0125                  8.730122511629335E-6
0.0035                    -0.0115                  1.0501445230724132E-5
0.0035                    -0.0105                  1.442548292207269E-5
0.0035                    -0.0095                  2.3433183779736618E-5
0.0035                    -0.0085                  4.594266537604425E-5
0.0035                    -0.0075                  1.0668663908043362E-4
0.0035                    -0.0065                  3.109653956649142E-4
0.0035                    -0.0055                  9.870026669332522E-4
0.0035                    -0.0045                  0.003144119142694397
0.0035                    -0.0035                  0.007807545499612903
0.0035                    -0.0025                  0.013857995645777263
0.0035                    -0.0015                  0.018896666650346155
0.0035                    -5.0E-4                  0.021873266536358987
0.0035                    5.0E-4                   0.02318608254524589
0.0035                    0.0015                   0.02350842167445726
0.0035                    0.0025                   0.023352091571496224
0.0035                    0.0035                   0.02317505882785991
0.0035                    0.0045                   0.02334625413634378
0.0035                    0.0055                   0.024076989406390456
0.0035                    0.0065                   0.025359542346142266
0.0035                    0.0075                   0.02688871859493405
0.0035                    0.0085                   0.02811169196802946
0.0035                    0.0095                   0.02834565684820905
0.0035                    0.0105                   0.027058526670036064
0.0035                    0.0115                   0.024435576085180717
0.0035                    0.0125                   0.021749396658571243
0.0035                    0.0135                   0.021401937040215504
0.0035                    0.0145                   0.025367372882297522
0.0035                    0.0155                   0.03179717624489225
0.0035                    0.0165                   0.03576664256154207
0.0035                    0.0175                   0.03392195441299675
0.0035                    0.0185                   0.02655872100324064
0.0035                    0.0195                   0.016791578125409677
0.0035                    0.0205                   0.0082071376241518
0.0035                    0.0215                   0.0029489425798358607
0.0035                    0.0225                   8.572474950092423E-4
0.0035                    0.0235                   2.6207098781812704E-4
0.0035                    0.0245                   7.7662087955597E-5
0.0035                    0.0255                   2.5032281552627692E-5
0.0035                    0.0265                   1.148875034347878E-5
0.0035                    0.0275                   6.452773003623137E-6
0.0035                    0.0285                   4.51825410515429E-6
0.0035                    0.0295                   3.6412555288040047E-6
0.0035                    0.0305                   3.822311219581802E-6
0.0035                    0.0315                   2.2158816650799897E-6
0.0045                    -0.0315                  4.42183334135266E-6
0.0045                    -0.0305                  8.16328593425256E-6
0.0045                    -0.0295                  8.375345861168966E-6
0.0045                    -0.0285                  9.220438508094925E-6
0.0045                    -0.0275                  9.478012251964013E-6
0.0045                    -0.0265                  9.481548432288532E-6
0.0045                    -0.0255                  9.322103986926386E-6
0.0045                    -0.0245                  9.131365803504008E-6
0.0045                    -0.0235                  8.959622652788123E-6
0.0045                    -0.0225                  8.813784252625418E-6
0.0045                    -0.0215                  8.672253334621736E-6
0.0045                    -0.0205                  8.511010174713325E-6
0.0045                    -0.0195                  8.325503144069879E-6
0.0045                    -0.0185                  8.143834665724377E-6
0.0045                    -0.0175                  8.022921154261206E-6
0.0045                    -0.0165                  8.027429499679892E-6
0.0045                    -0.0155                  8.210841156880675E-6
0.0045                    -0.0145                  8.645849856207107E-6
0.0045                    -0.0135                  9.490202166844462E-6
0.0045                    -0.0125                  1.1104619387312038E-5
0.0045                    -0.0115                  1.4379460917375783E-5
0.0045                    -0.0105                  2.1541470436565353E-5
0.0045                    -0.0095                  3.903360013564176E-5
0.0045                    -0.0085                  8.583051929926996E-5
0.0045                    -0.0075                  2.4159733915200216E-4
0.0045                    -0.0065                  7.400430846939972E-4
0.0045                    -0.0055                  0.0022673587583182373
0.0045                    -0.0045                  0.006500554708329955
0.0045                    -0.0035                  0.013263367890900206
0.0045                    -0.0025                  0.019175273097663394
0.0045                    -0.0015                  0.022059324460887812
0.0045                    -5.0E-4                  0.022384996874970857
0.0045                    5.0E-4                   0.021174153808509753
0.0045                    0.0015                   0.01919552996471455
0.0045                    0.0025                   0.017195281821329105
0.0045                    0.0035                   0.015781496711840377
0.0045                    0.0045                   0.015328295412698947
0.0045                    0.0055                   0.01600877149943839
0.0045                    0.0065                   0.01787337541344218
0.0045                    0.0075                   0.020767703195380807
0.0045                    0.0085                   0.02423507621542772
0.0045                    0.0095                   0.027474831103964995
0.0045                    0.0105                   0.029499775541278972
0.0045                    0.0115                   0.029696908088940144
0.0045                    0.0125                   0.028463428611812717
0.0045                    0.0135                   0.02740648523292019
0.0045                    0.0145                   0.02820438139267331
0.0045                    0.0155                   0.030362393136026743
0.0045                    0.0165                   0.03109173476915114
0.0045                    0.0175                   0.027989820883899466
0.0045                    0.0185                   0.021050940036450937
0.0045                    0.0195                   0.01275579933771339
0.0045                    0.0205                   0.005916777459771246
0.0045                    0.0215                   0.002030772191818719
0.0045                    0.0225                   6.350712277115815E-4
0.0045                    0.0235                   2.2813619352123497E-4
0.0045                    0.0245                   8.125195930522158E-5
0.0045                    0.0255                   2.9516252018372046E-5
0.0045                    0.0265                   1.3707373739951521E-5
0.0045                    0.0275                   7.50611049125067E-6
0.0045                    0.0285                   5.0290797403905885E-6
0.0045                    0.0295                   3.927907858986944E-6
0.0045                    0.0305                   4.018204875391705E-6
0.0045                    0.0315                   2.3080748646417743E-6
0.0055                    -0.0315                  4.484101362884559E-6
0.0055                    -0.0305                  8.152558244367242E-6
0.0055                    -0.0295                  8.245280167177125E-6
0.0055                    -0.0285                  9.180304463424246E-6
0.0055                    -0.0275                  9.60899505860648E-6
0.0055                    -0.0265                  9.780144664762662E-6
0.0055                    -0.0255                  9.728600982577653E-6
0.0055                    -0.0245                  9.597876731695021E-6
0.0055                    -0.0235                  9.477874891394929E-6
0.0055                    -0.0225                  9.410267973872796E-6
0.0055                    -0.0215                  9.387031318096952E-6
0.0055                    -0.0205                  9.378134480234276E-6
0.0055                    -0.0195                  9.372313806649446E-6
0.0055                    -0.0185                  9.4149031632987E-6
0.0055                    -0.0175                  9.622248128220406E-6
0.0055                    -0.0165                  1.0140953765419296E-5
0.0055                    -0.0155                  1.1076411060929826E-5
0.0055                    -0.0145                  1.2476397175868244E-5
0.0055                    -0.0135                  1.4577794034362473E-5
0.0055                    -0.0125                  1.807976331315495E-5
0.0055                    -0.0115                  2.4538278956585636E-5
0.0055                    -0.0105                  3.8688789823242764E-5
0.0055                    -0.0095                  7.492348275113735E-5
0.0055                    -0.0085                  1.9222481709169935E-4
0.0055                    -0.0075                  5.727986746514762E-4
0.0055                    -0.0065                  0.001623075513982302
0.0055                    -0.0055                  0.004761971012989415
0.0055                    -0.0045                  0.011265068747069878
0.0055                    -0.0035                  0.01857865559503923
0.0055                    -0.0025                  0.02255412909009848
0.0055                    -0.0015                  0.022508161163310444
0.0055                    -5.0E-4                  0.019836675525012684
0.0055                    5.0E-4                   0.015848705082185437
0.0055                    0.0015                   0.011865510194330993
0.0055                    0.0025                   0.008857199220173216
0.0055                    0.0035                   0.00710487529555838
0.0055                    0.0045                   0.006451654578141249
0.0055                    0.0055                   0.006745029154386018
0.0055                    0.0065                   0.008000325095380685
0.0055                    0.0075                   0.01033386218637728
0.0055                    0.0085                   0.013805568841136194
0.0055                    0.0095                   0.018120529999666714
0.0055                    0.0105                   0.02242300087099872
0.0055                    0.0115                   0.02544420301642058
0.0055                    0.0125                   0.026295904170187314
0.0055                    0.0135                   0.02545500048181324
0.0055                    0.0145                   0.02449220681448609
0.0055                    0.0155                   0.024287170550116467
0.0055                    0.0165                   0.023707435052634476
0.0055                    0.0175                   0.021011880121584937
0.0055                    0.0185                   0.015924084128386883
0.0055                    0.0195                   0.00991128744308927
0.0055                    0.0205                   0.00476330632075035
0.0055                    0.0215                   0.001737037229022689
0.0055                    0.0225                   6.277931075490884E-4
0.0055                    0.0235                   2.650970188693077E-4
0.0055                    0.0245                   1.0247430586149215E-4
0.0055                    0.0255                   3.696179831535641E-5
0.0055                    0.0265                   1.648363253544441E-5
0.0055                    0.0275                   8.718842427285733E-6
0.0055                    0.0285                   5.65416507433399E-6
0.0055                    0.0295                   4.28392310333267E-6
0.0055                    0.0305                   4.2324074504323985E-6
0.0055                    0.0315                   2.398782251736088E-6
0.0065                    -0.0315                  4.489190613275909E-6
0.0065                    -0.0305                  8.101166447086307E-6
0.0065                    -0.0295                  8.131715932642686E-6
0.0065                    -0.0285                  9.113626680927521E-6
0.0065                    -0.0275                  9.64989515276506E-6
0.0065                    -0.0265                  9.952642594831239E-6
0.0065                    -0.0255                  1.0006957669903035E-5
0.0065                    -0.0245                  9.946133210225805E-6
0.0065                    -0.0235                  9.895958776977712E-6
0.0065                    -0.0225                  9.956200873068322E-6
0.0065                    -0.0215                  1.0169539633944103E-5
0.0065                    -0.0205                  1.0531717920345535E-5
0.0065                    -0.0195                  1.1046476045211762E-5
0.0065                    -0.0185                  1.182100623564707E-5
0.0065                    -0.0175                  1.3138738244265165E-5
0.0065                    -0.0165                  1.5457318881441246E-5
0.0065                    -0.0155                  1.9040145026230338E-5
0.0065                    -0.0145                  2.3701991732475793E-5
0.0065                    -0.0135                  2.944590484996686E-5
0.0065                    -0.0125                  3.806109799087897E-5
0.0065                    -0.0115                  5.30320381327735E-5
0.0065                    -0.0105                  8.185919134260844E-5
0.0065                    -0.0095                  1.7084864790580483E-4
0.0065                    -0.0085                  4.558642282152524E-4
0.0065                    -0.0075                  0.0012159503950277281
0.0065                    -0.0065                  0.0033854152400523254
0.0065                    -0.0055                  0.00871947488187602
0.0065                    -0.0045                  0.01653406679721276