% Model:              Benchmark260518.mph
% Version:            COMSOL 6.2.0.339
% Date:               May 20 2026, 04:32
% Dimension:          2
% Nodes:              4096
% Expressions:        1
% Description:        速度大小
% Length unit:        m
% x                       y                        spf.U (m/s)
5.0E-4                    -0.0315                  8.678413105106788E-7
5.0E-4                    -0.0305                  1.705217795870293E-6
5.0E-4                    -0.0295                  1.7686972283857646E-6
5.0E-4                    -0.0285                  1.8704339710456369E-6
5.0E-4                    -0.0275                  1.99200248109328E-6
5.0E-4                    -0.0265                  2.1295541206961725E-6
5.0E-4                    -0.0255                  2.2282234518384243E-6
5.0E-4                    -0.0245                  2.2926570426411746E-6
5.0E-4                    -0.0235                  2.3448299620708535E-6
5.0E-4                    -0.0225                  2.392383973901548E-6
5.0E-4                    -0.0215                  2.4355188431478183E-6
5.0E-4                    -0.0205                  2.472855258454783E-6
5.0E-4                    -0.0195                  2.5035925836093576E-6
5.0E-4                    -0.0185                  2.5256272835540125E-6
5.0E-4                    -0.0175                  2.537588949202058E-6
5.0E-4                    -0.0165                  2.538625038478423E-6
5.0E-4                    -0.0155                  2.5255754013512222E-6
5.0E-4                    -0.0145                  2.4856718924128984E-6
5.0E-4                    -0.0135                  2.406858310322568E-6
5.0E-4                    -0.0125                  2.3536893914779686E-6
5.0E-4                    -0.0115                  2.344614951399636E-6
5.0E-4                    -0.0105                  2.3165967963206784E-6
5.0E-4                    -0.0095                  2.263255999279081E-6
5.0E-4                    -0.0085                  2.1962991838647937E-6
5.0E-4                    -0.0075                  2.1109097546092733E-6
5.0E-4                    -0.0065                  2.0285127805318087E-6
5.0E-4                    -0.0055                  1.95099406469744E-6
5.0E-4                    -0.0045                  1.9473935138056616E-6
5.0E-4                    -0.0035                  2.178878189989733E-6
5.0E-4                    -0.0025                  2.8328271927064926E-6
5.0E-4                    -0.0015                  4.293891758082546E-6
5.0E-4                    -5.0E-4                  7.397987491449032E-6
5.0E-4                    5.0E-4                   1.4276621044208083E-5
5.0E-4                    0.0015                   3.022177261679441E-5
5.0E-4                    0.0025                   6.027104793093681E-5
5.0E-4                    0.0035                   1.587441250595744E-4
5.0E-4                    0.0045                   4.041052994376526E-4
5.0E-4                    0.0055                   7.572226167791278E-4
5.0E-4                    0.0065                   0.0017500526340914976
5.0E-4                    0.0075                   0.00582875782698288
5.0E-4                    0.0085                   0.03581391709227095
5.0E-4                    0.0095                   0.056154653528084665
5.0E-4                    0.0105                   0.047613624957268286
5.0E-4                    0.0115                   0.032068560091583174
5.0E-4                    0.0125                   0.015707045313333688
5.0E-4                    0.0135                   0.004960481119722623
5.0E-4                    0.0145                   9.671901385185676E-4
5.0E-4                    0.0155                   2.0773192759526555E-4
5.0E-4                    0.0165                   5.600146253563892E-5
5.0E-4                    0.0175                   2.2091823650947114E-5
5.0E-4                    0.0185                   1.1768900099377553E-5
5.0E-4                    0.0195                   8.189435912641758E-6
5.0E-4                    0.0205                   6.76475890260526E-6
5.0E-4                    0.0215                   6.07933825560994E-6
5.0E-4                    0.0225                   6.889906990631334E-6
5.0E-4                    0.0235                   6.15993583849853E-6
5.0E-4                    0.0245                   4.3867070963297035E-6
5.0E-4                    0.0255                   4.844244201829435E-6
5.0E-4                    0.0265                   4.528380673806955E-6
5.0E-4                    0.0275                   4.327815646933144E-6
5.0E-4                    0.0285                   4.1575891859134165E-6
5.0E-4                    0.0295                   3.7770573184902006E-6
5.0E-4                    0.0305                   3.456505056242724E-6
5.0E-4                    0.0315                   1.7454089056769952E-6
0.0015                    -0.0315                  1.7027852215655695E-6
0.0015                    -0.0305                  3.3597196023836246E-6
0.0015                    -0.0295                  3.4972143616867155E-6
0.0015                    -0.0285                  3.6333979331307152E-6
0.0015                    -0.0275                  3.726171067836236E-6
0.0015                    -0.0265                  3.841238558896561E-6
0.0015                    -0.0255                  3.917099476069163E-6
0.0015                    -0.0245                  3.961766598803303E-6
0.0015                    -0.0235                  3.9983237231246994E-6
0.0015                    -0.0225                  4.035301808488864E-6
0.0015                    -0.0215                  4.07220988216656E-6
0.0015                    -0.0205                  4.106922401561703E-6
0.0015                    -0.0195                  4.137750055591285E-6
0.0015                    -0.0185                  4.161777700889255E-6
0.0015                    -0.0175                  4.176831266504565E-6
0.0015                    -0.0165                  4.181618269914171E-6
0.0015                    -0.0155                  4.172676456413319E-6
0.0015                    -0.0145                  4.137263354368764E-6
0.0015                    -0.0135                  4.068507283912957E-6
0.0015                    -0.0125                  4.032135324356391E-6
0.0015                    -0.0115                  4.047482069515156E-6
0.0015                    -0.0105                  4.051718247377267E-6
0.0015                    -0.0095                  4.03055676968891E-6
0.0015                    -0.0085                  3.991148488310484E-6
0.0015                    -0.0075                  3.93159703837711E-6
0.0015                    -0.0065                  3.880994568411876E-6
0.0015                    -0.0055                  3.87373196730057E-6
0.0015                    -0.0045                  4.0598970428659065E-6
0.0015                    -0.0035                  4.77996811722889E-6
0.0015                    -0.0025                  6.60335166592844E-6
0.0015                    -0.0015                  1.0550056001266081E-5
0.0015                    -5.0E-4                  1.8608993005197166E-5
0.0015                    5.0E-4                   3.501777676841972E-5
0.0015                    0.0015                   8.008964971880438E-5
0.0015                    0.0025                   2.0953983498124724E-4
0.0015                    0.0035                   5.798459557555042E-4
0.0015                    0.0045                   0.001335073282853215
0.0015                    0.0055                   0.002422362699386315
0.0015                    0.0065                   0.002100008272996524
0.0015                    0.0075                   0.01784280878826417
0.0015                    0.0085                   0.04648923741991344
0.0015                    0.0095                   0.056054615447520134
0.0015                    0.0105                   0.04503398529438852
0.0015                    0.0115                   0.027634166601058538
0.0015                    0.0125                   0.011882803833981182
0.0015                    0.0135                   0.0034585866607032144
0.0015                    0.0145                   8.146287300698985E-4
0.0015                    0.0155                   1.785119974127427E-4
0.0015                    0.0165                   5.1124960675416544E-5
0.0015                    0.0175                   2.005112567918021E-5
0.0015                    0.0185                   1.107188103424361E-5
0.0015                    0.0195                   7.960494142328083E-6
0.0015                    0.0205                   6.795379282725224E-6
0.0015                    0.0215                   6.430339128121163E-6
0.0015                    0.0225                   6.159436911307845E-6
0.0015                    0.0235                   6.643091211335994E-6
0.0015                    0.0245                   7.635236160612119E-6
0.0015                    0.0255                   7.924481208902038E-6
0.0015                    0.0265                   7.708246219232973E-6
0.0015                    0.0275                   7.564895955951186E-6
0.0015                    0.0285                   7.469049754968656E-6
0.0015                    0.0295                   7.0645221675104E-6
0.0015                    0.0305                   6.706663245957948E-6
0.0015                    0.0315                   3.422757908169819E-6
0.0025                    -0.0315                  1.7545039642732375E-6
0.0025                    -0.0305                  3.4778424664507618E-6
0.0025                    -0.0295                  3.725359992596638E-6
0.0025                    -0.0285                  3.915440167539953E-6
0.0025                    -0.0275                  3.891888500945329E-6
0.0025                    -0.0265                  3.841828751569502E-6
0.0025                    -0.0255                  3.774165133993977E-6
0.0025                    -0.0245                  3.70607749202421E-6
0.0025                    -0.0235                  3.644755758040959E-6
0.0025                    -0.0225                  3.5949145552259393E-6
0.0025                    -0.0215                  3.5568989374082166E-6
0.0025                    -0.0205                  3.5301267674398423E-6
0.0025                    -0.0195                  3.5137287598623763E-6
0.0025                    -0.0185                  3.5067188587378888E-6
0.0025                    -0.0175                  3.5081165569721573E-6
0.0025                    -0.0165                  3.5176383291401247E-6
0.0025                    -0.0155                  3.535685331612877E-6
0.0025                    -0.0145                  3.563936747731198E-6
0.0025                    -0.0135                  3.610210895496868E-6
0.0025                    -0.0125                  3.679624488789815E-6
0.0025                    -0.0115                  3.77289427776586E-6
0.0025                    -0.0105                  3.8841073189136075E-6
0.0025                    -0.0095                  3.998414719060312E-6
0.0025                    -0.0085                  4.10486488295E-6
0.0025                    -0.0075                  4.205104728556582E-6
0.0025                    -0.0065                  4.322593047795655E-6
0.0025                    -0.0055                  4.5469396626581875E-6
0.0025                    -0.0045                  5.108984955570234E-6
0.0025                    -0.0035                  6.521646376985969E-6
0.0025                    -0.0025                  9.905913408652197E-6
0.0025                    -0.0015                  1.7477323218955312E-5
0.0025                    -5.0E-4                  3.315283187804638E-5
0.0025                    5.0E-4                   6.93767855457681E-5
0.0025                    0.0015                   1.7828657230098535E-4
0.0025                    0.0025                   5.049647023534136E-4
0.0025                    0.0035                   0.0013502112273907933
0.0025                    0.0045                   0.0025981324970827447
0.0025                    0.0055                   0.0032084016583121423
0.0025                    0.0065                   0.006447656777324443
0.0025                    0.0075                   0.030473403226507222
0.0025                    0.0085                   0.05207414259003924
0.0025                    0.0095                   0.05403552129408545
0.0025                    0.0105                   0.04027393851043281
0.0025                    0.0115                   0.022030666598463644
0.0025                    0.0125                   0.0084272657246471
0.0025                    0.0135                   0.002438982414581222
0.0025                    0.0145                   6.461528116073105E-4
0.0025                    0.0155                   1.487321977842789E-4
0.0025                    0.0165                   4.723668909329754E-5
0.0025                    0.0175                   1.8481284974697036E-5
0.0025                    0.0185                   1.0425777816322194E-5
0.0025                    0.0195                   7.74518406947913E-6
0.0025                    0.0205                   6.830795323975621E-6
0.0025                    0.0215                   6.471440910950782E-6
0.0025                    0.0225                   6.462022070243251E-6
0.0025                    0.0235                   6.763424869451556E-6
0.0025                    0.0245                   7.080663304903361E-6
0.0025                    0.0255                   7.187010596470406E-6
0.0025                    0.0265                   7.185939877810252E-6
0.0025                    0.0275                   7.204335963883771E-6
0.0025                    0.0285                   7.261071636040491E-6
0.0025                    0.0295                   7.001907620749327E-6
0.0025                    0.0305                   6.933713978211306E-6
0.0025                    0.0315                   3.6547812138683583E-6
0.0035                    -0.0315                  1.8175686253513234E-6
0.0035                    -0.0305                  3.5618291710926925E-6
0.0035                    -0.0295                  3.891080370925221E-6
0.0035                    -0.0285                  4.2626846785412705E-6
0.0035                    -0.0275                  4.332169739300114E-6
0.0035                    -0.0265                  4.306531045487748E-6
0.0035                    -0.0255                  4.228104304404681E-6
0.0035                    -0.0245                  4.135294300091801E-6
0.0035                    -0.0235                  4.0431133228623525E-6
0.0035                    -0.0225                  3.961415270494704E-6
0.0035                    -0.0215                  3.895098869142655E-6
0.0035                    -0.0205                  3.8470243687080315E-6
0.0035                    -0.0195                  3.819020944291197E-6
0.0035                    -0.0185                  3.811765076104328E-6
0.0035                    -0.0175                  3.824505416982927E-6
0.0035                    -0.0165                  3.855252742925464E-6
0.0035                    -0.0155                  3.901688943773046E-6
0.0035                    -0.0145                  3.963366921243053E-6
0.0035                    -0.0135                  4.043239765455261E-6
0.0035                    -0.0125                  4.146932901445483E-6
0.0035                    -0.0115                  4.276041353538681E-6
0.0035                    -0.0105                  4.425126129019957E-6
0.0035                    -0.0095                  4.584954386189691E-6
0.0035                    -0.0085                  4.746971935028926E-6
0.0035                    -0.0075                  4.914230753669099E-6
0.0035                    -0.0065                  5.129064088476026E-6
0.0035                    -0.0055                  5.5369166299966905E-6
0.0035                    -0.0045                  6.523877184112699E-6
0.0035                    -0.0035                  8.947703914777957E-6
0.0035                    -0.0025                  1.4580327726480225E-5
0.0035                    -0.0015                  2.814927317181634E-5
0.0035                    -5.0E-4                  6.339012513153369E-5
0.0035                    5.0E-4                   1.5631163556188309E-4
0.0035                    0.0015                   4.117857457396098E-4
0.0035                    0.0025                   0.0011355696087545508
0.0035                    0.0035                   0.0025781689429731024
0.0035                    0.0045                   0.003822744584374278
0.0035                    0.0055                   9.49768550361498E-4
0.0035                    0.0065                   0.017652934781661384
0.0035                    0.0075                   0.04157636394329098
0.0035                    0.0085                   0.054549069389372956
0.0035                    0.0095                   0.05008650302090745
0.0035                    0.0105                   0.03372902369655928
0.0035                    0.0115                   0.016225475544602044
0.0035                    0.0125                   0.0056426796489398605
0.0035                    0.0135                   0.0017068758924932228
0.0035                    0.0145                   4.877142119291614E-4
0.0035                    0.0155                   1.2406213914073477E-4
0.0035                    0.0165                   4.1489553346420065E-5
0.0035                    0.0175                   1.7329936142720613E-5
0.0035                    0.0185                   9.982498174138127E-6
0.0035                    0.0195                   7.583696818152905E-6
0.0035                    0.0205                   6.807601538652997E-6
0.0035                    0.0215                   6.614166745952722E-6
0.0035                    0.0225                   6.7279298253258016E-6
0.0035                    0.0235                   6.974551666699396E-6
0.0035                    0.0245                   7.2603489253469465E-6
0.0035                    0.0255                   7.50769485443317E-6
0.0035                    0.0265                   7.650158026547925E-6
0.0035                    0.0275                   7.685135908959178E-6
0.0035                    0.0285                   7.633588104693785E-6
0.0035                    0.0295                   7.147333327963335E-6
0.0035                    0.0305                   7.240684517065277E-6
0.0035                    0.0315                   3.967616059615158E-6
0.0045                    -0.0315                  1.8492788033031515E-6
0.0045                    -0.0305                  3.549829391471398E-6
0.0045                    -0.0295                  3.844103943695368E-6
0.0045                    -0.0285                  4.3217171932240415E-6
0.0045                    -0.0275                  4.511850198242179E-6
0.0045                    -0.0265                  4.568958239744183E-6
0.0045                    -0.0255                  4.531162447061399E-6
0.0045                    -0.0245                  4.45202032027052E-6
0.0045                    -0.0235                  4.3568610632020034E-6
0.0045                    -0.0225                  4.262735521045889E-6
0.0045                    -0.0215                  4.180778694244139E-6
0.0045                    -0.0205                  4.119441767532135E-6
0.0045                    -0.0195                  4.085314983615321E-6
0.0045                    -0.0185                  4.082826921083878E-6
0.0045                    -0.0175                  4.113019550785939E-6
0.0045                    -0.0165                  4.172683625859896E-6
0.0045                    -0.0155                  4.255258577243838E-6
0.0045                    -0.0145                  4.35397344458673E-6
0.0045                    -0.0135                  4.465519468627825E-6
0.0045                    -0.0125                  4.591064101580093E-6
0.0045                    -0.0115                  4.734448333478403E-6
0.0045                    -0.0105                  4.897996697632996E-6
0.0045                    -0.0095                  5.080257359275882E-6
0.0045                    -0.0085                  5.280648247723596E-6
0.0045                    -0.0075                  5.514269651237547E-6
0.0045                    -0.0065                  5.850521779168401E-6
0.0045                    -0.0055                  6.5050351118824385E-6
0.0045                    -0.0045                  8.064034678155261E-6
0.0045                    -0.0035                  1.1914024809678275E-5
0.0045                    -0.0025                  2.11404843700494E-5
0.0045                    -0.0015                  4.2961659564394614E-5
0.0045                    -5.0E-4                  1.1456939394409529E-4
0.0045                    5.0E-4                   3.252065109320102E-4
0.0045                    0.0015                   8.953180139623625E-4
0.0045                    0.0025                   0.0022269278092612414
0.0045                    0.0035                   0.003842154710844357
0.0045                    0.0045                   0.0026131448693122792
0.0045                    0.0055                   0.009019429663318491
0.0045                    0.0065                   0.030732654209633874
0.0045                    0.0075                   0.0489983806503541
0.0045                    0.0085                   0.053829158195319485
0.0045                    0.0095                   0.04410425755190191
0.0045                    0.0105                   0.02615331305044866
0.0045                    0.0115                   0.010997838474944805
0.0045                    0.0125                   0.0035994324806643096
0.0045                    0.0135                   0.0011675141063491258
0.0045                    0.0145                   3.4822766273086167E-4
0.0045                    0.0155                   9.465049026129212E-5
0.0045                    0.0165                   3.408053171475133E-5
0.0045                    0.0175                   1.546760365565977E-5
0.0045                    0.0185                   9.47317858679309E-6
0.0045                    0.0195                   7.423701282880204E-6
0.0045                    0.0205                   6.80395817145843E-6
0.0045                    0.0215                   6.735418871602057E-6
0.0045                    0.0225                   6.895956635114372E-6
0.0045                    0.0235                   7.149037706288904E-6
0.0045                    0.0245                   7.417194965107411E-6
0.0045                    0.0255                   7.645165792012465E-6
0.0045                    0.0265                   7.787266258274867E-6
0.0045                    0.0275                   7.750905979570535E-6
0.0045                    0.0285                   7.55931857930599E-6
0.0045                    0.0295                   6.969207290043953E-6
0.0045                    0.0305                   7.32650242010654E-6
0.0045                    0.0315                   4.1489853337692165E-6
0.0055                    -0.0315                  1.8774433850710112E-6
0.0055                    -0.0305                  3.5447744103569673E-6
0.0055                    -0.0295                  3.7794372119497926E-6
0.0055                    -0.0285                  4.298785788987244E-6
0.0055                    -0.0275                  4.579247142050664E-6
0.0055                    -0.0265                  4.735927946577707E-6
0.0055                    -0.0255                  4.775042415510107E-6
0.0055                    -0.0245                  4.745928695296791E-6
0.0055                    -0.0235                  4.6794947335384615E-6
0.0055                    -0.0225                  4.599072325535129E-6
0.0055                    -0.0215                  4.521456783002787E-6
0.0055                    -0.0205                  4.4607631382783744E-6
0.0055                    -0.0195                  4.429324734934919E-6
0.0055                    -0.0185                  4.437005327620037E-6
0.0055                    -0.0175                  4.489009016349046E-6
0.0055                    -0.0165                  4.583490014599609E-6
0.0055                    -0.0155                  4.710774471750052E-6
0.0055                    -0.0145                  4.8556671309861885E-6
0.0055                    -0.0135                  5.003035703970312E-6
0.0055                    -0.0125                  5.144812494534897E-6
0.0055                    -0.0115                  5.283985555397606E-6
0.0055                    -0.0105                  5.433027117542109E-6
0.0055                    -0.0095                  5.610009910840674E-6
0.0055                    -0.0085                  5.8401983518151016E-6
0.0055                    -0.0075                  6.170418944773674E-6
0.0055                    -0.0065                  6.711043014668086E-6
0.0055                    -0.0055                  7.754101311342567E-6
0.0055                    -0.0045                  1.006883063444337E-5
0.0055                    -0.0035                  1.573380991949612E-5
0.0055                    -0.0025                  3.119939406875308E-5
0.0055                    -0.0015                  7.713585887102558E-5
0.0055                    -5.0E-4                  2.2282188370860328E-4
0.0055                    5.0E-4                   6.436241201363883E-4
0.0055                    0.0015                   0.0017800957512829592
0.0055                    0.0025                   0.0035556142296003204
0.0055                    0.0035                   0.003935335273679775
0.0055                    0.0045                   0.003304639532647601
0.0055                    0.0055                   0.021358853630054818
0.0055                    0.0065                   0.04145623524034403
0.0055                    0.0075                   0.05233334515816252
0.0055                    0.0085                   0.05027099068763771
0.0055                    0.0095                   0.03631876252932787
0.0055                    0.0105                   0.018532437570229245
0.0055                    0.0115                   0.006877799260921697
0.0055                    0.0125                   0.002217813301015136
0.0055                    0.0135                   7.527980169940048E-4
0.0055                    0.0145                   2.304316151927655E-4
0.0055                    0.0155                   6.70704975385605E-5
0.0055                    0.0165                   2.5830499893061714E-5
0.0055                    0.0175                   1.2995880280489877E-5
0.0055                    0.0185                   8.680366713953791E-6
0.0055                    0.0195                   7.191047512527494E-6
0.0055                    0.0205                   6.7746018892889965E-6
0.0055                    0.0215                   6.791696875499864E-6
0.0055                    0.0225                   6.989014693745255E-6
0.0055                    0.0235                   7.246155102831345E-6
0.0055                    0.0245                   7.495008425355577E-6
0.0055                    0.0255                   7.676982567931158E-6
0.0055                    0.0265                   7.740524780605932E-6
0.0055                    0.0275                   7.609463788782284E-6
0.0055                    0.0285                   7.3487029586890016E-6
0.0055                    0.0295                   6.764728688071195E-6
0.0055                    0.0305                   7.430345944459683E-6
0.0055                    0.0315                   4.3299255305029325E-6
0.0065                    -0.0315                  1.9019956764959435E-6
0.0065                    -0.0305                  3.541835083082311E-6
0.0065                    -0.0295                  3.7104626236777245E-6
0.0065                    -0.0285                  4.233828770429775E-6
0.0065                    -0.0275                  4.562559371912499E-6
0.0065                    -0.0265                  4.797908779422006E-6
0.0065                    -0.0255                  4.919084292392793E-6
0.0065                    -0.0245                  4.9589289430571575E-6
0.0065                    -0.0235                  4.94369522682447E-6
0.0065                    -0.0225                  4.898180755751019E-6
0.0065                    -0.0215                  4.842198668380974E-6
0.0065                    -0.0205                  4.793632687415899E-6
0.0065                    -0.0195                  4.769671803146574E-6
0.0065                    -0.0185                  4.786268984985608E-6
0.0065                    -0.0175                  4.855401343529052E-6
0.0065                    -0.0165                  4.981056367770854E-6
0.0065                    -0.0155                  5.155632779362809E-6
0.0065                    -0.0145                  5.359109704172944E-6
0.0065                    -0.0135                  5.563486337196029E-6
0.0065                    -0.0125                  5.743617452399341E-6
0.0065                    -0.0115                  5.891822426255698E-6
0.0065                    -0.0105                  6.0293726244172154E-6
0.0065                    -0.0095                  6.210040610267841E-6
0.0065                    -0.0085                  6.520998947697338E-6
0.0065                    -0.0075                  7.0886742741307845E-6
0.0065                    -0.0065                  8.091859376968738E-6
0.0065                    -0.0055                  9.875466134475068E-6