% Model:              Benchmark260518.mph
% Version:            COMSOL 6.2.0.339
% Date:               May 19 2026, 00:01
% Dimension:          2
% Nodes:              4096
% Expressions:        1
% Description:        速度大小
% Length unit:        m
% x                       y                        spf.U (m/s)
5.0E-4                    -0.0315                  1.9345903583188753E-6
5.0E-4                    -0.0305                  3.845154192433144E-6
5.0E-4                    -0.0295                  4.295120501265771E-6
5.0E-4                    -0.0285                  4.856840660387123E-6
5.0E-4                    -0.0275                  5.2385550357206E-6
5.0E-4                    -0.0265                  5.6412267528641785E-6
5.0E-4                    -0.0255                  6.0458481003016684E-6
5.0E-4                    -0.0245                  6.461066799226884E-6
5.0E-4                    -0.0235                  6.84782396794994E-6
5.0E-4                    -0.0225                  7.252074905228641E-6
5.0E-4                    -0.0215                  7.729153152592403E-6
5.0E-4                    -0.0205                  8.458893414843006E-6
5.0E-4                    -0.0195                  1.002411089234901E-5
5.0E-4                    -0.0185                  1.3132062006692475E-5
5.0E-4                    -0.0175                  2.1546514804652707E-5
5.0E-4                    -0.0165                  4.6548409888668257E-5
5.0E-4                    -0.0155                  1.2214288179665536E-4
5.0E-4                    -0.0145                  2.2724279780233247E-4
5.0E-4                    -0.0135                  2.9003566597077816E-4
5.0E-4                    -0.0125                  3.3028047713645645E-4
5.0E-4                    -0.0115                  4.857311807360561E-4
5.0E-4                    -0.0105                  8.947705573858057E-4
5.0E-4                    -0.0095                  0.001561366712681756
5.0E-4                    -0.0085                  0.0023962181637383895
5.0E-4                    -0.0075                  0.003263797144409143
5.0E-4                    -0.0065                  0.004039212348672546
5.0E-4                    -0.0055                  0.004638404227770203
5.0E-4                    -0.0045                  0.005028597877574111
5.0E-4                    -0.0035                  0.0052222937832052466
5.0E-4                    -0.0025                  0.005259213295071345
5.0E-4                    -0.0015                  0.005190375515547801
5.0E-4                    -5.0E-4                  0.005062642188834173
5.0E-4                    5.0E-4                   0.0049077259180528715
5.0E-4                    0.0015                   0.004737633834186351
5.0E-4                    0.0025                   0.004545791754616188
5.0E-4                    0.0035                   0.004312464839368317
5.0E-4                    0.0045                   0.004011255700269717
5.0E-4                    0.0055                   0.003617850004715349
5.0E-4                    0.0065                   0.0031212118477863637
5.0E-4                    0.0075                   0.0025270229865731173
5.0E-4                    0.0085                   0.0018563575944789466
5.0E-4                    0.0095                   0.001151995108717418
5.0E-4                    0.0105                   5.349940433855376E-4
5.0E-4                    0.0115                   5.709951098887793E-4
5.0E-4                    0.0125                   0.0010663455042818667
5.0E-4                    0.0135                   0.001482088028124381
5.0E-4                    0.0145                   0.0017348515293070337
5.0E-4                    0.0155                   0.0018129118999560205
5.0E-4                    0.0165                   0.0017169876867106197
5.0E-4                    0.0175                   0.001409400202542764
5.0E-4                    0.0185                   9.569523317902454E-4
5.0E-4                    0.0195                   0.006169397854953965
5.0E-4                    0.0205                   0.02155012565270654
5.0E-4                    0.0215                   0.031125545029594685
5.0E-4                    0.0225                   0.02672260580814674
5.0E-4                    0.0235                   0.01992586453975292
5.0E-4                    0.0245                   0.012515544693027457
5.0E-4                    0.0255                   0.006463998582975645
5.0E-4                    0.0265                   0.0024090333177534773
5.0E-4                    0.0275                   5.814276060781284E-4
5.0E-4                    0.0285                   1.2643210854417408E-4
5.0E-4                    0.0295                   5.8022186248350714E-5
5.0E-4                    0.0305                   1.942376205287214E-5
5.0E-4                    0.0315                   5.814082897874097E-6
0.0015                    -0.0315                  3.7492854532206782E-6
0.0015                    -0.0305                  7.3199275957525975E-6
0.0015                    -0.0295                  7.762605023088291E-6
0.0015                    -0.0285                  8.362048846400393E-6
0.0015                    -0.0275                  8.715843079622616E-6
0.0015                    -0.0265                  9.162375559039811E-6
0.0015                    -0.0255                  9.678916808405158E-6
0.0015                    -0.0245                  1.0261246303211757E-5
0.0015                    -0.0235                  1.0849639298213038E-5
0.0015                    -0.0225                  1.1480869102510637E-5
0.0015                    -0.0215                  1.2271147133250453E-5
0.0015                    -0.0205                  1.3624799738971324E-5
0.0015                    -0.0195                  1.6682900773556403E-5
0.0015                    -0.0185                  2.383463687048468E-5
0.0015                    -0.0175                  4.249437267701174E-5
0.0015                    -0.0165                  8.980992405761272E-5
0.0015                    -0.0155                  2.1482018974936735E-4
0.0015                    -0.0145                  4.0601033420348677E-4
0.0015                    -0.0135                  6.490737085090128E-4
0.0015                    -0.0125                  0.0011421200996285302
0.0015                    -0.0115                  0.002209441769176035
0.0015                    -0.0105                  0.003900062804968279
0.0015                    -0.0095                  0.005979232510936741
0.0015                    -0.0085                  0.008157219388251546
0.0015                    -0.0075                  0.010158954623535008
0.0015                    -0.0065                  0.011783018247669995
0.0015                    -0.0055                  0.012938866688467167
0.0015                    -0.0045                  0.013632343437140792
0.0015                    -0.0035                  0.013935710022318549
0.0015                    -0.0025                  0.013955891936380785
0.0015                    -0.0015                  0.013801370828960182
0.0015                    -5.0E-4                  0.013563587075632683
0.0015                    5.0E-4                   0.01330357742861078
0.0015                    0.0015                   0.013041814837436553
0.0015                    0.0025                   0.01275962836085193
0.0015                    0.0035                   0.012413350486190413
0.0015                    0.0045                   0.011951411889565453
0.0015                    0.0055                   0.01132819006496524
0.0015                    0.0065                   0.010515494640413832
0.0015                    0.0075                   0.009503985531503197
0.0015                    0.0085                   0.00830210746952162
0.0015                    0.0095                   0.006935865805239443
0.0015                    0.0105                   0.005448325033958485
0.0015                    0.0115                   0.003920251644588007
0.0015                    0.0125                   0.002477668684274546
0.0015                    0.0135                   0.0012645501939094336
0.0015                    0.0145                   4.897567935815026E-4
0.0015                    0.0155                   4.1454862533335133E-4
0.0015                    0.0165                   4.465754937886678E-4
0.0015                    0.0175                   0.001995540197996249
0.0015                    0.0185                   0.007021577544047021
0.0015                    0.0195                   0.017635200173262262
0.0015                    0.0205                   0.02846875905510387
0.0015                    0.0215                   0.030291904770936524
0.0015                    0.0225                   0.024724343819101206
0.0015                    0.0235                   0.017365560703490355
0.0015                    0.0245                   0.010232921514084125
0.0015                    0.0255                   0.004782071385655897
0.0015                    0.0265                   0.001592749916728027
0.0015                    0.0275                   4.566353363940793E-4
0.0015                    0.0285                   2.2737535745751667E-4
0.0015                    0.0295                   1.1564639817176465E-4
0.0015                    0.0305                   4.213224180000326E-5
0.0015                    0.0315                   1.2629557310459548E-5
0.0025                    -0.0315                  3.997217581719839E-6
0.0025                    -0.0305                  7.429405797314245E-6
0.0025                    -0.0295                  7.3005374084788345E-6
0.0025                    -0.0285                  7.52850492976477E-6
0.0025                    -0.0275                  7.515172942648824E-6
0.0025                    -0.0265                  7.628139038271579E-6
0.0025                    -0.0255                  7.896563130460093E-6
0.0025                    -0.0245                  8.327217073325627E-6
0.0025                    -0.0235                  8.871221450521666E-6
0.0025                    -0.0225                  9.504834681030924E-6
0.0025                    -0.0215                  1.037125966431445E-5
0.0025                    -0.0205                  1.2039977556652449E-5
0.0025                    -0.0195                  1.60317454696571E-5
0.0025                    -0.0185                  2.636878643579592E-5
0.0025                    -0.0175                  5.378274604340752E-5
0.0025                    -0.0165                  1.2259376317604425E-4
0.0025                    -0.0155                  2.597121728586583E-4
0.0025                    -0.0145                  5.445250977369918E-4
0.0025                    -0.0135                  0.001265938773282471
0.0025                    -0.0125                  0.0029099825345586514
0.0025                    -0.0115                  0.0055726521024085235
0.0025                    -0.0105                  0.008723796450923353
0.0025                    -0.0095                  0.011758973949791265
0.0025                    -0.0085                  0.01430243255190768
0.0025                    -0.0075                  0.01621215158491808
0.0025                    -0.0065                  0.01752770832873625
0.0025                    -0.0055                  0.01836348415894091
0.0025                    -0.0045                  0.018828508231266534
0.0025                    -0.0035                  0.019010596597006057
0.0025                    -0.0025                  0.01899368364140886
0.0025                    -0.0015                  0.018876530753468332
0.0025                    -5.0E-4                  0.018749031154027627
0.0025                    5.0E-4                   0.01867017170824773
0.0025                    0.0015                   0.018659383148919503
0.0025                    0.0025                   0.018698243563867387
0.0025                    0.0035                   0.018742176542698306
0.0025                    0.0045                   0.01873609751732508
0.0025                    0.0055                   0.018626354065519952
0.0025                    0.0065                   0.01836846370712155
0.0025                    0.0075                   0.01793305579219604
0.0025                    0.0085                   0.01730123905933248
0.0025                    0.0095                   0.01645116700179966
0.0025                    0.0105                   0.015357792348078715
0.0025                    0.0115                   0.014021783329334741
0.0025                    0.0125                   0.012513004526979812
0.0025                    0.0135                   0.0109857420539785
0.0025                    0.0145                   0.00971691646992395
0.0025                    0.0155                   0.009130665310615542
0.0025                    0.0165                   0.009842730853172055
0.0025                    0.0175                   0.012814151377461603
0.0025                    0.0185                   0.018699253517984977
0.0025                    0.0195                   0.025644090569586372
0.0025                    0.0205                   0.029577973208256454
0.0025                    0.0215                   0.027610736282816017
0.0025                    0.0225                   0.021288868830361372
0.0025                    0.0235                   0.014011186553388458
0.0025                    0.0245                   0.0076163112397944575
0.0025                    0.0255                   0.0031962267142982867
0.0025                    0.0265                   0.0010017457159926268
0.0025                    0.0275                   3.44864457795334E-4
0.0025                    0.0285                   2.1337884564188642E-4
0.0025                    0.0295                   1.2592806264607396E-4
0.0025                    0.0305                   4.922438621988115E-5
0.0025                    0.0315                   1.4716220682117861E-5
0.0035                    -0.0315                  4.401104199954949E-6
0.0035                    -0.0305                  7.803930372886465E-6
0.0035                    -0.0295                  7.378567436342641E-6
0.0035                    -0.0285                  7.758671526358828E-6
0.0035                    -0.0275                  7.840095723813077E-6
0.0035                    -0.0265                  8.048808346196357E-6
0.0035                    -0.0255                  8.499844947192011E-6
0.0035                    -0.0245                  9.297747056774768E-6
0.0035                    -0.0235                  1.0422244347366711E-5
0.0035                    -0.0225                  1.182573038078311E-5
0.0035                    -0.0215                  1.3639430850297284E-5
0.0035                    -0.0205                  1.667255755528507E-5
0.0035                    -0.0195                  2.3310763702504508E-5
0.0035                    -0.0185                  3.911926863022845E-5
0.0035                    -0.0175                  8.032521864102971E-5
0.0035                    -0.0165                  1.9952274086848697E-4
0.0035                    -0.0155                  4.5749665794935233E-4
0.0035                    -0.0145                  0.0011259364256666449
0.0035                    -0.0135                  0.002882445688135097
0.0035                    -0.0125                  0.006080925336158333
0.0035                    -0.0115                  0.010017529552900242
0.0035                    -0.0105                  0.013619083351747677
0.0035                    -0.0095                  0.0162990025574988
0.0035                    -0.0085                  0.018024233969924246
0.0035                    -0.0075                  0.01902526438558783
0.0035                    -0.0065                  0.019535471326112677
0.0035                    -0.0055                  0.01973794015302754
0.0035                    -0.0045                  0.019777900019340246
0.0035                    -0.0035                  0.01975508690893189
0.0035                    -0.0025                  0.01972616065821948
0.0035                    -0.0015                  0.019734880123244196
0.0035                    -5.0E-4                  0.019825151692556192
0.0035                    5.0E-4                   0.02002742626273757
0.0035                    0.0015                   0.020341331002134876
0.0035                    0.0025                   0.020734165627758892
0.0035                    0.0035                   0.021164608855741264
0.0035                    0.0045                   0.021603254628950824
0.0035                    0.0055                   0.022031806332327562
0.0035                    0.0065                   0.02243718469633033
0.0035                    0.0075                   0.022799461014024917
0.0035                    0.0085                   0.02308521318479907
0.0035                    0.0095                   0.023251498486420136
0.0035                    0.0105                   0.02324678237864529
0.0035                    0.0115                   0.02301780021778694
0.0035                    0.0125                   0.02253434641896976
0.0035                    0.0135                   0.021842071537759144
0.0035                    0.0145                   0.021141756624575844
0.0035                    0.0155                   0.020830091690651382
0.0035                    0.0165                   0.021425546761490437
0.0035                    0.0175                   0.023275585372772096
0.0035                    0.0185                   0.02593271864273827
0.0035                    0.0195                   0.027911873120355306
0.0035                    0.0205                   0.027387553569236864
0.0035                    0.0215                   0.023180365415761545
0.0035                    0.0225                   0.01666842759461988
0.0035                    0.0235                   0.010227504191414041
0.0035                    0.0245                   0.005067027105960415
0.0035                    0.0255                   0.001929142495116246
0.0035                    0.0265                   6.272953853158966E-4
0.0035                    0.0275                   2.902482717402088E-4
0.0035                    0.0285                   2.0307874537658308E-4
0.0035                    0.0295                   1.157324964122597E-4
0.0035                    0.0305                   4.9708968402282774E-5
0.0035                    0.0315                   1.585531549119764E-5
0.0045                    -0.0315                  4.690387312391381E-6
0.0045                    -0.0305                  8.022756655207022E-6
0.0045                    -0.0295                  7.280005355669583E-6
0.0045                    -0.0285                  7.78803142134008E-6
0.0045                    -0.0275                  8.119207411032124E-6
0.0045                    -0.0265                  8.696444870380217E-6
0.0045                    -0.0255                  9.771365054363518E-6
0.0045                    -0.0245                  1.1647312290268386E-5
0.0045                    -0.0235                  1.4412158365547625E-5
0.0045                    -0.0225                  1.7914262731052227E-5
0.0045                    -0.0215                  2.206898632617709E-5
0.0045                    -0.0205                  2.7793245685378715E-5
0.0045                    -0.0195                  3.882777629839373E-5
0.0045                    -0.0185                  6.445051174656949E-5
0.0045                    -0.0175                  1.2470267192622289E-4
0.0045                    -0.0165                  3.066334911221937E-4
0.0045                    -0.0155                  7.981954411065847E-4
0.0045                    -0.0145                  0.002255313938110503
0.0045                    -0.0135                  0.005509599969733464
0.0045                    -0.0125                  0.01002175245181403
0.0045                    -0.0115                  0.01413405477312425
0.0045                    -0.0105                  0.0168250205290811
0.0045                    -0.0095                  0.01808711965159118
0.0045                    -0.0085                  0.018307769781801736
0.0045                    -0.0075                  0.017846911371093167
0.0045                    -0.0065                  0.017075051787203834
0.0045                    -0.0055                  0.016328680159377294
0.0045                    -0.0045                  0.015801704735845475
0.0045                    -0.0035                  0.015550051483784442
0.0045                    -0.0025                  0.015541600780768898
0.0045                    -0.0015                  0.015717565041338515
0.0045                    -5.0E-4                  0.01604624672167567
0.0045                    5.0E-4                   0.016516535159666553
0.0045                    0.0015                   0.017100113440877838
0.0045                    0.0025                   0.01774146433734705
0.0045                    0.0035                   0.018396156697484924
0.0045                    0.0045                   0.019063781913312653
0.0045                    0.0055                   0.019782852844401986
0.0045                    0.0065                   0.020603189113483866
0.0045                    0.0075                   0.021549478249557868
0.0045                    0.0085                   0.022604683576213216
0.0045                    0.0095                   0.023718866223910496
0.0045                    0.0105                   0.024812395002098076
0.0045                    0.0115                   0.025782975315596632
0.0045                    0.0125                   0.026529031521589308
0.0045                    0.0135                   0.026971935569828374
0.0045                    0.0145                   0.027099439224749257
0.0045                    0.0155                   0.02701212283127016
0.0045                    0.0165                   0.02688722291350589
0.0045                    0.0175                   0.026795637977071303
0.0045                    0.0185                   0.026473351742277156
0.0045                    0.0195                   0.02524640366488908
0.0045                    0.0205                   0.02220101381006513
0.0045                    0.0215                   0.017146869049382424
0.0045                    0.0225                   0.011500574294703497
0.0045                    0.0235                   0.006604798881377066
0.0045                    0.0245                   0.0030316201339302376
0.0045                    0.0255                   0.0011469028726274566
0.0045                    0.0265                   4.636395548137773E-4
0.0045                    0.0275                   2.752071697477471E-4
0.0045                    0.0285                   1.7965384498663052E-4
0.0045                    0.0295                   8.933290908828882E-5
0.0045                    0.0305                   4.337012869360067E-5
0.0045                    0.0315                   1.5917040081350223E-5
0.0055                    -0.0315                  4.970647894263398E-6
0.0055                    -0.0305                  8.301212952319826E-6
0.0055                    -0.0295                  7.321875454263945E-6
0.0055                    -0.0285                  8.015151474929029E-6
0.0055                    -0.0275                  8.801550381562624E-6
0.0055                    -0.0265                  1.0243592669781831E-5
0.0055                    -0.0255                  1.2965756529018534E-5
0.0055                    -0.0245                  1.7907390755454137E-5
0.0055                    -0.0235                  2.5601743533524847E-5
0.0055                    -0.0225                  3.575844734587308E-5
0.0055                    -0.0215                  4.7166991225943836E-5
0.0055                    -0.0205                  5.967317377759005E-5
0.0055                    -0.0195                  7.860968591776053E-5
0.0055                    -0.0185                  1.248235411529797E-4
0.0055                    -0.0175                  2.508807870868255E-4
0.0055                    -0.0165                  5.57457729171647E-4
0.0055                    -0.0155                  0.001450031922211907
0.0055                    -0.0145                  0.004083937718446837
0.0055                    -0.0135                  0.008803176731465438
0.0055                    -0.0125                  0.013734570873104144
0.0055                    -0.0115                  0.01685684838077285
0.0055                    -0.0105                  0.01783673760200368
0.0055                    -0.0095                  0.01719308662619372
0.0055                    -0.0085                  0.015417761840529714
0.0055                    -0.0075                  0.01315212546134127
0.0055                    -0.0065                  0.011092704810665974
0.0055                    -0.0055                  0.009636751434706882
0.0055                    -0.0045                  0.008826544194782295
0.0055                    -0.0035                  0.008520011360354254
0.0055                    -0.0025                  0.008541258967592539
0.0055                    -0.0015                  0.0087638807064155
0.0055                    -5.0E-4                  0.00914958153082995
0.0055                    5.0E-4                   0.009706741033743142
0.0055                    0.0015                   0.010393915631168728
0.0055                    0.0025                   0.011111603121331389
0.0055                    0.0035                   0.011774743559308768
0.0055                    0.0045                   0.01237158309400412
0.0055                    0.0055                   0.012976027443849987
0.0055                    0.0065                   0.01370194754907161
0.0055                    0.0075                   0.01464376062617217
0.0055                    0.0085                   0.015846563005394276
0.0055                    0.0095                   0.017301250059652162
0.0055                    0.0105                   0.018946101076868168
0.0055                    0.0115                   0.02066535378537484
0.0055                    0.0125                   0.022300076475064115
0.0055                    0.0135                   0.0236613501677294
0.0055                    0.0145                   0.02456163764199749
0.0055                    0.0155                   0.024861115900138966
0.0055                    0.0165                   0.024486129025487843
0.0055                    0.0175                   0.023388094562719473
0.0055                    0.0185                   0.021469394627431963
0.0055                    0.0195                   0.018567077667834674
0.0055                    0.0205                   0.014691898487370968
0.0055                    0.0215                   0.010445598985866441
0.0055                    0.0225                   0.006787216041212603
0.0055                    0.0235                   0.004002995306911359
0.0055                    0.0245                   0.002031994970239058
0.0055                    0.0255                   9.4446553116774E-4
0.0055                    0.0265                   4.6111822707818617E-4
0.0055                    0.0275                   2.6284762744935774E-4
0.0055                    0.0285                   1.4981502517362667E-4
0.0055                    0.0295                   7.194084813409923E-5
0.0055                    0.0305                   3.7374920181937014E-5
0.0055                    0.0315                   1.5425155894015496E-5
0.0065                    -0.0315                  5.206291469658509E-6
0.0065                    -0.0305                  8.593738631061895E-6
0.0065                    -0.0295                  7.527067852111035E-6
0.0065                    -0.0285                  8.573810691085291E-6
0.0065                    -0.0275                  1.023421926882051E-5
0.0065                    -0.0265                  1.3607709182205345E-5
0.0065                    -0.0255                  2.0313333898818056E-5
0.0065                    -0.0245                  3.405051941374919E-5
0.0065                    -0.0235                  5.916698988362448E-5
0.0065                    -0.0225                  9.291677726700689E-5
0.0065                    -0.0215                  1.2808999538275735E-4
0.0065                    -0.0205                  1.621597810633397E-4
0.0065                    -0.0195                  2.000447999165825E-4
0.0065                    -0.0185                  2.73658518900513E-4
0.0065                    -0.0175                  5.23117759366818E-4
0.0065                    -0.0165                  0.0010648876013640983
0.0065                    -0.0155                  0.0026015349082411585
0.0065                    -0.0145                  0.006534291068593846
0.0065                    -0.0135                  0.012131932037985536
0.0065                    -0.0125                  0.01646469967123232
0.0065                    -0.0115                  0.017963448598190813
0.0065                    -0.0105                  0.016962673733641277
0.0065                    -0.0095                  0.014149889401222755
0.0065                    -0.0085                  0.01050495061432101
0.0065                    -0.0075                  0.007270923015315116
0.0065                    -0.0065                  0.005096483711600622
0.0065                    -0.0055                  0.003885280031447366
0.0065                    -0.0045                  0.003299556728406354