% Model:              Benchmark260518.mph
% Version:            COMSOL 6.2.0.339
% Date:               May 21 2026, 01:28
% Dimension:          2
% Nodes:              4096
% Expressions:        1
% Description:        速度大小
% Length unit:        m
% x                       y                        spf.U (m/s)
% mirrored_by_python_y_to_minus_y, coord_match_decimals=12
0.0005 -0.0315 1.26596102922e-06
0.0005 -0.0305 2.50620068688e-06
0.0005 -0.0295 2.68420663456e-06
0.0005 -0.0285 3.02602249011e-06
0.0005 -0.0275 3.40285334879e-06
0.0005 -0.0265 3.74285083445e-06
0.0005 -0.0255 4.13706040527e-06
0.0005 -0.0245 4.72175667706e-06
0.0005 -0.0235 5.62034244581e-06
0.0005 -0.0225 8.21238917003e-06
0.0005 -0.0215 1.64054623428e-05
0.0005 -0.0205 4.22406077518e-05
0.0005 -0.0195 0.000138000559683
0.0005 -0.0185 0.000340981953504
0.0005 -0.0175 0.000828544955666
0.0005 -0.0165 0.00347841848402
0.0005 -0.0155 0.011699374649
0.0005 -0.0145 0.0162248607764
0.0005 -0.0135 0.0133039082956
0.0005 -0.0125 0.00992463768215
0.0005 -0.0115 0.00647886940144
0.0005 -0.0105 0.00388109728484
0.0005 -0.0095 0.0024898121298
0.0005 -0.0085 0.00197165767337
0.0005 -0.0075 0.00178694035911
0.0005 -0.0065 0.00303567381113
0.0005 -0.0055 0.00746077080409
0.0005 -0.0045 0.0140499239928
0.0005 -0.0035 0.0219965199795
0.0005 -0.0025 0.028859777022
0.0005 -0.0015 0.0328656965062
0.0005 -0.0005 0.0222959567074
0.0005 0.0005 0.00561748216722
0.0005 0.0015 0.00089117068581
0.0005 0.0025 0.00115049068008
0.0005 0.0035 0.00106334654828
0.0005 0.0045 0.000782229784885
0.0005 0.0055 0.000449197474178
0.0005 0.0065 0.000196084291206
0.0005 0.0075 7.03179461053e-05
0.0005 0.0085 3.24964289161e-05
0.0005 0.0095 2.04010984814e-05
0.0005 0.0105 1.3848354146e-05
0.0005 0.0115 9.82041563116e-06
0.0005 0.0125 7.4490068914e-06
0.0005 0.0135 6.16908023526e-06
0.0005 0.0145 5.74428055686e-06
0.0005 0.0155 5.84995336999e-06
0.0005 0.0165 5.83428019486e-06
0.0005 0.0175 5.68900408956e-06
0.0005 0.0185 5.75414424865e-06
0.0005 0.0195 5.94336394372e-06
0.0005 0.0205 6.02872669528e-06
0.0005 0.0215 6.00100427126e-06
0.0005 0.0225 5.93377212208e-06
0.0005 0.0235 5.70793636028e-06
0.0005 0.0245 5.33580174104e-06
0.0005 0.0255 4.92465881649e-06
0.0005 0.0265 4.53082686064e-06
0.0005 0.0275 4.09980370429e-06
0.0005 0.0285 3.63634583279e-06
0.0005 0.0295 3.23381896952e-06
0.0005 0.0305 3.02386283832e-06
0.0005 0.0315 1.52820619788e-06
0.0015 -0.0315 2.49432221163e-06
0.0015 -0.0305 4.9405791376e-06
0.0015 -0.0295 5.23995244213e-06
0.0015 -0.0285 5.66431342982e-06
0.0015 -0.0275 6.05138280802e-06
0.0015 -0.0265 6.46390867057e-06
0.0015 -0.0255 7.04553842514e-06
0.0015 -0.0245 8.0819129316e-06
0.0015 -0.0235 1.01695158517e-05
0.0015 -0.0225 1.59313881999e-05
0.0015 -0.0215 3.28097790733e-05
0.0015 -0.0205 8.43873089997e-05
0.0015 -0.0195 0.000290797026326
0.0015 -0.0185 0.000792640157211
0.0015 -0.0175 0.00271214328349
0.0015 -0.0165 0.0087483070028
0.0015 -0.0155 0.0157252488056
0.0015 -0.0145 0.0163283479208
0.0015 -0.0135 0.0120246475187
0.0015 -0.0125 0.00731754691259
0.0015 -0.0115 0.00357078453963
0.0015 -0.0105 0.0015355024409
0.0015 -0.0095 0.000740485338522
0.0015 -0.0085 0.000550711431195
0.0015 -0.0075 0.000666927733105
0.0015 -0.0065 0.00175464971775
0.0015 -0.0055 0.00524447146153
0.0015 -0.0045 0.0113317845627
0.0015 -0.0035 0.0193703799896
0.0015 -0.0025 0.0273202853237
0.0015 -0.0015 0.0329189072529
0.0015 -0.0005 0.0300583580599
0.0015 0.0005 0.0165713356933
0.0015 0.0015 0.00424713290902
0.0015 0.0025 0.00167154441814
0.0015 0.0035 0.00220572597377
0.0015 0.0045 0.00197433648287
0.0015 0.0055 0.00137665515145
0.0015 0.0065 0.000716793579124
0.0015 0.0075 0.000294529715688
0.0015 0.0085 0.000123488489736
0.0015 0.0095 6.46690435765e-05
0.0015 0.0105 3.94696701602e-05
0.0015 0.0115 2.71937103873e-05
0.0015 0.0125 2.04049728929e-05
0.0015 0.0135 1.6156181877e-05
0.0015 0.0145 1.34388903642e-05
0.0015 0.0155 1.18916012006e-05
0.0015 0.0165 1.07473342848e-05
0.0015 0.0175 9.86767543467e-06
0.0015 0.0185 9.49861335005e-06
0.0015 0.0195 9.46384439403e-06
0.0015 0.0205 9.44785833559e-06
0.0015 0.0215 9.37621834897e-06
0.0015 0.0225 9.27594604019e-06
0.0015 0.0235 9.01366545162e-06
0.0015 0.0245 8.59374416383e-06
0.0015 0.0255 8.13460779138e-06
0.0015 0.0265 7.70830396118e-06
0.0015 0.0275 7.2606682879e-06
0.0015 0.0285 6.80556892497e-06
0.0015 0.0295 6.30713320659e-06
0.0015 0.0305 5.94148786904e-06
0.0015 0.0315 2.99721036043e-06
0.0025 -0.0315 2.62177955592e-06
0.0025 -0.0305 5.15732559484e-06
0.0025 -0.0295 5.48157954244e-06
0.0025 -0.0285 5.79788927951e-06
0.0025 -0.0275 5.87674883391e-06
0.0025 -0.0265 6.06844252212e-06
0.0025 -0.0255 6.57092159925e-06
0.0025 -0.0245 7.85581805632e-06
0.0025 -0.0235 1.11655888056e-05
0.0025 -0.0225 1.99525196576e-05
0.0025 -0.0215 4.53865306332e-05
0.0025 -0.0205 0.000119991263019
0.0025 -0.0195 0.000436186781103
0.0025 -0.0185 0.00148396733624
0.0025 -0.0175 0.00522972165116
0.0025 -0.0165 0.0119849918162
0.0025 -0.0155 0.0165675972442
0.0025 -0.0145 0.0147531294349
0.0025 -0.0135 0.00935733267293
0.0025 -0.0125 0.00463179849351
0.0025 -0.0115 0.00189178382686
0.0025 -0.0105 0.000760923418548
0.0025 -0.0095 0.000345702296585
0.0025 -0.0085 0.000257605961978
0.0025 -0.0075 0.000364723225749
0.0025 -0.0065 0.00104306422731
0.0025 -0.0055 0.00332831276409
0.0025 -0.0045 0.00818484950302
0.0025 -0.0035 0.0157077700159
0.0025 -0.0025 0.0242642192603
0.0025 -0.0015 0.0313362030145
0.0025 -0.0005 0.032929588765
0.0025 0.0005 0.0259939575251
0.0025 0.0015 0.0140129813029
0.0025 0.0025 0.0043819321696
0.0025 0.0035 0.000998184587841
0.0025 0.0045 0.00217430979229
0.0025 0.0055 0.0022490212667
0.0025 0.0065 0.00159617878492
0.0025 0.0075 0.00081671689608
0.0025 0.0085 0.000346963298905
0.0025 0.0095 0.000155034720945
0.0025 0.0105 8.27714400692e-05
0.0025 0.0115 5.50754744008e-05
0.0025 0.0125 4.23934117126e-05
0.0025 0.0135 3.183768953e-05
0.0025 0.0145 2.35381382176e-05
0.0025 0.0155 1.74209456356e-05
0.0025 0.0165 1.29771915421e-05
0.0025 0.0175 1.015899908e-05
0.0025 0.0185 8.58420881871e-06
0.0025 0.0195 7.78185632574e-06
0.0025 0.0205 7.41087689893e-06
0.0025 0.0215 7.24992533818e-06
0.0025 0.0225 7.16492768187e-06
0.0025 0.0235 7.09525645973e-06
0.0025 0.0245 7.02401342594e-06
0.0025 0.0255 6.97075925345e-06
0.0025 0.0265 6.95616559392e-06
0.0025 0.0275 6.95602299411e-06
0.0025 0.0285 6.94258041603e-06
0.0025 0.0295 6.5745791786e-06
0.0025 0.0305 6.12020477538e-06
0.0025 0.0315 3.08590366269e-06
0.0035 -0.0315 2.82685301323e-06
0.0035 -0.0305 5.39540715529e-06
0.0035 -0.0295 5.69128349409e-06
0.0035 -0.0285 6.20085483402e-06
0.0035 -0.0275 6.39732540554e-06
0.0035 -0.0265 6.71868059969e-06
0.0035 -0.0255 7.54393074908e-06
0.0035 -0.0245 9.72067689757e-06
0.0035 -0.0235 1.52961010756e-05
0.0035 -0.0225 3.01007653695e-05
0.0035 -0.0215 7.5208951045e-05
0.0035 -0.0205 0.00024118122682
0.0035 -0.0195 0.000820183762956
0.0035 -0.0185 0.00290606530886
0.0035 -0.0175 0.0081987713088
0.0035 -0.0165 0.0145076739378
0.0035 -0.0155 0.0162614264497
0.0035 -0.0145 0.0121463729174
0.0035 -0.0135 0.00640210940498
0.0035 -0.0125 0.00265976199659
0.0035 -0.0115 0.00100059490826
0.0035 -0.0105 0.000371024219107
0.0035 -0.0095 0.000155089728037
0.0035 -0.0085 0.00012990229049
0.0035 -0.0075 0.000220981402491
0.0035 -0.0065 0.000607311756469
0.0035 -0.0055 0.0018641581377
0.0035 -0.0045 0.00507489753306
0.0035 -0.0035 0.0112155015236
0.0035 -0.0025 0.019575445196
0.0035 -0.0015 0.0279195354503
0.0035 -0.0005 0.0328353341501
0.0035 0.0005 0.0316125013211
0.0035 0.0015 0.0243918312756
0.0035 0.0025 0.0143274018809
0.0035 0.0035 0.00577959888161
0.0035 0.0045 0.000535429610967
0.0035 0.0055 0.00191180232436
0.0035 0.0065 0.00233514148937
0.0035 0.0075 0.0016956467545
0.0035 0.0085 0.000890649712208
0.0035 0.0095 0.000389424612837
0.0035 0.0105 0.000180739951329
0.0035 0.0115 0.000117651892609
0.0035 0.0125 8.99783942478e-05
0.0035 0.0135 6.59357269941e-05
0.0035 0.0145 4.91445743993e-05
0.0035 0.0155 3.33909999615e-05
0.0035 0.0165 2.1893940637e-05
0.0035 0.0175 1.51567248091e-05
0.0035 0.0185 1.15158224093e-05
0.0035 0.0195 9.65987358027e-06
0.0035 0.0205 8.71735618075e-06
0.0035 0.0215 8.20788376754e-06
0.0035 0.0225 7.88986354573e-06
0.0035 0.0235 7.6661070623e-06
0.0035 0.0245 7.52201258876e-06
0.0035 0.0255 7.46661746741e-06
0.0035 0.0265 7.4884894387e-06
0.0035 0.0275 7.50651174323e-06
0.0035 0.0285 7.41187566229e-06
0.0035 0.0295 6.80775366239e-06
0.0035 0.0305 6.25971986905e-06
0.0035 0.0315 3.20046444053e-06
0.0045 -0.0315 2.99588094219e-06
0.0045 -0.0305 5.53011609594e-06
0.0045 -0.0295 5.65240353228e-06
0.0045 -0.0285 6.25736186149e-06
0.0045 -0.0275 6.64173393265e-06
0.0045 -0.0265 7.26827631304e-06
0.0045 -0.0255 8.73455810999e-06
0.0045 -0.0245 1.25315084037e-05
0.0045 -0.0235 2.21689110851e-05
0.0045 -0.0225 4.87492014437e-05
0.0045 -0.0215 0.000126766339827
0.0045 -0.0205 0.000453782762688
0.0045 -0.0195 0.00154500661633
0.0045 -0.0185 0.00499667001557
0.0045 -0.0175 0.0112949457604
0.0045 -0.0165 0.0160889383698
0.0045 -0.0155 0.0148334306203
0.0045 -0.0145 0.00911427653154
0.0045 -0.0135 0.00394317891932
0.0045 -0.0125 0.00143503959968
0.0045 -0.0115 0.000522407507632
0.0045 -0.0105 0.000198692041331
0.0045 -0.0095 9.46042952214e-05
0.0045 -0.0085 8.76511903316e-05
0.0045 -0.0075 0.00015412419928
0.0045 -0.0065 0.000358237484832
0.0045 -0.0055 0.000967339669965
0.0045 -0.0045 0.00266607849833
0.0045 -0.0035 0.00670809437398
0.0045 -0.0025 0.0136625058985
0.0045 -0.0015 0.0223296795114
0.0045 -0.0005 0.0296499691867
0.0045 0.0005 0.0327080292428
0.0045 0.0015 0.0307088143848
0.0045 0.0025 0.0244344642163
0.0045 0.0035 0.0160430524624
0.0045 0.0045 0.00814112758594
0.0045 0.0055 0.00239802331257
0.0045 0.0065 0.00109080053123
0.0045 0.0075 0.00199229776847
0.0045 0.0085 0.00161161093193
0.0045 0.0095 0.000922583566986
0.0045 0.0105 0.000436494237731
0.0045 0.0115 0.000225796030746
0.0045 0.0125 0.000165200771561
0.0045 0.0135 0.000141763662961
0.0045 0.0145 0.000111398846471
0.0045 0.0155 6.97592518427e-05
0.0045 0.0165 4.2239255518e-05
0.0045 0.0175 2.65485848188e-05
0.0045 0.0185 1.80767100846e-05
0.0045 0.0195 1.3568468528e-05
0.0045 0.0205 1.1170682878e-05
0.0045 0.0215 9.78952103849e-06
0.0045 0.0225 8.90204112144e-06
0.0045 0.0235 8.30738344308e-06
0.0045 0.0245 7.95002106669e-06
0.0045 0.0255 7.79380132834e-06
0.0045 0.0265 7.76261156075e-06
0.0045 0.0275 7.70191452169e-06
0.0045 0.0285 7.46921871742e-06
0.0045 0.0295 6.73275048267e-06
0.0045 0.0305 6.26022908446e-06
0.0045 0.0315 3.26848965325e-06
0.0055 -0.0315 3.26607195723e-06
0.0055 -0.0305 5.8158730256e-06
0.0055 -0.0295 5.66086936361e-06
0.0055 -0.0285 6.27489916056e-06
0.0055 -0.0275 6.85010078366e-06
0.0055 -0.0265 7.94714592745e-06
0.0055 -0.0255 1.04964559965e-05
0.0055 -0.0245 1.70675372435e-05
0.0055 -0.0235 3.5008183991e-05
0.0055 -0.0225 8.59280339089e-05
0.0055 -0.0215 0.000257112961995
0.0055 -0.0205 0.000849952532172
0.0055 -0.0195 0.00279877128127
0.0055 -0.0185 0.00771175541956
0.0055 -0.0175 0.014065923815
0.0055 -0.0165 0.0164057846068
0.0055 -0.0155 0.012438594773
0.0055 -0.0145 0.00623517081798
0.0055 -0.0135 0.00227023914261
0.0055 -0.0125 0.000747645507146
0.0055 -0.0115 0.000249710557333
0.0055 -0.0105 0.000103160038506
0.0055 -0.0095 6.15743711503e-05
0.0055 -0.0085 6.2839198815e-05
0.0055 -0.0075 0.000104265492163
0.0055 -0.0065 0.000216333746408
0.0055 -0.0055 0.000510564618782
0.0055 -0.0045 0.00128093051372
0.0055 -0.0035 0.00331742776537
0.0055 -0.0025 0.00782752147153
0.0055 -0.0015 0.015170946551
0.0055 -0.0005 0.0234901434355
0.0055 0.0005 0.0296595049784
0.0055 0.0015 0.0319115802398
0.0055 0.0025 0.0302327392819
0.0055 0.0035 0.0253220591203
0.0055 0.0045 0.0184762675375
0.0055 0.0055 0.0112911077403
0.0055 0.0065 0.00522802305299
0.0055 0.0075 0.00139637521954
0.0055 0.0085 0.00110592469027
0.0055 0.0095 0.00124934014947
0.0055 0.0105 0.000852745485053
0.0055 0.0115 0.000457248177748
0.0055 0.0125 0.000314742751087
0.0055 0.0135 0.000316376967591
0.0055 0.0145 0.000267731229459
0.0055 0.0155 0.000172471629709
0.0055 0.0165 9.6681842438e-05
0.0055 0.0175 5.59656007239e-05
0.0055 0.0185 3.39647858802e-05
0.0055 0.0195 2.25098658375e-05
0.0055 0.0205 1.63449170296e-05
0.0055 0.0215 1.28360099851e-05
0.0055 0.0225 1.06641002459e-05
0.0055 0.0235 9.30260640994e-06
0.0055 0.0245 8.53010814619e-06
0.0055 0.0255 8.17063213211e-06
0.0055 0.0265 8.02106515728e-06
0.0055 0.0275 7.8426017872e-06
0.0055 0.0285 7.4932001746e-06
0.0055 0.0295 6.69445781869e-06
0.0055 0.0305 6.30372574798e-06
0.0055 0.0315 3.33923713369e-06
0.0065 -0.0315 3.74098713736e-06
0.0065 -0.0305 6.36321916821e-06
0.0065 -0.0295 5.75910866451e-06
0.0065 -0.0285 6.32556575425e-06
0.0065 -0.0275 7.09216631898e-06
0.0065 -0.0265 8.83254120861e-06
0.0065 -0.0255 1.3058061479e-05
0.0065 -0.0245 2.4018444502e-05
0.0065 -0.0235 5.65504897211e-05
0.0065 -0.0225 0.000169407344123
0.0065 -0.0215 0.000540810012288
0.0065 -0.0205 0.00161975028701
0.0065 -0.0195 0.00482669606813
0.0065 -0.0185 0.0108388906487
0.0065 -0.0175 0.0159546629773
0.0065 -0.0165 0.0152686434088
0.0065 -0.0155 0.00947063803253
0.0065 -0.0145 0.00391477303543
0.0065 -0.0135 0.00129327163852
0.0065 -0.0125 0.000407505941108
0.0065 -0.0115 0.000133655413291
0.0065 -0.0105 6.52203525979e-05
0.0065 -0.0095 4.43173299056e-05
0.0065 -0.0085 4.75556519105e-05
0.0065 -0.0075 7.5553488861e-05
0.0065 -0.0065 0.000144107839055
0.0065 -0.0055 0.000301975835945
0.0065 -0.0045 0.000672375506772
0.0065 -0.0035 0.00153688042786
0.0065 -0.0025 0.00367480745453
0.0065 -0.0015 0.00830143063733
0.0065 -0.0005 0.015435836017
0.0065 0.0005 0.0229837213005
0.0065 0.0015 0.0284494501159
0.0065 0.0025 0.030729179523
0.0065 0.0035 0.0298978036132
0.0065 0.0045 0.0264316740893
0.0065 0.0055 0.021074743778
0.0065 0.0065 0.0148064553254
0.0065 0.0075 0.00880262948349
0.0065 0.0085 0.00422182956461
0.0065 0.0095 0.00170118994638
0.0065 0.0105 0.00103561527745
0.0065 0.0115 0.000953560847854
0.0065 0.0125 0.000933828656684
0.0065 0.0135 0.000936403475905
0.0065 0.0145 0.000802948363947
0.0065 0.0155 0.000534725698298
0.0065 0.0165 0.000283660978677
0.0065 0.0175 0.000139081153711
0.0065 0.0185 7.46132167292e-05
0.0065 0.0195 4.31943088682e-05
0.0065 0.0205 2.76068459663e-05
0.0065 0.0215 1.90264171694e-05
0.0065 0.0225 1.39333146358e-05
0.0065 0.0235 1.09507541524e-05
0.0065 0.0245 9.37317601229e-06
0.0065 0.0255 8.65142688453e-06
0.0065 0.0265 8.31480851485e-06
0.0065 0.0275 7.99993670054e-06
0.0065 0.0285 7.55029574219e-06
0.0065 0.0295 6.70463199288e-06
0.0065 0.0305 6.37181904237e-06
0.0065 0.0315 3.40823725599e-06
0.0075 -0.0315 4.47107891236e-06
0.0075 -0.0305 7.23428277555e-06
0.0075 -0.0295 5.98581914771e-06
0.0075 -0.0285 6.48708542454e-06
0.0075 -0.0275 7.50643564965e-06
0.0075 -0.0265 1.01378310257e-05
0.0075 -0.0255 1.68050043823e-05
0.0075 -0.0245 3.54422338738e-05
0.0075 -0.0235 9.01829807544e-05
0.0075 -0.0225 0.00030691739934
0.0075 -0.0215 0.000987750362827
0.0075 -0.0205 0.00294618405796
0.0075 -0.0195 0.00762489297056
0.0075 -0.0185 0.0137798055226
0.0075 -0.0175 0.0164352956552
0.0075 -0.0165 0.0128393895497
0.0075 -0.0155 0.00650164092254
0.0075 -0.0145 0.00230166078377
0.0075 -0.0135 0.000732397766017
0.0075 -0.0125 0.000234802067221
0.0075 -0.0115 9.08071956708e-05
0.0075 -0.0105 4.79864828587e-05
0.0075 -0.0095 3.56725566981e-05
0.0075 -0.0085 3.87665704672e-05
0.0075 -0.0075 5.87932087985e-05
0.0075 -0.0065 0.000107296110054
0.0075 -0.0055 0.000212637445943
0.0075 -0.0045 0.000449464381885
0.0075 -0.0035 0.000951524298935
0.0075 -0.0025 0.00187012344593
0.0075 -0.0015 0.00375575431715
0.0075 -0.0005 0.00783903581084
0.0075 0.0005 0.014217256238
0.0075 0.0015 0.0210724820222
0.0075 0.0025 0.0264072283212
0.0075 0.0035 0.0292135365853
0.0075 0.0045 0.0293768847102
0.0075 0.0055 0.0272282318251
0.0075 0.0065 0.0232430046547
0.0075 0.0075 0.018086260995
0.0075 0.0085 0.0127147937869
0.0075 0.0095 0.00824343661661
0.0075 0.0105 0.00544727384455
0.0075 0.0115 0.00422956112636
0.0075 0.0125 0.00374342627928
0.0075 0.0135 0.00330827375302
0.0075 0.0145 0.00266450471779
0.0075 0.0155 0.00177585341987
0.0075 0.0165 0.000942345404045
0.0075 0.0175 0.000424038612255
0.0075 0.0185 0.000186558259509
0.0075 0.0195 9.63206310421e-05
0.0075 0.0205 5.53257628604e-05
0.0075 0.0215 3.3743526012e-05
0.0075 0.0225 2.1290308706e-05
0.0075 0.0235 1.44171522089e-05
0.0075 0.0245 1.10720661399e-05
0.0075 0.0255 9.56640720681e-06
0.0075 0.0265 8.83580516975e-06
0.0075 0.0275 8.28895830849e-06
0.0075 0.0285 7.69491798809e-06
0.0075 0.0295 6.77370278704e-06
0.0075 0.0305 6.46245261384e-06
0.0075 0.0315 3.47611093832e-06
0.0085 -0.0315 5.4745949475e-06
0.0085 -0.0305 8.41940865354e-06
0.0085 -0.0295 6.32151175319e-06
0.0085 -0.0285 6.79635693464e-06
0.0085 -0.0275 8.21349012069e-06
0.0085 -0.0265 1.2158196178e-05
0.0085 -0.0255 2.23950220069e-05
0.0085 -0.0245 5.31005319257e-05
0.0085 -0.0235 0.000161885176593
0.0085 -0.0225 0.000547039228367
0.0085 -0.0215 0.00172087864899
0.0085 -0.0205 0.00499015457553
0.0085 -0.0195 0.0108050517195
0.0085 -0.0185 0.0157436007792
0.0085 -0.0175 0.0152688248537
0.0085 -0.0165 0.00967417307601
0.0085 -0.0155 0.00403829591074
0.0085 -0.0145 0.00132433134371
0.0085 -0.0135 0.000418219546592
0.0085 -0.0125 0.000139633528726
0.0085 -0.0115 6.69210198901e-05
0.0085 -0.0105 3.99282264782e-05
0.0085 -0.0095 3.17834617343e-05
0.0085 -0.0085 3.49821631347e-05
0.0085 -0.0075 5.13539433929e-05
0.0085 -0.0065 9.11305726348e-05
0.0085 -0.0055 0.000181638803714
0.0085 -0.0045 0.000391684735998
0.0085 -0.0035 0.000954562987858
0.0085 -0.0025 0.00189283389429
0.0085 -0.0015 0.00260870078017
0.0085 -0.0005 0.00333258874551
0.0085 0.0005 0.00625604093107
0.0085 0.0015 0.0118040796282
0.0085 0.0025 0.0182194915064
0.0085 0.0035 0.0237324746104
0.0085 0.0045 0.0272060065085
0.0085 0.0055 0.0282679214799
0.0085 0.0065 0.0271375111245
0.0085 0.0075 0.0242559627131
0.0085 0.0085 0.0202299453119
0.0085 0.0095 0.0160040984094
0.0085 0.0105 0.0127078322363
0.0085 0.0115 0.010884787145
0.0085 0.0125 0.00996729326233
0.0085 0.0135 0.00905319370929
0.0085 0.0145 0.00762333360625
0.0085 0.0155 0.00546008496856
0.0085 0.0165 0.00305109897487
0.0085 0.0175 0.00135117781488
0.0085 0.0185 0.000548928165363
0.0085 0.0195 0.000244341781162
0.0085 0.0205 0.000135171635807
0.0085 0.0215 7.46700685422e-05
0.0085 0.0225 3.88018659533e-05
0.0085 0.0235 2.20441273607e-05
0.0085 0.0245 1.46754051245e-05
0.0085 0.0255 1.1316612862e-05
0.0085 0.0265 9.72351944176e-06
0.0085 0.0275 8.74283408705e-06
0.0085 0.0285 7.91517379678e-06
0.0085 0.0295 6.87761751145e-06
0.0085 0.0305 6.56152443292e-06
0.0085 0.0315 3.5408063901e-06
0.0095 -0.0315 6.43969538277e-06
0.0095 -0.0305 9.6111249524e-06
0.0095 -0.0295 6.75258447428e-06
0.0095 -0.0285 7.26960073608e-06
0.0095 -0.0275 9.31698997322e-06
0.0095 -0.0265 1.52435044143e-05
0.0095 -0.0255 3.17417151604e-05
0.0095 -0.0245 8.01078215347e-05
0.0095 -0.0235 0.000279426981942
0.0095 -0.0225 0.000943423167072
0.0095 -0.0215 0.00296475045791
0.0095 -0.0205 0.0076804168488
0.0095 -0.0195 0.013660220501
0.0095 -0.0185 0.0161830204027
0.0095 -0.0175 0.0127329722467
0.0095 -0.0165 0.00653388191413
0.0095 -0.0155 0.00233271622149
0.0095 -0.0145 0.000753662307061
0.0095 -0.0135 0.000251721974553
0.0095 -0.0125 0.000103013129328
0.0095 -0.0115 5.41476922003e-05
0.0095 -0.0105 3.60079089152e-05
0.0095 -0.0095 3.09833247173e-05
0.0095 -0.0085 3.56496690279e-05
0.0095 -0.0075 5.35893965115e-05
0.0095 -0.0065 9.7826422382e-05
0.0095 -0.0055 0.000204640163913
0.0095 -0.0045 0.000463659752269
0.0095 -0.0035 0.00120936096565
0.0095 -0.0025 0.00245854062398
0.0095 -0.0015 0.00298156002834
0.0095 -0.0005 0.00251897289338
0.0095 0.0005 0.00233468221076
0.0095 0.0015 0.00442177994062
0.0095 0.0025 0.00903365373727
0.0095 0.0035 0.0149107525159
0.0095 0.0045 0.0205399779569
0.0095 0.0055 0.0245631939149
0.0095 0.0065 0.0262394088266
0.0095 0.0075 0.0256406382167
0.0095 0.0085 0.0233391498799
0.0095 0.0095 0.0201393546099
0.0095 0.0105 0.0173014321044
0.0095 0.0115 0.0159481232451
0.0095 0.0125 0.0156723710207
0.0095 0.0135 0.0153366966065
0.0095 0.0145 0.0143739073318
0.0095 0.0155 0.012083160465
0.0095 0.0165 0.0081866238515
0.0095 0.0175 0.00417315634522
0.0095 0.0185 0.00173409394118
0.0095 0.0195 0.000788838966964
0.0095 0.0205 0.000420771643274
0.0095 0.0215 0.000195807983387
0.0095 0.0225 8.07931513117e-05
0.0095 0.0235 3.90460892695e-05
0.0095 0.0245 2.16377350102e-05
0.0095 0.0255 1.43055700104e-05
0.0095 0.0265 1.10835206365e-05
0.0095 0.0275 9.36476370282e-06
0.0095 0.0285 8.18868048455e-06
0.0095 0.0295 6.99705565642e-06
0.0095 0.0305 6.66289412962e-06
0.0095 0.0315 3.60359164466e-06
0.0105 -0.0315 7.48884374251e-06
0.0105 -0.0305 1.08349723981e-05
0.0105 -0.0295 7.17866250224e-06
0.0105 -0.0285 7.93799451934e-06
0.0105 -0.0275 1.08977977491e-05
0.0105 -0.0265 1.95952560176e-05
0.0105 -0.0255 4.62877828546e-05
0.0105 -0.0245 0.000140063464777
0.0105 -0.0235 0.000478532210672
0.0105 -0.0225 0.00156405644827
0.0105 -0.0215 0.00476832246324
0.0105 -0.0205 0.0105833007287
0.0105 -0.0195 0.0155035843581
0.0105 -0.0185 0.0150428837525
0.0105 -0.0175 0.00956581379248
0.0105 -0.0165 0.004021378761
0.0105 -0.0155 0.0013365767543
0.0105 -0.0145 0.000442852008109
0.0105 -0.0135 0.000161642768433
0.0105 -0.0125 8.12717705767e-05
0.0105 -0.0115 4.77310290197e-05
0.0105 -0.0105 3.46154757457e-05
0.0105 -0.0095 3.25501964931e-05
0.0105 -0.0085 4.05567395578e-05
0.0105 -0.0075 6.63179306773e-05
0.0105 -0.0065 0.000135910608145
0.0105 -0.0055 0.000319395332649
0.0105 -0.0045 0.000855654988706
0.0105 -0.0035 0.00203149182112
0.0105 -0.0025 0.00305684355383
0.0105 -0.0015 0.0026979734858
0.0105 -0.0005 0.00188717099439
0.0105 0.0005 0.0015259697656
0.0105 0.0015 0.00147053181152
0.0105 0.0025 0.00296952986727
0.0105 0.0035 0.00655767353602
0.0105 0.0045 0.0117084026967
0.0105 0.0055 0.0172190928857
0.0105 0.0065 0.0214302080224
0.0105 0.0075 0.0231483770804
0.0105 0.0085 0.0223609761387
0.0105 0.0095 0.0198417423902
0.0105 0.0105 0.0170078902862
0.0105 0.0115 0.015652468425
0.0105 0.0125 0.0158366069326
0.0105 0.0135 0.0165246420636
0.0105 0.0145 0.0174443722157
0.0105 0.0155 0.0175540223256
0.0105 0.0165 0.0150277582082
0.0105 0.0175 0.00997113858708
0.0105 0.0185 0.00504950035812
0.0105 0.0195 0.00226603979356
0.0105 0.0205 0.00109745443077
0.0105 0.0215 0.000501394001
0.0105 0.0225 0.000193134703227
0.0105 0.0235 7.31342800251e-05
0.0105 0.0245 3.32549433066e-05
0.0105 0.0255 1.8990928626e-05
0.0105 0.0265 1.30656518107e-05
0.0105 0.0275 1.01905886269e-05
0.0105 0.0285 8.52108037302e-06
0.0105 0.0295 7.1332317894e-06
0.0105 0.0305 6.77336172174e-06
0.0105 0.0315 3.67057923791e-06
0.0115 -0.0315 7.73253532322e-06
0.0115 -0.0305 1.11529361146e-05
0.0115 -0.0295 7.54664301764e-06
0.0115 -0.0285 8.87841494508e-06
0.0115 -0.0275 1.31825427645e-05
0.0115 -0.0265 2.55095826502e-05
0.0115 -0.0255 6.36698892109e-05
0.0115 -0.0245 0.000224065432089
0.0115 -0.0235 0.000767721107229
0.0115 -0.0225 0.00250143943806
0.0115 -0.0215 0.00696903487392
0.0115 -0.0205 0.0131161001935
0.0115 -0.0195 0.0160089468534
0.0115 -0.0185 0.0127580627799
0.0115 -0.0175 0.00657999286785
0.0115 -0.0165 0.00235434952872
0.0115 -0.0155 0.000782690815084
0.0115 -0.0145 0.000286076395596
0.0115 -0.0135 0.000127229928908
0.0115 -0.0125 6.83553403623e-05
0.0115 -0.0115 4.40279969315e-05
0.0115 -0.0105 3.50458500747e-05
0.0115 -0.0095 3.6260313728e-05
0.0115 -0.0085 4.97839091071e-05
0.0115 -0.0075 8.95642263734e-05
0.0115 -0.0065 0.000209514281325
0.0115 -0.0055 0.000605699143605
0.0115 -0.0045 0.00175816258914
0.0115 -0.0035 0.00331986574004
0.0115 -0.0025 0.00341413741122
0.0115 -0.0015 0.00200057265696
0.0115 -0.0005 0.00112477241141
0.0115 0.0005 0.000994477157451
0.0115 0.0015 0.000867511440923
0.0115 0.0025 0.000941997230548
0.0115 0.0035 0.00201894120362
0.0115 0.0045 0.00475683569542
0.0115 0.0055 0.00925595932787
0.0115 0.0065 0.0144401997382
0.0115 0.0075 0.0181527272835
0.0115 0.0085 0.0189432112767
0.0115 0.0095 0.0169219193361
0.0115 0.0105 0.0133704917587
0.0115 0.0115 0.0107702604445
0.0115 0.0125 0.0102360462637
0.0115 0.0135 0.0111227723594
0.0115 0.0145 0.0136859906259
0.0115 0.0155 0.017118291936
0.0115 0.0165 0.0187454533744
0.0115 0.0175 0.0163356684871
0.0115 0.0185 0.0108687526751
0.0115 0.0195 0.00561549538346
0.0115 0.0205 0.00251555072743
0.0115 0.0215 0.00107717255562
0.0115 0.0225 0.00039809445676
0.0115 0.0235 0.000126055369883
0.0115 0.0245 5.17695952445e-05
0.0115 0.0255 2.64117550311e-05
0.0115 0.0265 1.61130759616e-05
0.0115 0.0275 1.14123323403e-05
0.0115 0.0285 8.99648349691e-06
0.0115 0.0295 7.32796286981e-06
0.0115 0.0305 6.92018397809e-06
0.0115 0.0315 3.75506257681e-06
0.0125 -0.0315 6.35570916651e-06
0.0125 -0.0305 9.83227195272e-06
0.0125 -0.0295 7.95111898988e-06
0.0125 -0.0285 1.0227726778e-05
0.0125 -0.0275 1.66315786484e-05
0.0125 -0.0265 3.47758598501e-05
0.0125 -0.0255 8.75356020671e-05
0.0125 -0.0245 0.000315456859109
0.0125 -0.0235 0.00112879729045
0.0125 -0.0225 0.00373971540083
0.0125 -0.0215 0.00925824166541
0.0125 -0.0205 0.0148570049164
0.0125 -0.0195 0.015291346201
0.0125 -0.0185 0.0100407562313
0.0125 -0.0175 0.00425715729189
0.0125 -0.0165 0.00140937003386
0.0125 -0.0155 0.000496608570808
0.0125 -0.0145 0.00020031917484
0.0125 -0.0135 0.00010457107986
0.0125 -0.0125 6.11698445874e-05
0.0125 -0.0115 4.24903070712e-05
0.0125 -0.0105 3.70196434972e-05
0.0125 -0.0095 4.20567119492e-05
0.0125 -0.0085 6.35564195433e-05
0.0125 -0.0075 0.000126374098347
0.0125 -0.0065 0.00030972849307
0.0125 -0.0055 0.00103196828395
0.0125 -0.0045 0.00285110180723
0.0125 -0.0035 0.00411733039443
0.0125 -0.0025 0.00308601573476
0.0125 -0.0015 0.00139490249215
0.0125 -0.0005 0.000654312508896
0.0125 0.0005 0.00055418797998
0.0125 0.0015 0.000544718535004
0.0125 0.0025 0.000514523424547
0.0125 0.0035 0.000681903574952
0.0125 0.0045 0.00154774250081
0.0125 0.0055 0.00394805236227
0.0125 0.0065 0.00833269586496
0.0125 0.0075 0.0130150019771
0.0125 0.0085 0.0152280254688
0.0125 0.0095 0.0139566997355
0.0125 0.0105 0.00976254348741
0.0125 0.0115 0.00574566103817
0.0125 0.0125 0.00443185520901
0.0125 0.0135 0.00475663857978
0.0125 0.0145 0.0071512699046
0.0125 0.0155 0.0116383404811
0.0125 0.0165 0.0166677550789
0.0125 0.0175 0.0189307544642
0.0125 0.0185 0.0165293667259
0.0125 0.0195 0.0109186813237
0.0125 0.0205 0.00545641690104
0.0125 0.0215 0.00215763926185
0.0125 0.0225 0.000711240178874
0.0125 0.0235 0.000214329661352
0.0125 0.0245 8.56355895963e-05
0.0125 0.0255 3.9414435993e-05
0.0125 0.0265 2.14442824376e-05
0.0125 0.0275 1.35265729645e-05
0.0125 0.0285 9.83461050298e-06
0.0125 0.0295 7.68394437444e-06
0.0125 0.0305 7.1574740381e-06
0.0125 0.0315 3.8791271082e-06
0.0135 -0.0315 4.91400671355e-06
0.0135 -0.0305 8.49336698774e-06
0.0135 -0.0295 8.58897278544e-06
0.0135 -0.0285 1.22160967334e-05
0.0135 -0.0275 2.16868033968e-05
0.0135 -0.0265 4.97634727315e-05
0.0135 -0.0255 0.000145388291479
0.0135 -0.0245 0.000487814393279
0.0135 -0.0235 0.00165943770636
0.0135 -0.0225 0.00520183208587
0.0135 -0.0215 0.0113005489277
0.0135 -0.0205 0.0156464455574
0.0135 -0.0195 0.0137455938454
0.0135 -0.0185 0.00754104604734
0.0135 -0.0175 0.00270471873013
0.0135 -0.0165 0.000887340866987
0.0135 -0.0155 0.000355164670698
0.0135 -0.0145 0.000167967176576
0.0135 -0.0135 9.17021245776e-05
0.0135 -0.0125 5.77597219051e-05
0.0135 -0.0115 4.33580147942e-05
0.0135 -0.0105 4.08159541443e-05
0.0135 -0.0095 5.01319527713e-05
0.0135 -0.0085 8.19231733081e-05
0.0135 -0.0075 0.000180983800814
0.0135 -0.0065 0.00048612490393
0.0135 -0.0055 0.00163446385635
0.0135 -0.0045 0.00375176455758
0.0135 -0.0035 0.00412119470234
0.0135 -0.0025 0.00226321274549
0.0135 -0.0015 0.000858365014397
0.0135 -0.0005 0.000398617726124
0.0135 0.0005 0.000300429865955
0.0135 0.0015 0.000311036630803
0.0135 0.0025 0.00034220217954
0.0135 0.0035 0.000392334511806
0.0135 0.0045 0.000679110320915
0.0135 0.0055 0.00183839040522
0.0135 0.0065 0.00516280562207
0.0135 0.0075 0.0101676354169
0.0135 0.0085 0.0134161487791
0.0135 0.0095 0.0127746382579
0.0135 0.0105 0.00823916422598
0.0135 0.0115 0.00354978569646
0.0135 0.0125 0.00213803520008
0.0135 0.0135 0.00195230915532
0.0135 0.0145 0.0031396745047
0.0135 0.0155 0.00604764582676
0.0135 0.0165 0.0111220618276
0.0135 0.0175 0.0165595434583
0.0135 0.0185 0.0188164262377
0.0135 0.0195 0.0161329039487
0.0135 0.0205 0.0101353310751
0.0135 0.0215 0.00447374847373
0.0135 0.0225 0.00146095576197
0.0135 0.0235 0.000460884230747
0.0135 0.0245 0.000158030868185
0.0135 0.0255 6.60971973381e-05
0.0135 0.0265 3.155100893e-05
0.0135 0.0275 1.75816563368e-05
0.0135 0.0285 1.14673699298e-05
0.0135 0.0295 8.39128749591e-06
0.0135 0.0305 7.57202361123e-06
0.0135 0.0315 4.07554574943e-06
0.0145 -0.0315 4.44835725433e-06
0.0145 -0.0305 8.31238107077e-06
0.0145 -0.0295 9.79168157184e-06
0.0145 -0.0285 1.5309750893e-05
0.0145 -0.0275 2.90400128161e-05
0.0145 -0.0265 6.94388745159e-05
0.0145 -0.0255 0.000229308851709
0.0145 -0.0245 0.000749552382814
0.0145 -0.0235 0.00241320168904
0.0145 -0.0225 0.00678254767554
0.0145 -0.0215 0.0128427273198
0.0145 -0.0205 0.015529950511
0.0145 -0.0195 0.0118347100405
0.0145 -0.0185 0.00560320937128
0.0145 -0.0175 0.00186564250373
0.0145 -0.0165 0.000661462103161
0.0145 -0.0155 0.000287757273999
0.0145 -0.0145 0.000155697192652
0.0145 -0.0135 9.1236806998e-05
0.0145 -0.0125 6.06551437628e-05
0.0145 -0.0115 4.79482253828e-05
0.0145 -0.0105 4.74466679615e-05
0.0145 -0.0095 6.17165785427e-05
0.0145 -0.0085 0.000106763528765
0.0145 -0.0075 0.000248393227928
0.0145 -0.0065 0.000773612364182
0.0145 -0.0055 0.00245627369523
0.0145 -0.0045 0.00439160842924
0.0145 -0.0035 0.00373500467816
0.0145 -0.0025 0.00158711320675
0.0145 -0.0015 0.000534095647771
0.0145 -0.0005 0.00025865888024
0.0145 0.0005 0.000187174519112
0.0145 0.0015 0.000201488584482