% Model:              Benchmark260518.mph
% Version:            COMSOL 6.2.0.339
% Date:               May 21 2026, 01:14
% Dimension:          2
% Nodes:              4096
% Expressions:        1
% Description:        速度大小
% Length unit:        m
% x                       y                        spf.U (m/s)
% mirrored_by_python_y_to_minus_y, coord_match_decimals=12
0.0005 -0.0315 2.19866267762e-06
0.0005 -0.0305 4.51515775908e-06
0.0005 -0.0295 5.09063894524e-06
0.0005 -0.0285 5.66876715701e-06
0.0005 -0.0275 6.23096103037e-06
0.0005 -0.0265 6.65676859037e-06
0.0005 -0.0255 7.10994116432e-06
0.0005 -0.0245 9.21436249455e-06
0.0005 -0.0235 1.64901909879e-05
0.0005 -0.0225 3.89630562912e-05
0.0005 -0.0215 0.000103211716449
0.0005 -0.0205 0.000226444890459
0.0005 -0.0195 0.000412281402612
0.0005 -0.0185 0.000747569226855
0.0005 -0.0175 0.00137916752343
0.0005 -0.0165 0.00223395614438
0.0005 -0.0155 0.00300115454744
0.0005 -0.0145 0.00342958590182
0.0005 -0.0135 0.00348992552626
0.0005 -0.0125 0.0032605677709
0.0005 -0.0115 0.00375111577108
0.0005 -0.0105 0.00621820034116
0.0005 -0.0095 0.0101883315459
0.0005 -0.0085 0.0156414038208
0.0005 -0.0075 0.0218288265882
0.0005 -0.0065 0.026544577067
0.0005 -0.0055 0.0285477703393
0.0005 -0.0045 0.0189372081094
0.0005 -0.0035 0.00519438997997
0.0005 -0.0025 0.000742536517865
0.0005 -0.0015 0.00118675325454
0.0005 -0.0005 0.00131309645812
0.0005 0.0005 0.00104693435117
0.0005 0.0015 0.000578647774709
0.0005 0.0025 0.000814581952292
0.0005 0.0035 0.00164960821264
0.0005 0.0045 0.00247726748143
0.0005 0.0055 0.00311987036441
0.0005 0.0065 0.003451990949
0.0005 0.0075 0.00340693227585
0.0005 0.0085 0.00302481563077
0.0005 0.0095 0.00242258602189
0.0005 0.0105 0.00174986054888
0.0005 0.0115 0.00114994029344
0.0005 0.0125 0.000701240689305
0.0005 0.0135 0.000417977459091
0.0005 0.0145 0.000288808827137
0.0005 0.0155 0.000252807130968
0.0005 0.0165 0.000221800531224
0.0005 0.0175 0.0001528499501
0.0005 0.0185 7.56089961035e-05
0.0005 0.0195 3.10506833135e-05
0.0005 0.0205 1.38881989569e-05
0.0005 0.0215 7.9374204255e-06
0.0005 0.0225 6.26759180827e-06
0.0005 0.0235 6.02662288451e-06
0.0005 0.0245 5.92735348276e-06
0.0005 0.0255 5.62262622347e-06
0.0005 0.0265 5.30269407832e-06
0.0005 0.0275 4.99169447244e-06
0.0005 0.0285 4.57747278257e-06
0.0005 0.0295 3.9846253415e-06
0.0005 0.0305 3.42230203548e-06
0.0005 0.0315 1.66345303078e-06
0.0015 -0.0315 4.25538262873e-06
0.0015 -0.0305 8.61017094378e-06
0.0015 -0.0295 9.42197083603e-06
0.0015 -0.0285 1.01632513987e-05
0.0015 -0.0275 1.07578546554e-05
0.0015 -0.0265 1.13876687459e-05
0.0015 -0.0255 1.25540477722e-05
0.0015 -0.0245 1.68443957377e-05
0.0015 -0.0235 3.06162906574e-05
0.0015 -0.0225 7.29316439334e-05
0.0015 -0.0215 0.000193252362472
0.0015 -0.0205 0.000419485874194
0.0015 -0.0195 0.000827350708175
0.0015 -0.0185 0.00179486458648
0.0015 -0.0175 0.00349362656982
0.0015 -0.0165 0.00535402805765
0.0015 -0.0155 0.00676246286602
0.0015 -0.0145 0.00755462770317
0.0015 -0.0135 0.00779827307017
0.0015 -0.0125 0.00742550808816
0.0015 -0.0115 0.00628242792563
0.0015 -0.0105 0.00553914293165
0.0015 -0.0095 0.00783124027396
0.0015 -0.0085 0.012758111587
0.0015 -0.0075 0.0189764249803
0.0015 -0.0065 0.0245306962332
0.0015 -0.0055 0.0277498875224
0.0015 -0.0045 0.0249410236838
0.0015 -0.0035 0.0151607762645
0.0015 -0.0025 0.00631689980772
0.0015 -0.0015 0.0025096419815
0.0015 -0.0005 0.00174643213157
0.0015 0.0005 0.0027297599899
0.0015 0.0015 0.00444775962594
0.0015 0.0025 0.00643049632154
0.0015 0.0035 0.00834838520125
0.0015 0.0045 0.00994771131767
0.0015 0.0055 0.0110276835155
0.0015 0.0065 0.0114267283314
0.0015 0.0075 0.0110657698765
0.0015 0.0085 0.00998651746313
0.0015 0.0095 0.00835905377201
0.0015 0.0105 0.0064746709127
0.0015 0.0115 0.00464272036776
0.0015 0.0125 0.00306221938265
0.0015 0.0135 0.00183343623054
0.0015 0.0145 0.00102231053834
0.0015 0.0155 0.000606182684083
0.0015 0.0165 0.000415135320377
0.0015 0.0175 0.000279805709948
0.0015 0.0185 0.000147484569528
0.0015 0.0195 5.99006993482e-05
0.0015 0.0205 2.65384990426e-05
0.0015 0.0215 1.48157575736e-05
0.0015 0.0225 1.10408398452e-05
0.0015 0.0235 1.00688608499e-05
0.0015 0.0245 9.71105131164e-06
0.0015 0.0255 9.2838338703e-06
0.0015 0.0265 8.87846597787e-06
0.0015 0.0275 8.51057645725e-06
0.0015 0.0285 8.07768924461e-06
0.0015 0.0295 7.34139277754e-06
0.0015 0.0305 6.57043650863e-06
0.0015 0.0315 3.23707744716e-06
0.0025 -0.0315 4.32475053964e-06
0.0025 -0.0305 8.56549039888e-06
0.0025 -0.0295 9.18845846202e-06
0.0025 -0.0285 9.76644540055e-06
0.0025 -0.0275 9.97477209728e-06
0.0025 -0.0265 1.05496482955e-05
0.0025 -0.0255 1.22742139986e-05
0.0025 -0.0245 1.72709476628e-05
0.0025 -0.0235 3.15778461912e-05
0.0025 -0.0225 7.30246242307e-05
0.0025 -0.0215 0.000186431552275
0.0025 -0.0205 0.000438211969599
0.0025 -0.0195 0.0010795424222
0.0025 -0.0185 0.00270927692064
0.0025 -0.0175 0.00489549770649
0.0025 -0.0165 0.00631936450722
0.0025 -0.0155 0.00677179275507
0.0025 -0.0145 0.00690526027569
0.0025 -0.0135 0.0071083277184
0.0025 -0.0125 0.00717657599116
0.0025 -0.0115 0.0065682915522
0.0025 -0.0105 0.00518751284639
0.0025 -0.0095 0.00525249458442
0.0025 -0.0085 0.00917734543609
0.0025 -0.0075 0.0152037059563
0.0025 -0.0065 0.0212927274342
0.0025 -0.0055 0.0255804903794
0.0025 -0.0045 0.0262203107561
0.0025 -0.0035 0.0225027858616
0.0025 -0.0025 0.016990279492
0.0025 -0.0015 0.0130908125425
0.0025 -0.0005 0.0120006473824
0.0025 0.0005 0.0128670420733
0.0025 0.0015 0.0146345544453
0.0025 0.0025 0.0165651177277
0.0025 0.0035 0.018207037776
0.0025 0.0045 0.0192969827452
0.0025 0.0055 0.019749718078
0.0025 0.0065 0.0195906339018
0.0025 0.0075 0.0188376049394
0.0025 0.0085 0.0174551835453
0.0025 0.0095 0.0153998975379
0.0025 0.0105 0.0127675761947
0.0025 0.0115 0.00987681151073
0.0025 0.0125 0.00706351062002
0.0025 0.0135 0.00453018389773
0.0025 0.0145 0.00248272740795
0.0025 0.0155 0.00115389414211
0.0025 0.0165 0.000525689407395
0.0025 0.0175 0.000289215774896
0.0025 0.0185 0.000155790877895
0.0025 0.0195 6.46093076309e-05
0.0025 0.0205 2.97880934232e-05
0.0025 0.0215 1.65650654343e-05
0.0025 0.0225 1.141319095e-05
0.0025 0.0235 9.4338004909e-06
0.0025 0.0245 8.60613933484e-06
0.0025 0.0255 8.16185475905e-06
0.0025 0.0265 7.87717597297e-06
0.0025 0.0275 7.69302720749e-06
0.0025 0.0285 7.5631361277e-06
0.0025 0.0295 7.08200387934e-06
0.0025 0.0305 6.54495066327e-06
0.0025 0.0315 3.28968180015e-06
0.0035 -0.0315 4.62481600455e-06
0.0035 -0.0305 8.86003681435e-06
0.0035 -0.0295 9.39455129743e-06
0.0035 -0.0285 1.02969147775e-05
0.0035 -0.0275 1.08146449151e-05
0.0035 -0.0265 1.17906912862e-05
0.0035 -0.0255 1.41881079476e-05
0.0035 -0.0245 2.03530725726e-05
0.0035 -0.0235 3.63465594227e-05
0.0035 -0.0225 7.86298701698e-05
0.0035 -0.0215 0.000190574081052
0.0035 -0.0205 0.000523304766124
0.0035 -0.0195 0.00153724618014
0.0035 -0.0185 0.00384519857509
0.0035 -0.0175 0.00604016239264
0.0035 -0.0165 0.00617895753634
0.0035 -0.0155 0.00498819051884
0.0035 -0.0145 0.00403430746786
0.0035 -0.0135 0.00381326820566
0.0035 -0.0125 0.00409162440826
0.0035 -0.0115 0.00439005338509
0.0035 -0.0105 0.00406305933648
0.0035 -0.0095 0.00327320101127
0.0035 -0.0085 0.00544886150563
0.0035 -0.0075 0.0107983973369
0.0035 -0.0065 0.0169153995763
0.0035 -0.0055 0.0220648019824
0.0035 -0.0045 0.0248392600529
0.0035 -0.0035 0.0248578280205
0.0035 -0.0025 0.0232667079096
0.0035 -0.0015 0.0216699779601
0.0035 -0.0005 0.0211837480115
0.0035 0.0005 0.0218425096429
0.0035 0.0015 0.0230057590742
0.0035 0.0025 0.0240124173952
0.0035 0.0035 0.0244776537967
0.0035 0.0045 0.0243893322404
0.0035 0.0055 0.0239543221647
0.0035 0.0065 0.0233507168723
0.0035 0.0075 0.0225888666939
0.0035 0.0085 0.0215324598824
0.0035 0.0095 0.0199435948452
0.0035 0.0105 0.0175693524711
0.0035 0.0115 0.0144979069771
0.0035 0.0125 0.0111572717546
0.0035 0.0135 0.00785129595027
0.0035 0.0145 0.00478374053812
0.0035 0.0155 0.00236440362644
0.0035 0.0165 0.000968828589116
0.0035 0.0175 0.000413283053178
0.0035 0.0185 0.000195719659681
0.0035 0.0195 8.38919598646e-05
0.0035 0.0205 4.19216101665e-05
0.0035 0.0215 2.4183430449e-05
0.0035 0.0225 1.63303344129e-05
0.0035 0.0235 1.2712070265e-05
0.0035 0.0245 1.07706787319e-05
0.0035 0.0255 9.5582545959e-06
0.0035 0.0265 8.78601634712e-06
0.0035 0.0275 8.2994203322e-06
0.0035 0.0285 7.93111094101e-06
0.0035 0.0295 7.19429453628e-06
0.0035 0.0305 6.64146549326e-06
0.0035 0.0315 3.41717289967e-06
0.0045 -0.0315 5.09889455177e-06
0.0045 -0.0305 9.24575158755e-06
0.0045 -0.0295 9.29162753628e-06
0.0045 -0.0285 1.04025312344e-05
0.0045 -0.0275 1.1343220073e-05
0.0045 -0.0265 1.29826749891e-05
0.0045 -0.0255 1.65219873115e-05
0.0045 -0.0245 2.48030378119e-05
0.0045 -0.0235 4.42160050377e-05
0.0045 -0.0225 9.08357879645e-05
0.0045 -0.0215 0.000216306637849
0.0045 -0.0205 0.000660342923467
0.0045 -0.0195 0.00214786056618
0.0045 -0.0185 0.00504129174662
0.0045 -0.0175 0.00683194102184
0.0045 -0.0165 0.00556109101826
0.0045 -0.0155 0.00323543300238
0.0045 -0.0145 0.00182265285858
0.0045 -0.0135 0.00136022841015
0.0045 -0.0125 0.00139859094804
0.0045 -0.0115 0.0017352293356
0.0045 -0.0105 0.00207561510145
0.0045 -0.0095 0.00191913571309
0.0045 -0.0085 0.00256995809777
0.0045 -0.0075 0.00640178108591
0.0045 -0.0065 0.0117466044937
0.0045 -0.0055 0.0170372502977
0.0045 -0.0045 0.0210093820942
0.0045 -0.0035 0.023060156784
0.0045 -0.0025 0.0237299428064
0.0045 -0.0015 0.0239646377003
0.0045 -0.0005 0.0243684344993
0.0045 0.0005 0.0249172968292
0.0045 0.0015 0.0251435722418
0.0045 0.0025 0.0246485265079
0.0045 0.0035 0.023454489956
0.0045 0.0045 0.0220200224232
0.0045 0.0055 0.0208674860157
0.0045 0.0065 0.0202919459517
0.0045 0.0075 0.0202827903655
0.0045 0.0085 0.0204797821788
0.0045 0.0095 0.0203095000166
0.0045 0.0105 0.0192613296058
0.0045 0.0115 0.0171541111836
0.0045 0.0125 0.0142520947151
0.0045 0.0135 0.0109362587928
0.0045 0.0145 0.00743338780132
0.0045 0.0155 0.00412759644334
0.0045 0.0165 0.00178482589281
0.0045 0.0175 0.000692818921582
0.0045 0.0185 0.000299219769786
0.0045 0.0195 0.000134490240258
0.0045 0.0205 7.01070079204e-05
0.0045 0.0215 4.09423716998e-05
0.0045 0.0225 2.73089979509e-05
0.0045 0.0235 1.99659989896e-05
0.0045 0.0245 1.53496970536e-05
0.0045 0.0255 1.22071499315e-05
0.0045 0.0265 1.01855893193e-05
0.0045 0.0275 8.9465913486e-06
0.0045 0.0285 8.12943088608e-06
0.0045 0.0295 7.16354241814e-06
0.0045 0.0305 6.7434275386e-06
0.0045 0.0315 3.57678906341e-06
0.0055 -0.0315 5.46948292908e-06
0.0055 -0.0305 9.61125659045e-06
0.0055 -0.0295 9.306200315e-06
0.0055 -0.0285 1.05768863454e-05
0.0055 -0.0275 1.20661587032e-05
0.0055 -0.0265 1.48781532473e-05
0.0055 -0.0255 2.0841613985e-05
0.0055 -0.0245 3.43766934313e-05
0.0055 -0.0235 6.59577899426e-05
0.0055 -0.0225 0.000140009137969
0.0055 -0.0215 0.000317888258122
0.0055 -0.0205 0.000966637375515
0.0055 -0.0195 0.00311584278283
0.0055 -0.0185 0.00629619775035
0.0055 -0.0175 0.00703214783056
0.0055 -0.0165 0.00453014959338
0.0055 -0.0155 0.0019756853191
0.0055 -0.0145 0.000825375763861
0.0055 -0.0135 0.000474742332518
0.0055 -0.0125 0.000418665208699
0.0055 -0.0115 0.000518231236056
0.0055 -0.0105 0.000725353964557
0.0055 -0.0095 0.000889677738924
0.0055 -0.0085 0.00117674495689
0.0055 -0.0075 0.00306288055126
0.0055 -0.0065 0.00667188795091
0.0055 -0.0055 0.0109941650685
0.0055 -0.0045 0.0149670855227
0.0055 -0.0035 0.0178640870523
0.0055 -0.0025 0.0196256666416
0.0055 -0.0015 0.0206192323056
0.0055 -0.0005 0.0210896492576
0.0055 0.0005 0.0209083388199
0.0055 0.0015 0.0197938012435
0.0055 0.0025 0.0178058251802
0.0055 0.0035 0.0155004308554
0.0055 0.0045 0.0135641627584
0.0055 0.0055 0.0124606503694
0.0055 0.0065 0.0124143235702
0.0055 0.0075 0.0134832808725
0.0055 0.0085 0.015419269752
0.0055 0.0095 0.017465586575
0.0055 0.0105 0.0185725437896
0.0055 0.0115 0.0181412120703
0.0055 0.0125 0.0163254190726
0.0055 0.0135 0.0135143468572
0.0055 0.0145 0.0100041192361
0.0055 0.0155 0.00618948216161
0.0055 0.0165 0.00302367759067
0.0055 0.0175 0.00130034495657
0.0055 0.0185 0.000614764524907
0.0055 0.0195 0.000299060536698
0.0055 0.0205 0.000149793608241
0.0055 0.0215 8.7430643499e-05
0.0055 0.0225 5.72109343649e-05
0.0055 0.0235 3.96071443833e-05
0.0055 0.0245 2.71325919563e-05
0.0055 0.0255 1.85746688826e-05
0.0055 0.0265 1.33215899171e-05
0.0055 0.0275 1.03839109059e-05
0.0055 0.0285 8.72991849814e-06
0.0055 0.0295 7.3996358501e-06
0.0055 0.0305 6.99287203183e-06
0.0055 0.0315 3.770278929e-06
0.0065 -0.0315 5.80062852624e-06
0.0065 -0.0305 9.99767343458e-06
0.0065 -0.0295 9.45419959906e-06
0.0065 -0.0285 1.09580564447e-05
0.0065 -0.0275 1.32757325681e-05
0.0065 -0.0265 1.8194812362e-05
0.0065 -0.0255 2.90793100095e-05
0.0065 -0.0245 5.48526821461e-05
0.0065 -0.0235 0.000118614599616
0.0065 -0.0225 0.000293842555802
0.0065 -0.0215 0.000691201285716
0.0065 -0.0205 0.00187492091061
0.0065 -0.0195 0.00470232889429
0.0065 -0.0185 0.0073226415278
0.0065 -0.0175 0.00639597396747
0.0065 -0.0165 0.00322437309418
0.0065 -0.0155 0.00112107006383
0.0065 -0.0145 0.0003983978976
0.0065 -0.0135 0.000199601001915
0.0065 -0.0125 0.00016821944009
0.0065 -0.0115 0.000222138710635
0.0065 -0.0105 0.000341659922859
0.0065 -0.0095 0.000502497330777
0.0065 -0.0085 0.000807829300767
0.0065 -0.0075 0.00156313244152
0.0065 -0.0065 0.00313365199008
0.0065 -0.0055 0.005500603611
0.0065 -0.0045 0.00814476489483
0.0065 -0.0035 0.0104815580155
0.0065 -0.0025 0.0121532059495
0.0065 -0.0015 0.0130255722235
0.0065 -0.0005 0.0130350985897
0.0065 0.0005 0.0121035094156
0.0065 0.0015 0.0103625791939
0.0065 0.0025 0.00829025269367
0.0065 0.0035 0.00647541218295
0.0065 0.0045 0.00527110072892
0.0065 0.0055 0.00476581622207
0.0065 0.0065 0.00501415896695
0.0065 0.0075 0.00625217129111
0.0065 0.0085 0.00883907446231
0.0065 0.0095 0.0125530580522
0.0065 0.0105 0.0159854889552
0.0065 0.0115 0.0176131636176
0.0065 0.0125 0.0172133747765
0.0065 0.0135 0.0152638682418
0.0065 0.0145 0.0120604420626
0.0065 0.0155 0.00811057899048
0.0065 0.0165 0.00458356719517
0.0065 0.0175 0.00251960834303
0.0065 0.0185 0.00151917577603
0.0065 0.0195 0.000854961677692
0.0065 0.0205 0.000421975035298
0.0065 0.0215 0.000227051706934
0.0065 0.0225 0.000150390686293
0.0065 0.0235 0.000100202026571
0.0065 0.0245 6.05046997822e-05
0.0065 0.0255 3.40691110337e-05
0.0065 0.0265 2.0297626979e-05
0.0065 0.0275 1.35331508282e-05
0.0065 0.0285 1.01071222014e-05
0.0065 0.0295 8.02187221819e-06
0.0065 0.0305 7.36774744711e-06
0.0065 0.0315 3.96000252433e-06
0.0075 -0.0315 6.29656916981e-06
0.0075 -0.0305 1.06284779203e-05
0.0075 -0.0295 9.83622183748e-06
0.0075 -0.0285 1.17912793631e-05
0.0075 -0.0275 1.54981584786e-05
0.0075 -0.0265 2.41351378912e-05
0.0075 -0.0255 4.50340444058e-05
0.0075 -0.0245 9.81406875446e-05
0.0075 -0.0235 0.000247901472768
0.0075 -0.0225 0.000652423761236
0.0075 -0.0215 0.00160532851945
0.0075 -0.0205 0.0037056568002
0.0075 -0.0195 0.00656319956537
0.0075 -0.0185 0.00740789964457
0.0075 -0.0175 0.00492702345409
0.0075 -0.0165 0.00198964064363
0.0075 -0.0155 0.000625876813875
0.0075 -0.0145 0.000215685321645
0.0075 -0.0135 0.000113427813114
0.0075 -0.0125 9.78163731197e-05
0.0075 -0.0115 0.00013608025557
0.0075 -0.0105 0.00024925848613
0.0075 -0.0095 0.00047420833609
0.0075 -0.0085 0.000861823753839
0.0075 -0.0075 0.00144728740526
0.0075 -0.0065 0.00210054573082
0.0075 -0.0055 0.00269148069194
0.0075 -0.0045 0.00336457790395
0.0075 -0.0035 0.00420957166707
0.0075 -0.0025 0.00498887243236
0.0075 -0.0015 0.00539270476771
0.0075 -0.0005 0.00524551383338
0.0075 0.0005 0.00451412943797
0.0075 0.0015 0.00344064429706
0.0075 0.0025 0.00247405892246
0.0075 0.0035 0.00184523686179
0.0075 0.0045 0.00150455785186
0.0075 0.0055 0.00140375900032
0.0075 0.0065 0.00155360808579
0.0075 0.0075 0.00218780574879
0.0075 0.0085 0.00402566748027
0.0075 0.0095 0.00777477544236
0.0075 0.0105 0.0125635883848
0.0075 0.0115 0.0160895695127
0.0075 0.0125 0.0171099453714
0.0075 0.0135 0.016005342464
0.0075 0.0145 0.0131630050274
0.0075 0.0155 0.00924806042376
0.0075 0.0165 0.00595602782407
0.0075 0.0175 0.00442769466563
0.0075 0.0185 0.00362598334611
0.0075 0.0195 0.00258586351222
0.0075 0.0205 0.00148269591503
0.0075 0.0215 0.000816020798982
0.0075 0.0225 0.00052368749607
0.0075 0.0235 0.000318552630989
0.0075 0.0245 0.000160590677779
0.0075 0.0255 7.22610341176e-05
0.0075 0.0265 3.6006002323e-05
0.0075 0.0275 1.99526736855e-05
0.0075 0.0285 1.28624978679e-05
0.0075 0.0295 9.27518239836e-06
0.0075 0.0305 8.02291594088e-06
0.0075 0.0315 4.23343159986e-06
0.0085 -0.0315 6.83751514814e-06
0.0085 -0.0305 1.14204401259e-05
0.0085 -0.0295 1.05706709534e-05
0.0085 -0.0285 1.33729649083e-05
0.0085 -0.0275 1.95153254854e-05
0.0085 -0.0265 3.44583615437e-05
0.0085 -0.0255 7.46715135424e-05
0.0085 -0.0245 0.000194963396078
0.0085 -0.0235 0.000538939938183
0.0085 -0.0225 0.00142219334086
0.0085 -0.0215 0.0033086045989
0.0085 -0.0205 0.00595620529101
0.0085 -0.0195 0.00748623505733
0.0085 -0.0185 0.00609826633392
0.0085 -0.0175 0.00310642232254
0.0085 -0.0165 0.00108886647167
0.0085 -0.0155 0.000356546256144
0.0085 -0.0145 0.000132878028707
0.0085 -0.0135 7.3890619961e-05
0.0085 -0.0125 6.6650614818e-05
0.0085 -0.0115 9.52073612332e-05
0.0085 -0.0105 0.000180284670329
0.0085 -0.0095 0.000397001086463
0.0085 -0.0085 0.000890000104034
0.0085 -0.0075 0.0016676211525
0.0085 -0.0065 0.00228199160673
0.0085 -0.0055 0.00239356817269
0.0085 -0.0045 0.00210934010724
0.0085 -0.0035 0.00171955560859
0.0085 -0.0025 0.00155964394158
0.0085 -0.0015 0.00156691724598
0.0085 -0.0005 0.00149082201959
0.0085 0.0005 0.0012533717888
0.0085 0.0015 0.000904971856967
0.0085 0.0025 0.000629307419193
0.0085 0.0035 0.000498895707208
0.0085 0.0045 0.000435994678081
0.0085 0.0055 0.000461561506844
0.0085 0.0065 0.000561099947666
0.0085 0.0075 0.000786736661757
0.0085 0.0085 0.00173691542141
0.0085 0.0095 0.0047088760696
0.0085 0.0105 0.00973464695758
0.0085 0.0115 0.0144375904648
0.0085 0.0125 0.0165391677989
0.0085 0.0135 0.0159718987308
0.0085 0.0145 0.0131853991471
0.0085 0.0155 0.00905811311136
0.0085 0.0165 0.00616141796118
0.0085 0.0175 0.0058185461495
0.0085 0.0185 0.00604406063626
0.0085 0.0195 0.0055602103814
0.0085 0.0205 0.00422649403383
0.0085 0.0215 0.00273573631755
0.0085 0.0225 0.00163508371879
0.0085 0.0235 0.000902277740703
0.0085 0.0245 0.000430963465059
0.0085 0.0255 0.000175019297112
0.0085 0.0265 6.84300293767e-05
0.0085 0.0275 3.2012703547e-05
0.0085 0.0285 1.80520491766e-05
0.0085 0.0295 1.15934000629e-05
0.0085 0.0305 9.25667105151e-06
0.0085 0.0315 4.76471250333e-06
0.0095 -0.0315 7.43809839224e-06
0.0095 -0.0305 1.24280942252e-05
0.0095 -0.0295 1.18260001476e-05
0.0095 -0.0285 1.61967124175e-05
0.0095 -0.0275 2.66636370845e-05
0.0095 -0.0265 5.3780564899e-05
0.0095 -0.0255 0.000128784876206
0.0095 -0.0245 0.000390127473231
0.0095 -0.0235 0.00114907741177
0.0095 -0.0225 0.00291746783729
0.0095 -0.0215 0.00555133485284
0.0095 -0.0205 0.00733649191327
0.0095 -0.0195 0.00657743069738
0.0095 -0.0185 0.00392970251759
0.0095 -0.0175 0.0016196489848
0.0095 -0.0165 0.000555089576915
0.0095 -0.0155 0.000196259710072
0.0095 -0.0145 8.82320937589e-05
0.0095 -0.0135 5.38560834599e-05
0.0095 -0.0125 5.0401076274e-05
0.0095 -0.0115 7.14204754433e-05
0.0095 -0.0105 0.000133837506146
0.0095 -0.0095 0.000293926245745
0.0095 -0.0085 0.000744391044964
0.0095 -0.0075 0.00166198530183
0.0095 -0.0065 0.00233081574966
0.0095 -0.0055 0.00224894054004
0.0095 -0.0045 0.00178070888818
0.0095 -0.0035 0.00123812445636
0.0095 -0.0025 0.000858592783861
0.0095 -0.0015 0.000641049304373
0.0095 -0.0005 0.000487529094843
0.0095 0.0005 0.000372110046478
0.0095 0.0015 0.000264097266738
0.0095 0.0025 0.000175464152493
0.0095 0.0035 0.00014391811057
0.0095 0.0045 0.000140133670899
0.0095 0.0055 0.000172076200866
0.0095 0.0065 0.000243927715227
0.0095 0.0075 0.000379953171262
0.0095 0.0085 0.000990836400987
0.0095 0.0095 0.00343343712194
0.0095 0.0105 0.00830956431309
0.0095 0.0115 0.0134899069778
0.0095 0.0125 0.0161121216675
0.0095 0.0135 0.0156685520076
0.0095 0.0145 0.0124957934707
0.0095 0.0155 0.0076792404505
0.0095 0.0165 0.00463790042397
0.0095 0.0175 0.00467409633744
0.0095 0.0185 0.00558317561976
0.0095 0.0195 0.00658110729214
0.0095 0.0205 0.00672366240086
0.0095 0.0215 0.00567464996532
0.0095 0.0225 0.00395028343012
0.0095 0.0235 0.00224875734426
0.0095 0.0245 0.00103139868218
0.0095 0.0255 0.000385198857754
0.0095 0.0265 0.000130601823444
0.0095 0.0275 5.60952219886e-05
0.0095 0.0285 2.80139277189e-05
0.0095 0.0295 1.59151927438e-05
0.0095 0.0305 1.15302786349e-05
0.0095 0.0315 5.77031157939e-06
0.0105 -0.0315 8.22412956628e-06
0.0105 -0.0305 1.38308973487e-05
0.0105 -0.0295 1.38172209766e-05
0.0105 -0.0285 2.09838644898e-05
0.0105 -0.0275 3.95433312812e-05
0.0105 -0.0265 9.15131638968e-05
0.0105 -0.0255 0.000256229025245
0.0105 -0.0245 0.000797137389688
0.0105 -0.0235 0.00232747543587
0.0105 -0.0225 0.00500797727013
0.0105 -0.0215 0.00717115750867
0.0105 -0.0205 0.00682142684371
0.0105 -0.0195 0.004390429066
0.0105 -0.0185 0.00200377747773
0.0105 -0.0175 0.000750945536587
0.0105 -0.0165 0.000280024292852
0.0105 -0.0155 0.000117279586105
0.0105 -0.0145 6.20897577736e-05
0.0105 -0.0135 4.30062188754e-05
0.0105 -0.0125 4.23392807348e-05
0.0105 -0.0115 6.0041299293e-05
0.0105 -0.0105 0.000112485223182
0.0105 -0.0095 0.000255452681732
0.0105 -0.0085 0.000659427425541
0.0105 -0.0075 0.0016877743942
0.0105 -0.0065 0.00230586511304
0.0105 -0.0055 0.00181447083089
0.0105 -0.0045 0.0011801745715
0.0105 -0.0035 0.000774338541903
0.0105 -0.0025 0.000525234496804
0.0105 -0.0015 0.000358080410879
0.0105 -0.0005 0.000223110770655
0.0105 0.0005 0.000135726242722
0.0105 0.0015 9.56462236531e-05
0.0105 0.0025 7.24069347402e-05
0.0105 0.0035 6.56202450229e-05
0.0105 0.0045 7.48822642589e-05
0.0105 0.0055 9.75903896242e-05
0.0105 0.0065 0.000147494576505
0.0105 0.0075 0.000287845036065
0.0105 0.0085 0.000950325619369
0.0105 0.0095 0.00343146959666
0.0105 0.0105 0.00835121778788
0.0105 0.0115 0.0136060839123
0.0105 0.0125 0.016229487098
0.0105 0.0135 0.0154493328486
0.0105 0.0145 0.0115201644916
0.0105 0.0155 0.00599430254759
0.0105 0.0165 0.0026459451343
0.0105 0.0175 0.00223403296829
0.0105 0.0185 0.00275652522009
0.0105 0.0195 0.00421353384868
0.0105 0.0205 0.00588929494705
0.0105 0.0215 0.00681256708792
0.0105 0.0225 0.0062930788998
0.0105 0.0235 0.00444686166971
0.0105 0.0245 0.00226654746137
0.0105 0.0255 0.00084346526008
0.0105 0.0265 0.000286617506053
0.0105 0.0275 0.000109985830166
0.0105 0.0285 4.84930942808e-05
0.0105 0.0295 2.39473365401e-05
0.0105 0.0305 1.56776855506e-05
0.0105 0.0315 7.61784693969e-06
0.0115 -0.0315 9.27201950477e-06
0.0115 -0.0305 1.57261403326e-05
0.0115 -0.0295 1.66936240904e-05
0.0115 -0.0285 2.83988739899e-05
0.0115 -0.0275 6.23510656719e-05
0.0115 -0.0265 0.000166826824653
0.0115 -0.0255 0.000516183327064
0.0115 -0.0245 0.0016063573309
0.0115 -0.0235 0.004094740259
0.0115 -0.0225 0.0068111254146
0.0115 -0.0215 0.00712022951388
0.0115 -0.0205 0.00484188039416
0.0115 -0.0195 0.00229365627013
0.0115 -0.0185 0.000883334270338
0.0115 -0.0175 0.000337579047171
0.0115 -0.0165 0.000145703096768
0.0115 -0.0155 7.65049075924e-05
0.0115 -0.0145 4.73799906802e-05
0.0115 -0.0135 3.71808914537e-05
0.0115 -0.0125 3.9688451895e-05
0.0115 -0.0115 5.83270600646e-05
0.0115 -0.0105 0.000114129854268
0.0115 -0.0095 0.000282480392663
0.0115 -0.0085 0.000867504896378
0.0115 -0.0075 0.00220048478333
0.0115 -0.0065 0.00265073374402
0.0115 -0.0055 0.00154322990671
0.0115 -0.0045 0.000655677971146
0.0115 -0.0035 0.000373930135191
0.0115 -0.0025 0.000243573252583
0.0115 -0.0015 0.000161815113301
0.0115 -0.0005 0.000102203951049
0.0115 0.0005 6.39403624046e-05
0.0115 0.0015 4.49467390114e-05
0.0115 0.0025 3.83597553357e-05
0.0115 0.0035 4.24708832571e-05
0.0115 0.0045 6.1417748306e-05
0.0115 0.0055 0.000100457694387
0.0115 0.0065 0.000160430735248
0.0115 0.0075 0.000372026144864
0.0115 0.0085 0.00132231974909
0.0115 0.0095 0.00430120768049
0.0115 0.0105 0.00953056835001
0.0115 0.0115 0.014610257037
0.0115 0.0125 0.0167614679283
0.0115 0.0135 0.0151119501014
0.0115 0.0145 0.0101534934944
0.0115 0.0155 0.00447887730865
0.0115 0.0165 0.00155414565238
0.0115 0.0175 0.00100135973013
0.0115 0.0185 0.000985085070179
0.0115 0.0195 0.00170947354853
0.0115 0.0205 0.00315052017333
0.0115 0.0215 0.00508208008628
0.0115 0.0225 0.00663567778311
0.0115 0.0235 0.00643369130129
0.0115 0.0245 0.00425676179915
0.0115 0.0255 0.001898975646
0.0115 0.0265 0.000686122322456
0.0115 0.0275 0.000247458989493
0.0115 0.0285 8.92911062671e-05
0.0115 0.0295 3.90472481199e-05
0.0115 0.0305 2.35171935414e-05
0.0115 0.0315 1.10614192873e-05
0.0125 -0.0315 1.04109837628e-05
0.0125 -0.0305 1.79462974915e-05
0.0125 -0.0295 2.04395431411e-05
0.0125 -0.0285 3.87076748216e-05
0.0125 -0.0275 9.6741735906e-05
0.0125 -0.0265 0.000303531656557
0.0125 -0.0255 0.000965529871342
0.0125 -0.0245 0.00287268777062
0.0125 -0.0235 0.00592153593681
0.0125 -0.0225 0.00738398255225
0.0125 -0.0215 0.00557629841657
0.0125 -0.0205 0.00272931577807
0.0125 -0.0195 0.00103168887456
0.0125 -0.0185 0.000386885952836
0.0125 -0.0175 0.000167283000892
0.0125 -0.0165 8.89266656278e-05
0.0125 -0.0155 5.4261965192e-05
0.0125 -0.0145 3.89479324846e-05
0.0125 -0.0135 3.48051212116e-05
0.0125 -0.0125 4.09824625271e-05
0.0125 -0.0115 6.42364493818e-05
0.0125 -0.0105 0.000132862651412
0.0125 -0.0095 0.000338662430506
0.0125 -0.0085 0.00118285740756
0.0125 -0.0075 0.00282479360945
0.0125 -0.0065 0.00302944740323
0.0125 -0.0055 0.00148091879398
0.0125 -0.0045 0.000475432545068
0.0125 -0.0035 0.000217315590756
0.0125 -0.0025 0.000124488224887
0.0125 -0.0015 7.9160005571e-05
0.0125 -0.0005 5.11287618583e-05
0.0125 0.0005 3.47335925984e-05
0.0125 0.0015 2.74108128422e-05
0.0125 0.0025 2.79254079479e-05
0.0125 0.0035 3.71317850946e-05
0.0125 0.0045 6.14283230079e-05
0.0125 0.0055 0.000116368697382
0.0125 0.0065 0.000224422394701
0.0125 0.0075 0.000609224669365
0.0125 0.0085 0.00208186749329
0.0125 0.0095 0.0058456499849
0.0125 0.0105 0.0114017612045
0.0125 0.0115 0.0159905615069
0.0125 0.0125 0.0171261937514
0.0125 0.0135 0.014085868877
0.0125 0.0145 0.0081809306437
0.0125 0.0155 0.00303731573115
0.0125 0.0165 0.00101058874089
0.0125 0.0175 0.000619814383162
0.0125 0.0185 0.000458094771031
0.0125 0.0195 0.000648172609624
0.0125 0.0205 0.00128737710373
0.0125 0.0215 0.00269530605132
0.0125 0.0225 0.00499291652318
0.0125 0.0235 0.00684285242216
0.0125 0.0245 0.00625663038383
0.0125 0.0255 0.00371037038537
0.0125 0.0265 0.00152828992148
0.0125 0.0275 0.000518606848503
0.0125 0.0285 0.000169744827915
0.0125 0.0295 7.07998108541e-05
0.0125 0.0305 3.94473195365e-05
0.0125 0.0315 1.7872755326e-05
0.0135 -0.0315 1.17755615929e-05
0.0135 -0.0305 2.0619242316e-05
0.0135 -0.0295 2.50019940777e-05
0.0135 -0.0285 5.16611963779e-05
0.0135 -0.0275 0.000139461763985
0.0135 -0.0265 0.0004898895897
0.0135 -0.0255 0.00163147735764
0.0135 -0.0245 0.00435742716979
0.0135 -0.0235 0.00710296787326
0.0135 -0.0225 0.00660867355924
0.0135 -0.0215 0.00362507993165
0.0135 -0.0205 0.00133958531929
0.0135 -0.0195 0.000461558965694
0.0135 -0.0185 0.000191938504968
0.0135 -0.0175 0.000100126035414
0.0135 -0.0165 6.05762498049e-05
0.0135 -0.0155 4.20861764086e-05
0.0135 -0.0145 3.46734796145e-05
0.0135 -0.0135 3.51040710699e-05
0.0135 -0.0125 4.55037600812e-05
0.0135 -0.0115 7.67444187106e-05
0.0135 -0.0105 0.000168385452891
0.0135 -0.0095 0.000423103268859
0.0135 -0.0085 0.0014626646277
0.0135 -0.0075 0.00321367625704
0.0135 -0.0065 0.00309537529893
0.0135 -0.0055 0.00133179030234
0.0135 -0.0045 0.000392764393549
0.0135 -0.0035 0.000157385497077
0.0135 -0.0025 7.89254194379e-05
0.0135 -0.0015 4.80479544103e-05
0.0135 -0.0005 3.23257025301e-05
0.0135 0.0005 2.4431748008e-05
0.0135 0.0015 2.26588892918e-05
0.0135 0.0025 2.73107366209e-05
0.0135 0.0035 4.03045500377e-05
0.0135 0.0045 6.62868157887e-05
0.0135 0.0055 0.000131993315314
0.0135 0.0065 0.000335949918772
0.0135 0.0075 0.00103887605116
0.0135 0.0085 0.00328371182195
0.0135 0.0095 0.007900843771
0.0135 0.0105 0.0135043773645
0.0135 0.0115 0.0171482719211
0.0135 0.0125 0.0167141139708
0.0135 0.0135 0.0120947101872
0.0135 0.0145 0.00590824194498
0.0135 0.0155 0.00184993834096
0.0135 0.0165 0.000613396919234
0.0135 0.0175 0.000362702560478
0.0135 0.0185 0.000247740938601
0.0135 0.0195 0.000284749233093
0.0135 0.0205 0.000527301417459
0.0135 0.0215 0.00121567254849
0.0135 0.0225 0.00290491655172
0.0135 0.0235 0.00552213547589
0.0135 0.0245 0.00705163098969
0.0135 0.0255 0.00578296752773
0.0135 0.0265 0.00307631262458
0.0135 0.0275 0.00115506674388
0.0135 0.0285 0.000388254902933
0.0135 0.0295 0.000145373665164
0.0135 0.0305 7.73973971158e-05
0.0135 0.0315 3.46131807772e-05
0.0145 -0.0315 1.36070997476e-05
0.0145 -0.0305 2.41248287299e-05
0.0145 -0.0295 3.0974228104e-05
0.0145 -0.0285 6.81428144897e-05
0.0145 -0.0275 0.000189444033111
0.0145 -0.0265 0.000697799952643
0.0145 -0.0255 0.00246021734424
0.0145 -0.0245 0.00572499041905
0.0145 -0.0235 0.00736119006782
0.0145 -0.0225 0.0051551347221
0.0145 -0.0215 0.00213242764475
0.0145 -0.0205 0.000686552614353
0.0145 -0.0195 0.000243126337729
0.0145 -0.0185 0.000116932855204
0.0145 -0.0175 6.77567352982e-05
0.0145 -0.0165 4.56553071181e-05
0.0145 -0.0155 3.57853917304e-05
0.0145 -0.0145 3.33196269217e-05
0.0145 -0.0135 3.75574987835e-05
0.0145 -0.0125 5.32802204749e-05
0.0145 -0.0115 9.60430406325e-05
0.0145 -0.0105 0.000222091621715
0.0145 -0.0095 0.000629902233073
0.0145 -0.0085 0.00196079386477
0.0145 -0.0075 0.00354685380619
0.0145 -0.0065 0.00294482063446
0.0145 -0.0055 0.00113230606211
0.0145 -0.0045 0.000326749701936
0.0145 -0.0035 0.000126028224837
0.0145 -0.0025 6.02445209679e-05
0.0145 -0.0015 3.69756380066e-05
0.0145 -0.0005 2.7337944404e-05
0.0145 0.0005 2.36802600883e-05
0.0145 0.0015 2.48047939951e-05
0.0145 0.0025 3.31238796104e-05
0.0145 0.0035 5.32379297663e-05