% Model:              Benchmark260518.mph
% Version:            COMSOL 6.2.0.339
% Date:               May 21 2026, 04:21
% Dimension:          2
% Nodes:              4096
% Expressions:        1
% Description:        速度大小
% Length unit:        m
% x                       y                        spf.U (m/s)
5.0E-4                    -0.0315                  2.174028496754123E-6
5.0E-4                    -0.0305                  4.342445745108336E-6
5.0E-4                    -0.0295                  4.871920198296019E-6
5.0E-4                    -0.0285                  5.4587545219734025E-6
5.0E-4                    -0.0275                  5.778011622516088E-6
5.0E-4                    -0.0265                  6.080431101879086E-6
5.0E-4                    -0.0255                  6.322429256737588E-6
5.0E-4                    -0.0245                  6.53398685061879E-6
5.0E-4                    -0.0235                  6.719823187874281E-6
5.0E-4                    -0.0225                  6.880740551782274E-6
5.0E-4                    -0.0215                  7.0219629975351E-6
5.0E-4                    -0.0205                  7.153372849387658E-6
5.0E-4                    -0.0195                  7.281177223869822E-6
5.0E-4                    -0.0185                  7.413632081446943E-6
5.0E-4                    -0.0175                  7.57699390651239E-6
5.0E-4                    -0.0165                  7.815697208217699E-6
5.0E-4                    -0.0155                  8.194465342626938E-6
5.0E-4                    -0.0145                  8.866062476501294E-6
5.0E-4                    -0.0135                  1.0203179680232561E-5
5.0E-4                    -0.0125                  1.307552635917242E-5
5.0E-4                    -0.0115                  2.2222773939977147E-5
5.0E-4                    -0.0105                  5.221325609990745E-5
5.0E-4                    -0.0095                  1.5178788634339073E-4
5.0E-4                    -0.0085                  3.183694719286391E-4
5.0E-4                    -0.0075                  4.8090031345921234E-4
5.0E-4                    -0.0065                  6.948659212823977E-4
5.0E-4                    -0.0055                  0.0011948238550603032
5.0E-4                    -0.0045                  0.0020742004903676553
5.0E-4                    -0.0035                  0.003127699914142767
5.0E-4                    -0.0025                  0.004044004203523991
5.0E-4                    -0.0015                  0.004554011666889943
5.0E-4                    -5.0E-4                  0.0045178514848257445
5.0E-4                    5.0E-4                   0.003952648163060449
5.0E-4                    0.0015                   0.0029887927331416144
5.0E-4                    0.0025                   0.0018511166162413167
5.0E-4                    0.0035                   8.16350967755291E-4
5.0E-4                    0.0045                   3.8669296722873136E-4
5.0E-4                    0.0055                   3.6795089414096285E-4
5.0E-4                    0.0065                   0.0012980068245857118
5.0E-4                    0.0075                   0.00682167795847345
5.0E-4                    0.0085                   0.021462654389289217
5.0E-4                    0.0095                   0.030564069046203162
5.0E-4                    0.0105                   0.026508277942167667
5.0E-4                    0.0115                   0.02022210359553557
5.0E-4                    0.0125                   0.012974669697452108
5.0E-4                    0.0135                   0.0067230824636076774
5.0E-4                    0.0145                   0.0023477495967001273
5.0E-4                    0.0155                   6.125626402088317E-4
5.0E-4                    0.0165                   2.366711702046167E-4
5.0E-4                    0.0175                   9.828877813028342E-5
5.0E-4                    0.0185                   1.3653142811752246E-4
5.0E-4                    0.0195                   5.792529167069502E-4
5.0E-4                    0.0205                   0.002137794773959998
5.0E-4                    0.0215                   0.005102625280368567
5.0E-4                    0.0225                   0.007632974387294716
5.0E-4                    0.0235                   0.004990916103350949
5.0E-4                    0.0245                   9.704939572124062E-4
5.0E-4                    0.0255                   2.1160876847722677E-4
5.0E-4                    0.0265                   5.2379228215218636E-5
5.0E-4                    0.0275                   1.7956132477527834E-5
5.0E-4                    0.0285                   8.593754295949317E-6
5.0E-4                    0.0295                   5.7063565315602395E-6
5.0E-4                    0.0305                   4.854316779926886E-6
5.0E-4                    0.0315                   2.3763503188576334E-6
0.0015                    -0.0315                  4.2134055464658586E-6
0.0015                    -0.0305                  8.296792192294565E-6
0.0015                    -0.0295                  8.88614506578427E-6
0.0015                    -0.0285                  9.522430705023202E-6
0.0015                    -0.0275                  9.76459839809929E-6
0.0015                    -0.0265                  1.0012823383041653E-5
0.0015                    -0.0255                  1.0220047441346357E-5
0.0015                    -0.0245                  1.0411241042492355E-5
0.0015                    -0.0235                  1.0582811892225368E-5
0.0015                    -0.0225                  1.0730315652667796E-5
0.0015                    -0.0215                  1.0856962318256652E-5
0.0015                    -0.0205                  1.0974165211705556E-5
0.0015                    -0.0195                  1.1092612178857374E-5
0.0015                    -0.0185                  1.1228642990166333E-5
0.0015                    -0.0175                  1.142325124955259E-5
0.0015                    -0.0165                  1.1752728717031291E-5
0.0015                    -0.0155                  1.2357518063240514E-5
0.0015                    -0.0145                  1.3568599904625224E-5
0.0015                    -0.0135                  1.621459466371412E-5
0.0015                    -0.0125                  2.252500540449782E-5
0.0015                    -0.0115                  4.032576305040665E-5
0.0015                    -0.0105                  9.388933281212567E-5
0.0015                    -0.0095                  2.715040392603194E-4
0.0015                    -0.0085                  6.192589814004351E-4
0.0015                    -0.0075                  0.0012216859053957327
0.0015                    -0.0065                  0.002514761540140632
0.0015                    -0.0055                  0.004793253852727047
0.0015                    -0.0045                  0.007657085057878194
0.0015                    -0.0035                  0.010440252949706397
0.0015                    -0.0025                  0.012605513165186284
0.0015                    -0.0015                  0.013851994297581634
0.0015                    -5.0E-4                  0.014085947104921523
0.0015                    5.0E-4                   0.013365463632798958
0.0015                    0.0015                   0.011829999459610826
0.0015                    0.0025                   0.009708548992389248
0.0015                    0.0035                   0.007376628557147593
0.0015                    0.0045                   0.005512768918469124
0.0015                    0.0055                   0.005431093568487759
0.0015                    0.0065                   0.009251801235845994
0.0015                    0.0075                   0.018642354788324555
0.0015                    0.0085                   0.028264631794692692
0.0015                    0.0095                   0.029766069119664652
0.0015                    0.0105                   0.024638455259438082
0.0015                    0.0115                   0.017605037832043275
0.0015                    0.0125                   0.010362787951630889
0.0015                    0.0135                   0.004713591771723501
0.0015                    0.0145                   0.0015471885237232869
0.0015                    0.0155                   4.707109783314548E-4
0.0015                    0.0165                   1.8533298124613737E-4
0.0015                    0.0175                   1.0170548494956911E-4
0.0015                    0.0185                   1.3500147851740725E-4
0.0015                    0.0195                   4.076652506200929E-4
0.0015                    0.0205                   0.0014749563958671471
0.0015                    0.0215                   0.004337260163839485
0.0015                    0.0225                   0.0070724311779667886
0.0015                    0.0235                   0.005540481640253399
0.0015                    0.0245                   0.0020016670877463527
0.0015                    0.0255                   4.3614598680856475E-4
0.0015                    0.0265                   1.0620886810047891E-4
0.0015                    0.0275                   3.653312330783623E-5
0.0015                    0.0285                   1.716031159305947E-5
0.0015                    0.0295                   1.1025506824439425E-5
0.0015                    0.0305                   9.300845728240013E-6
0.0015                    0.0315                   4.6634581845059195E-6
0.0025                    -0.0315                  4.434363294134573E-6
0.0025                    -0.0305                  8.394994324165716E-6
0.0025                    -0.0295                  8.468753031056748E-6
0.0025                    -0.0285                  8.766585651097647E-6
0.0025                    -0.0275                  8.66213046094346E-6
0.0025                    -0.0265                  8.545544293411352E-6
0.0025                    -0.0255                  8.436206894857197E-6
0.0025                    -0.0245                  8.351270521065013E-6
0.0025                    -0.0235                  8.27627658825114E-6
0.0025                    -0.0225                  8.200247839097877E-6
0.0025                    -0.0215                  8.118284436277334E-6
0.0025                    -0.0205                  8.035171395382558E-6
0.0025                    -0.0195                  7.964097566620555E-6
0.0025                    -0.0185                  7.927660180814949E-6
0.0025                    -0.0175                  7.966166486836908E-6
0.0025                    -0.0165                  8.164519350152294E-6
0.0025                    -0.0155                  8.722166630923863E-6
0.0025                    -0.0145                  1.0112010636743555E-5
0.0025                    -0.0135                  1.351185198799571E-5
0.0025                    -0.0125                  2.2174970199321328E-5
0.0025                    -0.0115                  4.474126679960913E-5
0.0025                    -0.0105                  1.0538427075552102E-4
0.0025                    -0.0095                  3.2846687862030777E-4
0.0025                    -0.0085                  9.656451592029694E-4
0.0025                    -0.0075                  0.0026273935403214564
0.0025                    -0.0065                  0.005937210372209034
0.0025                    -0.0055                  0.010292530849339745
0.0025                    -0.0045                  0.014350617287749463
0.0025                    -0.0035                  0.017409837640240705
0.0025                    -0.0025                  0.019462483348347548
0.0025                    -0.0015                  0.02074939676433761
0.0025                    -5.0E-4                  0.021480441725434674
0.0025                    5.0E-4                   0.021719858357880525
0.0025                    0.0015                   0.021381576645292163
0.0025                    0.0025                   0.020348448699422615
0.0025                    0.0035                   0.018739599108504947
0.0025                    0.0045                   0.017234209400313616
0.0025                    0.0055                   0.0172367326717946
0.0025                    0.0065                   0.020261303450647188
0.0025                    0.0075                   0.025308512481518514
0.0025                    0.0085                   0.0285745022319562
0.0025                    0.0095                   0.026911952156776376
0.0025                    0.0105                   0.021162396389248463
0.0025                    0.0115                   0.014023549641282532
0.0025                    0.0125                   0.007414281575512141
0.0025                    0.0135                   0.0029902262905015494
0.0025                    0.0145                   9.847546495978673E-4
0.0025                    0.0155                   4.025166349751369E-4
0.0025                    0.0165                   2.181414832873859E-4
0.0025                    0.0175                   1.2160035746632034E-4
0.0025                    0.0185                   1.4335418640159793E-4
0.0025                    0.0195                   4.09843635201095E-4
0.0025                    0.0205                   0.0013980968049619302
0.0025                    0.0215                   0.004040981848917533
0.0025                    0.0225                   0.006764769000364035
0.0025                    0.0235                   0.005681053193188581
0.0025                    0.0245                   0.0023552950589176536
0.0025                    0.0255                   5.895000878885848E-4
0.0025                    0.0265                   1.4246007431462546E-4
0.0025                    0.0275                   4.840305576799277E-5
0.0025                    0.0285                   2.0721449390315234E-5
0.0025                    0.0295                   1.1936961041463736E-5
0.0025                    0.0305                   9.72353236620448E-6
0.0025                    0.0315                   5.08397200268863E-6
0.0035                    -0.0315                  4.818686864115244E-6
0.0035                    -0.0305                  8.735481864311072E-6
0.0035                    -0.0295                  8.565242174230178E-6
0.0035                    -0.0285                  9.088365736047921E-6
0.0035                    -0.0275                  9.108895224655599E-6
0.0035                    -0.0265                  9.035181365212601E-6
0.0035                    -0.0255                  8.916315487356118E-6
0.0035                    -0.0245                  8.81343115183142E-6
0.0035                    -0.0235                  8.720727735598011E-6
0.0035                    -0.0225                  8.62435371515096E-6
0.0035                    -0.0215                  8.51399187881633E-6
0.0035                    -0.0205                  8.394054046844158E-6
0.0035                    -0.0195                  8.28536864430521E-6
0.0035                    -0.0185                  8.22638574125997E-6
0.0035                    -0.0175                  8.28466592546692E-6
0.0035                    -0.0165                  8.598467746159076E-6
0.0035                    -0.0155                  9.482306806088866E-6
0.0035                    -0.0145                  1.1670416589878408E-5
0.0035                    -0.0135                  1.6940719459937234E-5
0.0035                    -0.0125                  2.986843340204419E-5
0.0035                    -0.0115                  6.660974656340486E-5
0.0035                    -0.0105                  1.9374859945392133E-4
0.0035                    -0.0095                  6.272383496086267E-4
0.0035                    -0.0085                  0.0020383239911883045
0.0035                    -0.0075                  0.00555322879588886
0.0035                    -0.0065                  0.010808613928484971
0.0035                    -0.0055                  0.0156884560943511
0.0035                    -0.0045                  0.01888633092928652
0.0035                    -0.0035                  0.020588981883004915
0.0035                    -0.0025                  0.021428428122095656
0.0035                    -0.0015                  0.021938457244318765
0.0035                    -5.0E-4                  0.02253465903204145
0.0035                    5.0E-4                   0.023408400723003576
0.0035                    0.0015                   0.024358728577208635
0.0035                    0.0025                   0.024949170905837165
0.0035                    0.0035                   0.02482214646425221
0.0035                    0.0045                   0.024119532690566853
0.0035                    0.0055                   0.023669925582583035
0.0035                    0.0065                   0.024292863433248598
0.0035                    0.0075                   0.025529790914709576
0.0035                    0.0085                   0.025428190343248797
0.0035                    0.0095                   0.022200900786966713
0.0035                    0.0105                   0.016446040696425485
0.0035                    0.0115                   0.010042526510933559
0.0035                    0.0125                   0.004733674998313046
0.0035                    0.0135                   0.0017494349783437422
0.0035                    0.0145                   6.26746743579169E-4
0.0035                    0.0155                   3.094477631244937E-4
0.0035                    0.0165                   1.7923610554740346E-4
0.0035                    0.0175                   1.0902596828874348E-4
0.0035                    0.0185                   1.3415442089812743E-4
0.0035                    0.0195                   3.7098399197777425E-4
0.0035                    0.0205                   0.0012279728130030678
0.0035                    0.0215                   0.0036404998877866087
0.0035                    0.0225                   0.006560824183977351
0.0035                    0.0235                   0.006110999349263961
0.0035                    0.0245                   0.00291572519816271
0.0035                    0.0255                   8.52831936584262E-4
0.0035                    0.0265                   2.3212991943919747E-4
0.0035                    0.0275                   6.761350334754586E-5
0.0035                    0.0285                   2.5874328318398035E-5
0.0035                    0.0295                   1.332623970202835E-5
0.0035                    0.0305                   1.0593082660792013E-5
0.0035                    0.0315                   5.7109856801747935E-6
0.0045                    -0.0315                  5.066070154568279E-6
0.0045                    -0.0305                  8.86495836101487E-6
0.0045                    -0.0295                  8.36306814000949E-6
0.0045                    -0.0285                  8.992637219894224E-6
0.0045                    -0.0275                  9.189569100329189E-6
0.0045                    -0.0265                  9.252141661076721E-6
0.0045                    -0.0255                  9.214996690583417E-6
0.0045                    -0.0245                  9.173850898763232E-6
0.0045                    -0.0235                  9.143792672083872E-6
0.0045                    -0.0225                  9.11109271998592E-6
0.0045                    -0.0215                  9.056720083990825E-6
0.0045                    -0.0205                  8.981898202299658E-6
0.0045                    -0.0195                  8.918815601095016E-6
0.0045                    -0.0185                  8.935579233887271E-6
0.0045                    -0.0175                  9.15037599318262E-6
0.0045                    -0.0165                  9.789753746081897E-6
0.0045                    -0.0155                  1.1365097171204623E-5
0.0045                    -0.0145                  1.5089950660239105E-5
0.0045                    -0.0135                  2.3678366634180148E-5
0.0045                    -0.0125                  4.5053583507499355E-5
0.0045                    -0.0115                  1.0632751921740059E-4
0.0045                    -0.0105                  3.6386326032594566E-4
0.0045                    -0.0095                  0.0012273731519301572
0.0045                    -0.0085                  0.004014714702247555
0.0045                    -0.0075                  0.009590238482798916
0.0045                    -0.0065                  0.01558526186564832
0.0045                    -0.0055                  0.01912142320758947
0.0045                    -0.0045                  0.020033336697837554
0.0045                    -0.0035                  0.019307475668945126
0.0045                    -0.0025                  0.017810222118387863
0.0045                    -0.0015                  0.016484927010968903
0.0045                    -5.0E-4                  0.01605651642116345
0.0045                    5.0E-4                   0.016798539171051938
0.0045                    0.0015                   0.018504565006178215
0.0045                    0.0025                   0.020573643387584585
0.0045                    0.0035                   0.022169640913884667
0.0045                    0.0045                   0.02269231251749439
0.0045                    0.0055                   0.022294730555914594
0.0045                    0.0065                   0.021612374661707383
0.0045                    0.0075                   0.020915644738686134
0.0045                    0.0085                   0.019419638392936336
0.0045                    0.0095                   0.0161355057407277
0.0045                    0.0105                   0.011456499092620136
0.0045                    0.0115                   0.006553235492094632
0.0045                    0.0125                   0.0028403835248760716
0.0045                    0.0135                   0.0010620854982038076
0.0045                    0.0145                   4.6368720060288154E-4
0.0045                    0.0155                   2.531604029488627E-4
0.0045                    0.0165                   1.3414967651479497E-4
0.0045                    0.0175                   8.978442759152518E-5
0.0045                    0.0185                   1.1582414496652894E-4
0.0045                    0.0195                   2.8762678095216576E-4
0.0045                    0.0205                   9.402084317669249E-4
0.0045                    0.0215                   0.0030509869135029
0.0045                    0.0225                   0.0062230775836000975
0.0045                    0.0235                   0.006550238705832349
0.0045                    0.0245                   0.0035605664799076304
0.0045                    0.0255                   0.0011716727936697815
0.0045                    0.0265                   3.2449500670138576E-4
0.0045                    0.0275                   8.395213792571183E-5
0.0045                    0.0285                   2.9840348284839963E-5
0.0045                    0.0295                   1.4111193537699678E-5
0.0045                    0.0305                   1.1183290348860383E-5
0.0045                    0.0315                   6.180572265975937E-6
0.0055                    -0.0315                  5.301303523473733E-6
0.0055                    -0.0305                  9.033971986762227E-6
0.0055                    -0.0295                  8.212303826187562E-6
0.0055                    -0.0285                  8.855923596436783E-6
0.0055                    -0.0275                  9.165768375939748E-6
0.0055                    -0.0265                  9.370686660411101E-6
0.0055                    -0.0255                  9.458209805369617E-6
0.0055                    -0.0245                  9.541640510076727E-6
0.0055                    -0.0235                  9.663368863012241E-6
0.0055                    -0.0225                  9.817069087359639E-6
0.0055                    -0.0215                  9.971544021233994E-6
0.0055                    -0.0205                  1.0119996699745871E-5
0.0055                    -0.0195                  1.0313182460725568E-5
0.0055                    -0.0185                  1.067371562464582E-5
0.0055                    -0.0175                  1.1416629689241546E-5
0.0055                    -0.0165                  1.2926253462981097E-5
0.0055                    -0.0155                  1.6006288923716436E-5
0.0055                    -0.0145                  2.269536152965147E-5
0.0055                    -0.0135                  3.8364122427263626E-5
0.0055                    -0.0125                  7.841514446374679E-5
0.0055                    -0.0115                  2.1144953423415962E-4
0.0055                    -0.0105                  6.895211818691158E-4
0.0055                    -0.0095                  0.002313225730168325
0.0055                    -0.0085                  0.006882283272038114
0.0055                    -0.0075                  0.013882704984098992
0.0055                    -0.0065                  0.019107890836294095
0.0055                    -0.0055                  0.020283578358320713
0.0055                    -0.0045                  0.0183147963822776
0.0055                    -0.0035                  0.014634376614821585
0.0055                    -0.0025                  0.010831175949363508
0.0055                    -0.0015                  0.008233430772523693
0.0055                    -5.0E-4                  0.007184667584770482
0.0055                    5.0E-4                   0.0074243780734149474
0.0055                    0.0015                   0.008701648697922372
0.0055                    0.0025                   0.010740424838739701
0.0055                    0.0035                   0.012954624697611663
0.0055                    0.0045                   0.014517818838324151
0.0055                    0.0055                   0.014856979165730793
0.0055                    0.0065                   0.014100175051356599
0.0055                    0.0075                   0.013035394103062698
0.0055                    0.0085                   0.01196620527575065
0.0055                    0.0095                   0.010341643988663435
0.0055                    0.0105                   0.007816761872880535
0.0055                    0.0115                   0.004688969698222331
0.0055                    0.0125                   0.0021379665764366153
0.0055                    0.0135                   8.752084974237794E-4
0.0055                    0.0145                   4.0117865444226527E-4
0.0055                    0.0155                   2.0706820962186233E-4
0.0055                    0.0165                   1.0819128134323972E-4
0.0055                    0.0175                   7.494253868194416E-5
0.0055                    0.0185                   9.634664365342738E-5
0.0055                    0.0195                   2.0926047289738278E-4
0.0055                    0.0205                   7.055707187389815E-4
0.0055                    0.0215                   0.002511467963372874
0.0055                    0.0225                   0.005786989169974102
0.0055                    0.0235                   0.006832241801811996
0.0055                    0.0245                   0.004108331716087998
0.0055                    0.0255                   0.0014060580287346676
0.0055                    0.0265                   3.6750261319112295E-4
0.0055                    0.0275                   9.226166367341253E-5
0.0055                    0.0285                   3.21393733959071E-5
0.0055                    0.0295                   1.4617473509509643E-5
0.0055                    0.0305                   1.1727312889209145E-5
0.0055                    0.0315                   6.618633518462501E-6
0.0065                    -0.0315                  5.50259668829916E-6
0.0065                    -0.0305                  9.20112092414997E-6
0.0065                    -0.0295                  8.104653041568083E-6
0.0065                    -0.0285                  8.710137371671594E-6
0.0065                    -0.0275                  9.054799538905525E-6
0.0065                    -0.0265                  9.34017271448795E-6
0.0065                    -0.0255                  9.524783810649786E-6
0.0065                    -0.0245                  9.743936641863007E-6
0.0065                    -0.0235                  1.0089179559841162E-5
0.0065                    -0.0225                  1.058900600967845E-5
0.0065                    -0.0215                  1.1211245991408014E-5
0.0065                    -0.0205                  1.194072464806667E-5
0.0065                    -0.0195                  1.2880302418497271E-5
0.0065                    -0.0185                  1.4286586663318113E-5
0.0065                    -0.0175                  1.6568499858163573E-5
0.0065                    -0.0165                  2.0392545998753616E-5
0.0065                    -0.0155                  2.6927558184437902E-5
0.0065                    -0.0145                  3.912189449262248E-5
0.0065                    -0.0135                  6.868522649454351E-5
0.0065                    -0.0125                  1.5957425547499457E-4
0.0065                    -0.0115                  4.4659612711122953E-4
0.0065                    -0.0105                  0.0012960126127814515
0.0065                    -0.0095                  0.004093638252857613
0.0065                    -0.0085                  0.010358584091760846
0.0065                    -0.0075                  0.01759035262462954
0.0065                    -0.0065                  0.020987508196288952
0.0065                    -0.0055                  0.019406930022625397