% Model:              Benchmark260518.mph
% Version:            COMSOL 6.2.0.339
% Date:               May 20 2026, 12:53
% Dimension:          2
% Nodes:              4096
% Expressions:        1
% Description:        速度大小
% Length unit:        m
% x                       y                        spf.U (m/s)
% mirrored_by_python_y_to_minus_y, coord_match_decimals=12
0.0005 -0.0315 1.35809215671e-06
0.0005 -0.0305 2.68111162044e-06
0.0005 -0.0295 2.97752014214e-06
0.0005 -0.0285 3.33672829468e-06
0.0005 -0.0275 3.55645272037e-06
0.0005 -0.0265 3.8484805102e-06
0.0005 -0.0255 4.31774927113e-06
0.0005 -0.0245 5.39171354636e-06
0.0005 -0.0235 9.22599812248e-06
0.0005 -0.0225 2.26072345087e-05
0.0005 -0.0215 6.67762723024e-05
0.0005 -0.0205 0.000137741968375
0.0005 -0.0195 0.000715427805156
0.0005 -0.0185 0.0027145341955
0.0005 -0.0175 0.00658055904981
0.0005 -0.0165 0.0116367785409
0.0005 -0.0155 0.0169326300465
0.0005 -0.0145 0.0209306855335
0.0005 -0.0135 0.0227601122112
0.0005 -0.0125 0.0151426057046
0.0005 -0.0115 0.00429261517879
0.0005 -0.0105 0.000599654828152
0.0005 -0.0095 0.000254740352925
0.0005 -0.0085 0.000335783972741
0.0005 -0.0075 0.000866234602698
0.0005 -0.0065 0.00159032062291
0.0005 -0.0055 0.00225973247013
0.0005 -0.0045 0.00271115190944
0.0005 -0.0035 0.00283175823166
0.0005 -0.0025 0.00259375121201
0.0005 -0.0015 0.00207252603361
0.0005 -0.0005 0.00144610005839
0.0005 0.0005 0.000915351858019
0.0005 0.0015 0.000564232631361
0.0005 0.0025 0.000326788947919
0.0005 0.0035 0.000148517618735
0.0005 0.0045 5.21396927147e-05
0.0005 0.0055 2.06975755043e-05
0.0005 0.0065 1.02019350896e-05
0.0005 0.0075 6.8404630948e-06
0.0005 0.0085 5.5496386008e-06
0.0005 0.0095 4.82976157326e-06
0.0005 0.0105 4.43349922288e-06
0.0005 0.0115 4.22033661614e-06
0.0005 0.0125 4.10337297252e-06
0.0005 0.0135 4.03378408718e-06
0.0005 0.0145 3.98669779808e-06
0.0005 0.0155 3.95058949097e-06
0.0005 0.0165 3.92119814017e-06
0.0005 0.0175 3.89440348832e-06
0.0005 0.0185 3.86611027543e-06
0.0005 0.0195 3.83471742956e-06
0.0005 0.0205 3.79941449319e-06
0.0005 0.0215 3.75767325731e-06
0.0005 0.0225 3.70660536164e-06
0.0005 0.0235 3.64491175662e-06
0.0005 0.0245 3.56950723305e-06
0.0005 0.0255 3.4792698146e-06
0.0005 0.0265 3.36887721372e-06
0.0005 0.0275 3.21701281978e-06
0.0005 0.0285 3.04778189242e-06
0.0005 0.0295 2.72363726578e-06
0.0005 0.0305 2.41283040729e-06
0.0005 0.0315 1.19993457111e-06
0.0015 -0.0315 2.63010034674e-06
0.0015 -0.0305 5.11784488709e-06
0.0015 -0.0295 5.41026691764e-06
0.0015 -0.0285 5.78614868506e-06
0.0015 -0.0275 5.98077373016e-06
0.0015 -0.0265 6.33211223763e-06
0.0015 -0.0255 7.07712002843e-06
0.0015 -0.0245 9.0891159611e-06
0.0015 -0.0235 1.56659373689e-05
0.0015 -0.0225 3.66536252182e-05
0.0015 -0.0215 9.68702575778e-05
0.0015 -0.0205 0.000199949095291
0.0015 -0.0195 0.000528945000179
0.0015 -0.0185 0.00187118024383
0.0015 -0.0175 0.00511108320977
0.0015 -0.0165 0.00995295644493
0.0015 -0.0155 0.0152923553846
0.0015 -0.0145 0.0197328976768
0.0015 -0.0135 0.0222166020679
0.0015 -0.0125 0.019740125483
0.0015 -0.0115 0.0120895227301
0.0015 -0.0105 0.00574499485327
0.0015 -0.0095 0.00381870924031
0.0015 -0.0085 0.00434152685644
0.0015 -0.0075 0.00567559994813
0.0015 -0.0065 0.00706907633347
0.0015 -0.0055 0.00817095842449
0.0015 -0.0045 0.00877289467459
0.0015 -0.0035 0.00873977126833
0.0015 -0.0025 0.00800796042338
0.0015 -0.0015 0.00662523146387
0.0015 -0.0005 0.00480780825925
0.0015 0.0005 0.00295450026728
0.0015 0.0015 0.00153561979414
0.0015 0.0025 0.00071527968229
0.0015 0.0035 0.000290178275729
0.0015 0.0045 9.77740296014e-05
0.0015 0.0055 3.98414783184e-05
0.0015 0.0065 1.95983394344e-05
0.0015 0.0075 1.21756267364e-05
0.0015 0.0085 9.12436175333e-06
0.0015 0.0095 7.57838891022e-06
0.0015 0.0105 6.77687539944e-06
0.0015 0.0115 6.36858282195e-06
0.0015 0.0125 6.158599975e-06
0.0015 0.0135 6.04619973462e-06
0.0015 0.0145 5.98197848946e-06
0.0015 0.0155 5.94315029723e-06
0.0015 0.0165 5.91998588989e-06
0.0015 0.0175 5.90525813242e-06
0.0015 0.0185 5.89270638017e-06
0.0015 0.0195 5.87926627197e-06
0.0015 0.0205 5.86343439233e-06
0.0015 0.0215 5.84261235879e-06
0.0015 0.0225 5.81421336178e-06
0.0015 0.0235 5.77736830966e-06
0.0015 0.0245 5.73029488677e-06
0.0015 0.0255 5.67306342136e-06
0.0015 0.0265 5.60185897163e-06
0.0015 0.0275 5.49482035418e-06
0.0015 0.0285 5.37347527694e-06
0.0015 0.0295 5.00901484027e-06
0.0015 0.0305 4.62436599872e-06
0.0015 0.0315 2.32638882074e-06
0.0025 -0.0315 2.7976456637e-06
0.0025 -0.0305 5.20709549523e-06
0.0025 -0.0295 5.13715738866e-06
0.0025 -0.0285 5.28713589351e-06
0.0025 -0.0275 5.26842895394e-06
0.0025 -0.0265 5.39885946825e-06
0.0025 -0.0255 5.97906338528e-06
0.0025 -0.0245 7.8752665236e-06
0.0025 -0.0235 1.32494744042e-05
0.0025 -0.0225 2.71475082488e-05
0.0025 -0.0215 5.86656134407e-05
0.0025 -0.0205 0.000132588600534
0.0025 -0.0195 0.000396674768647
0.0025 -0.0185 0.0013063057992
0.0025 -0.0175 0.00375921609096
0.0025 -0.0165 0.00799581410993
0.0025 -0.0155 0.0130224830109
0.0025 -0.0145 0.0174459540365
0.0025 -0.0135 0.0202211258457
0.0025 -0.0125 0.0200442193647
0.0025 -0.0115 0.0169330271355
0.0025 -0.0105 0.0135279073939
0.0025 -0.0095 0.0120753151173
0.0025 -0.0085 0.0123846331894
0.0025 -0.0075 0.0132776155209
0.0025 -0.0065 0.0140216528013
0.0025 -0.0055 0.0143426601431
0.0025 -0.0045 0.0142329157775
0.0025 -0.0035 0.0137281075665
0.0025 -0.0025 0.0127836440466
0.0025 -0.0015 0.0112511094093
0.0025 -0.0005 0.00896199361938
0.0025 0.0005 0.00604702210623
0.0025 0.0015 0.00319991329731
0.0025 0.0025 0.00128156277752
0.0025 0.0035 0.000420201572354
0.0025 0.0045 0.000132406232865
0.0025 0.0055 5.54210159991e-05
0.0025 0.0065 2.6368588259e-05
0.0025 0.0075 1.44432591223e-05
0.0025 0.0085 8.9174964958e-06
0.0025 0.0095 6.32388619152e-06
0.0025 0.0105 5.09167088819e-06
0.0025 0.0115 4.50044858453e-06
0.0025 0.0125 4.21860758374e-06
0.0025 0.0135 4.08992513346e-06
0.0025 0.0145 4.04151554548e-06
0.0025 0.0155 4.03943715758e-06
0.0025 0.0165 4.06649135402e-06
0.0025 0.0175 4.11246306745e-06
0.0025 0.0185 4.17072990436e-06
0.0025 0.0195 4.23736895608e-06
0.0025 0.0205 4.31060963798e-06
0.0025 0.0215 4.38992976425e-06
0.0025 0.0225 4.47532764469e-06
0.0025 0.0235 4.56698470615e-06
0.0025 0.0245 4.6659047753e-06
0.0025 0.0255 4.77177191612e-06
0.0025 0.0265 4.88320467084e-06
0.0025 0.0275 4.98123419844e-06
0.0025 0.0285 5.04229213365e-06
0.0025 0.0295 4.83222805175e-06
0.0025 0.0305 4.65188313689e-06
0.0025 0.0315 2.40642826841e-06
0.0035 -0.0315 3.05898889808e-06
0.0035 -0.0305 5.45749763174e-06
0.0035 -0.0295 5.23932581709e-06
0.0035 -0.0285 5.54041288763e-06
0.0035 -0.0275 5.62320570816e-06
0.0035 -0.0265 5.81632779325e-06
0.0035 -0.0255 6.42757370164e-06
0.0035 -0.0245 8.24119212524e-06
0.0035 -0.0235 1.30452303498e-05
0.0035 -0.0225 2.46397265076e-05
0.0035 -0.0215 5.12325933614e-05
0.0035 -0.0205 0.000129386999283
0.0035 -0.0195 0.000353087675872
0.0035 -0.0185 0.000995382140135
0.0035 -0.0175 0.0027745139839
0.0035 -0.0165 0.0061948493506
0.0035 -0.0155 0.0104683958999
0.0035 -0.0145 0.0142559289466
0.0035 -0.0135 0.0168613524663
0.0035 -0.0125 0.0178096533837
0.0035 -0.0115 0.0173297367967
0.0035 -0.0105 0.0167208967279
0.0035 -0.0095 0.0167353084769
0.0035 -0.0085 0.0170965995892
0.0035 -0.0075 0.0172684914778
0.0035 -0.0065 0.01700742282
0.0035 -0.0055 0.0164274915556
0.0035 -0.0045 0.0157857168603
0.0035 -0.0035 0.0152455918052
0.0035 -0.0025 0.0147492559824
0.0035 -0.0015 0.0140268407018
0.0035 -0.0005 0.0126213440011
0.0035 0.0005 0.0100128450088
0.0035 0.0015 0.00625175792963
0.0035 0.0025 0.00274838455545
0.0035 0.0035 0.000894610687154
0.0035 0.0045 0.000294017826115
0.0035 0.0055 0.000111074353923
0.0035 0.0065 5.19764475445e-05
0.0035 0.0075 2.51267517549e-05
0.0035 0.0085 1.3284351696e-05
0.0035 0.0095 8.15438138496e-06
0.0035 0.0105 5.83406730712e-06
0.0035 0.0115 4.76047978715e-06
0.0035 0.0125 4.25813405716e-06
0.0035 0.0135 4.03419178036e-06
0.0035 0.0145 3.95694635528e-06
0.0035 0.0155 3.96385912783e-06
0.0035 0.0165 4.02132577949e-06
0.0035 0.0175 4.10905227469e-06
0.0035 0.0185 4.21472362402e-06
0.0035 0.0195 4.33163806966e-06
0.0035 0.0205 4.45639210534e-06
0.0035 0.0215 4.58693108394e-06
0.0035 0.0225 4.72168253276e-06
0.0035 0.0235 4.85935231174e-06
0.0035 0.0245 4.99849614753e-06
0.0035 0.0255 5.13434701302e-06
0.0035 0.0265 5.25650522542e-06
0.0035 0.0275 5.32008076189e-06
0.0035 0.0285 5.28328531367e-06
0.0035 0.0295 4.90541182711e-06
0.0035 0.0305 4.77108021616e-06
0.0035 0.0315 2.55039788256e-06
0.0045 -0.0315 3.21842759385e-06
0.0045 -0.0305 5.56400102741e-06
0.0045 -0.0295 5.17033783645e-06
0.0045 -0.0285 5.55891626969e-06
0.0045 -0.0275 5.77166762949e-06
0.0045 -0.0265 6.05490375577e-06
0.0045 -0.0255 6.66642699319e-06
0.0045 -0.0245 8.30317473213e-06
0.0045 -0.0235 1.25175938456e-05
0.0045 -0.0225 2.31319062276e-05
0.0045 -0.0215 5.17124435512e-05
0.0045 -0.0205 0.000143836374789
0.0045 -0.0195 0.000375443196749
0.0045 -0.0185 0.000950740445763
0.0045 -0.0175 0.00243173653091
0.0045 -0.0165 0.00518717597559
0.0045 -0.0155 0.0083778289425
0.0045 -0.0145 0.0107969858451
0.0045 -0.0135 0.0123316557406
0.0045 -0.0125 0.0133432588578
0.0045 -0.0115 0.0141490938282
0.0045 -0.0105 0.0150121358228
0.0045 -0.0095 0.0156522841946
0.0045 -0.0085 0.0156563074298
0.0045 -0.0075 0.0149204108777
0.0045 -0.0065 0.0137244339721
0.0045 -0.0055 0.0125723770997
0.0045 -0.0045 0.01191286689
0.0045 -0.0035 0.0119869374187
0.0045 -0.0025 0.0127409331874
0.0045 -0.0015 0.0137724518571
0.0045 -0.0005 0.0143505761485
0.0045 0.0005 0.0134469196346
0.0045 0.0015 0.0101509607994
0.0045 0.0025 0.00545527842961
0.0045 0.0035 0.00208479733203
0.0045 0.0045 0.000742287965378
0.0045 0.0055 0.000296633565099
0.0045 0.0065 0.000124614442555
0.0045 0.0075 4.98518699352e-05
0.0045 0.0085 2.29392750769e-05
0.0045 0.0095 1.22390061572e-05
0.0045 0.0105 7.70612935419e-06
0.0045 0.0115 5.62387462302e-06
0.0045 0.0125 4.64220483749e-06
0.0045 0.0135 4.18568777538e-06
0.0045 0.0145 4.00660222661e-06
0.0045 0.0155 3.98452086939e-06
0.0045 0.0165 4.0524115941e-06
0.0045 0.0175 4.17070722832e-06
0.0045 0.0185 4.31712699002e-06
0.0045 0.0195 4.47926806713e-06
0.0045 0.0205 4.64905784891e-06
0.0045 0.0215 4.82014515537e-06
0.0045 0.0225 4.98725177019e-06
0.0045 0.0235 5.14573269684e-06
0.0045 0.0245 5.29015792928e-06
0.0045 0.0255 5.40879475628e-06
0.0045 0.0265 5.47861724029e-06
0.0045 0.0275 5.44049722772e-06
0.0045 0.0285 5.2678150576e-06
0.0045 0.0295 4.79087283117e-06
0.0045 0.0305 4.77982943071e-06
0.0045 0.0315 2.63381209242e-06
0.0055 -0.0315 3.38960224649e-06
0.0055 -0.0305 5.7126164195e-06
0.0055 -0.0295 5.1291080545e-06
0.0055 -0.0285 5.54874165683e-06
0.0055 -0.0275 5.85078274431e-06
0.0055 -0.0265 6.22703262485e-06
0.0055 -0.0255 6.87881364224e-06
0.0055 -0.0245 8.45761759547e-06
0.0055 -0.0235 1.25088798238e-05
0.0055 -0.0225 2.31629026014e-05
0.0055 -0.0215 5.31441690611e-05
0.0055 -0.0205 0.000143708660272
0.0055 -0.0195 0.0004093762171
0.0055 -0.0185 0.00116748931708
0.0055 -0.0175 0.0029859347941
0.0055 -0.0165 0.00571484589936
0.0055 -0.0155 0.00790818736113
0.0055 -0.0145 0.00845410488982
0.0055 -0.0135 0.00786932970782
0.0055 -0.0125 0.00759823544074
0.0055 -0.0115 0.00839367636338
0.0055 -0.0105 0.00950945588282
0.0055 -0.0095 0.0099422443658
0.0055 -0.0085 0.00943169597077
0.0055 -0.0075 0.00829294351565
0.0055 -0.0065 0.00703004876746
0.0055 -0.0055 0.00609063865429
0.0055 -0.0045 0.00579566530894
0.0055 -0.0035 0.00640186422627
0.0055 -0.0025 0.00812588210021
0.0055 -0.0015 0.0108210184253
0.0055 -0.0005 0.0136537423792
0.0055 0.0005 0.0151798446996
0.0055 0.0015 0.0137560572531
0.0055 0.0025 0.00928004189943
0.0055 0.0035 0.00448566698003
0.0055 0.0045 0.00177006215656
0.0055 0.0055 0.000735005018642
0.0055 0.0065 0.000307921979826
0.0055 0.0075 0.0001155744554
0.0055 0.0085 4.50899326885e-05
0.0055 0.0095 2.16051066866e-05
0.0055 0.0105 1.21722880295e-05
0.0055 0.0115 8.01999908069e-06
0.0055 0.0125 5.99340718682e-06
0.0055 0.0135 4.99111545222e-06
0.0055 0.0145 4.52904176153e-06
0.0055 0.0155 4.36815753653e-06
0.0055 0.0165 4.37632814635e-06
0.0055 0.0175 4.4791328035e-06
0.0055 0.0185 4.63555775721e-06
0.0055 0.0195 4.81971900454e-06
0.0055 0.0205 5.0122854507e-06
0.0055 0.0215 5.19815214951e-06
0.0055 0.0225 5.36610374839e-06
0.0055 0.0235 5.50766561721e-06
0.0055 0.0245 5.61392011516e-06
0.0055 0.0255 5.66782316242e-06
0.0055 0.0265 5.64145613514e-06
0.0055 0.0275 5.48296392743e-06
0.0055 0.0285 5.20611950545e-06
0.0055 0.0295 4.6886826901e-06
0.0055 0.0305 4.79236351617e-06
0.0055 0.0315 2.69748202196e-06
0.0065 -0.0315 3.5366059946e-06
0.0065 -0.0305 5.85485388847e-06
0.0065 -0.0295 5.09921984242e-06
0.0065 -0.0285 5.50265111571e-06
0.0065 -0.0275 5.83859696851e-06
0.0065 -0.0265 6.28483960447e-06
0.0065 -0.0255 7.02678519536e-06
0.0065 -0.0245 8.74985243991e-06
0.0065 -0.0235 1.31608956943e-05
0.0065 -0.0225 2.47932766969e-05
0.0065 -0.0215 5.77671334021e-05
0.0065 -0.0205 0.000153189387449
0.0065 -0.0195 0.000500008156457
0.0065 -0.0185 0.00171018450177
0.0065 -0.0175 0.00443121821753
0.0065 -0.0165 0.00757515825516
0.0065 -0.0155 0.00894413525534
0.0065 -0.0145 0.00782468125201
0.0065 -0.0135 0.00529876704941
0.0065 -0.0125 0.00325418347519
0.0065 -0.0115 0.00306722133997
0.0065 -0.0105 0.00363058153436
0.0065 -0.0095 0.00378078310548
0.0065 -0.0085 0.00342353760965
0.0065 -0.0075 0.00281315919199
0.0065 -0.0065 0.00225742635621
0.0065 -0.0055 0.00196518862328
0.0065 -0.0045 0.00199524753576
0.0065 -0.0035 0.00249455752613
0.0065 -0.0025 0.00390519100047
0.0065 -0.0015 0.00673586210261
0.0065 -0.0005 0.0107902506733
0.0065 0.0005 0.0145650773515
0.0065 0.0015 0.0158127622884
0.0065 0.0025 0.0132412278981
0.0065 0.0035 0.00826959359056
0.0065 0.0045 0.00395251075267
0.0065 0.0055 0.00166425871191
0.0065 0.0065 0.00070845008064
0.0065 0.0075 0.000285448212686
0.0065 0.0085 0.000105722181261
0.0065 0.0095 4.38148466631e-05
0.0065 0.0105 2.2910384372e-05
0.0065 0.0115 1.37952813109e-05
0.0065 0.0125 9.39399864034e-06
0.0065 0.0135 7.07221216916e-06
0.0065 0.0145 5.85614640981e-06
0.0065 0.0155 5.26844200304e-06
0.0065 0.0165 5.02871137896e-06
0.0065 0.0175 4.99576872257e-06
0.0065 0.0185 5.08695332888e-06
0.0065 0.0195 5.24315589011e-06
0.0065 0.0205 5.41959071399e-06
0.0065 0.0215 5.58419288377e-06
0.0065 0.0225 5.71693548187e-06
0.0065 0.0235 5.80639966945e-06
0.0065 0.0245 5.84316436141e-06
0.0065 0.0255 5.81049033797e-06
0.0065 0.0265 5.68632980328e-06
0.0065 0.0275 5.43731844414e-06
0.0065 0.0285 5.10749224642e-06
0.0065 0.0295 4.59084239841e-06
0.0065 0.0305 4.78821214368e-06
0.0065 0.0315 2.73352370128e-06
0.0075 -0.0315 3.6779614306e-06
0.0075 -0.0305 6.00485639103e-06
0.0075 -0.0295 5.089274729e-06
0.0075 -0.0285 5.45864370609e-06
0.0075 -0.0275 5.79788335326e-06
0.0075 -0.0265 6.30540872666e-06
0.0075 -0.0255 7.20502037542e-06
0.0075 -0.0245 9.33718507171e-06
0.0075 -0.0235 1.48596059683e-05
0.0075 -0.0225 2.98128175387e-05
0.0075 -0.0215 7.43719036478e-05
0.0075 -0.0205 0.000234397675807
0.0075 -0.0195 0.000790132990442
0.0075 -0.0185 0.0027074328106
0.0075 -0.0175 0.00643026339699
0.0075 -0.0165 0.00946454238964
0.0075 -0.0155 0.00927005159932
0.0075 -0.0145 0.00650912808687
0.0075 -0.0135 0.00341685301948
0.0075 -0.0125 0.00149180324878
0.0075 -0.0115 0.000835654263648
0.0075 -0.0105 0.000874981817826
0.0075 -0.0095 0.00095657444666
0.0075 -0.0085 0.000915661728485
0.0075 -0.0075 0.000765961976139
0.0075 -0.0065 0.000618471700995
0.0075 -0.0055 0.000592683710287
0.0075 -0.0045 0.000673857699841
0.0075 -0.0035 0.000915681110223
0.0075 -0.0025 0.00162864702669
0.0075 -0.0015 0.00343501664223
0.0075 -0.0005 0.00697325514999
0.0075 0.0005 0.0117162367132
0.0075 0.0015 0.0154557522733
0.0075 0.0025 0.0158521038313
0.0075 0.0035 0.0125754136004
0.0075 0.0045 0.00768990343735
0.0075 0.0055 0.00373629156384
0.0075 0.0065 0.00160133135457
0.0075 0.0075 0.000673184163089
0.0075 0.0085 0.00027345135703
0.0075 0.0095 0.000109216673475
0.0075 0.0105 5.14168152942e-05
0.0075 0.0115 2.96023744579e-05
0.0075 0.0125 1.83201409629e-05
0.0075 0.0135 1.23313991603e-05
0.0075 0.0145 9.1976986201e-06
0.0075 0.0155 7.41111504734e-06
0.0075 0.0165 6.42253531166e-06
0.0075 0.0175 5.94319014915e-06
0.0075 0.0185 5.78156880845e-06
0.0075 0.0195 5.79584872331e-06
0.0075 0.0205 5.87956792932e-06
0.0075 0.0215 5.96499071148e-06
0.0075 0.0225 6.01711172596e-06
0.0075 0.0235 6.02229735102e-06
0.0075 0.0245 5.97297297615e-06
0.0075 0.0255 5.85614878722e-06
0.0075 0.0265 5.65807808263e-06
0.0075 0.0275 5.35801061317e-06
0.0075 0.0285 5.01232281914e-06
0.0075 0.0295 4.51405084279e-06
0.0075 0.0305 4.78080822922e-06
0.0075 0.0315 2.7542810684e-06
0.0085 -0.0315 3.81500823527e-06
0.0085 -0.0305 6.15827603634e-06
0.0085 -0.0295 5.09336519825e-06
0.0085 -0.0285 5.42574120205e-06
0.0085 -0.0275 5.76326089311e-06
0.0085 -0.0265 6.34734880485e-06
0.0085 -0.0255 7.49613359105e-06
0.0085 -0.0245 1.03346876309e-05
0.0085 -0.0235 1.78957530255e-05
0.0085 -0.0225 4.02004748631e-05
0.0085 -0.0215 0.000109166063728
0.0085 -0.0205 0.000378837711004
0.0085 -0.0195 0.00130474148473
0.0085 -0.0185 0.00409500083795
0.0085 -0.0175 0.00837629817138
0.0085 -0.0165 0.0103081852609
0.0085 -0.0155 0.00796957007426
0.0085 -0.0145 0.0041104154109
0.0085 -0.0135 0.00155810175384
0.0085 -0.0125 0.000603153291527
0.0085 -0.0115 0.00032938049105
0.0085 -0.0105 0.000235612110382
0.0085 -0.0095 0.000231141339367
0.0085 -0.0085 0.00023704573428
0.0085 -0.0075 0.000212739128184
0.0085 -0.0065 0.000179752357306
0.0085 -0.0055 0.000187281943287
0.0085 -0.0045 0.000231341343026
0.0085 -0.0035 0.000354987377029
0.0085 -0.0025 0.00069544258916
0.0085 -0.0015 0.00156231219883
0.0085 -0.0005 0.00369153968746
0.0085 0.0005 0.00770158846663
0.0085 0.0015 0.0126114348521
0.0085 0.0025 0.0158858752363
0.0085 0.0035 0.0156276118446
0.0085 0.0045 0.0121151181307
0.0085 0.0055 0.00739438316013
0.0085 0.0065 0.00362440075598
0.0085 0.0075 0.00156024888392
0.0085 0.0085 0.000671814718872
0.0085 0.0095 0.000303247920903
0.0085 0.0105 0.00015093480367
0.0085 0.0115 8.14370041513e-05
0.0085 0.0125 4.3626642938e-05
0.0085 0.0135 2.71609230108e-05
0.0085 0.0145 1.80262731871e-05
0.0085 0.0155 1.27300133869e-05
0.0085 0.0165 9.58379357128e-06
0.0085 0.0175 7.81910089325e-06
0.0085 0.0185 6.95016793078e-06
0.0085 0.0195 6.5686594822e-06
0.0085 0.0205 6.41042876171e-06
0.0085 0.0215 6.32378636715e-06
0.0085 0.0225 6.24152342108e-06
0.0085 0.0235 6.13955450397e-06
0.0085 0.0245 6.00639548365e-06
0.0085 0.0255 5.8273412343e-06
0.0085 0.0265 5.58913776284e-06
0.0085 0.0275 5.27253990053e-06
0.0085 0.0285 4.93407805037e-06
0.0085 0.0295 4.45963327763e-06
0.0085 0.0305 4.76630912534e-06
0.0085 0.0315 2.75801035178e-06
0.0095 -0.0315 3.94277229999e-06
0.0095 -0.0305 6.30628659387e-06
0.0095 -0.0295 5.10755641415e-06
0.0095 -0.0285 5.40935502635e-06
0.0095 -0.0275 5.75961024097e-06
0.0095 -0.0265 6.46124472362e-06
0.0095 -0.0255 7.99019924668e-06
0.0095 -0.0245 1.18887390086e-05
0.0095 -0.0235 2.25379239093e-05
0.0095 -0.0225 5.57266062042e-05
0.0095 -0.0215 0.000178498042065
0.0095 -0.0205 0.000607630158416
0.0095 -0.0195 0.00204117638706
0.0095 -0.0185 0.0056369449846
0.0095 -0.0175 0.00975433818993
0.0095 -0.0165 0.00996628476815
0.0095 -0.0155 0.006091633263
0.0095 -0.0145 0.00238545282534
0.0095 -0.0135 0.000742807706149
0.0095 -0.0125 0.000253467182839
0.0095 -0.0115 0.000132430906286
0.0095 -0.0105 8.73755934953e-05
0.0095 -0.0095 7.2545373428e-05
0.0095 -0.0085 6.91113807708e-05
0.0095 -0.0075 6.58467535918e-05
0.0095 -0.0065 6.23242508704e-05
0.0095 -0.0055 6.50463814793e-05
0.0095 -0.0045 8.05256524026e-05
0.0095 -0.0035 0.00013592809703
0.0095 -0.0025 0.000293554483324
0.0095 -0.0015 0.000686503418857
0.0095 -0.0005 0.00167635735757
0.0095 0.0005 0.0040638780528
0.0095 0.0015 0.00832695036826
0.0095 0.0025 0.0131292959413
0.0095 0.0035 0.0159446856991
0.0095 0.0045 0.0152962827429
0.0095 0.0055 0.0117175997453
0.0095 0.0065 0.00715783572419
0.0095 0.0075 0.0035673008787
0.0095 0.0085 0.00161626274939
0.0095 0.0095 0.000792037002566
0.0095 0.0105 0.000443900500496
0.0095 0.0115 0.000252604314051
0.0095 0.0125 0.000133224934536
0.0095 0.0135 7.35941241008e-05
0.0095 0.0145 4.44689494622e-05
0.0095 0.0155 2.70047834897e-05
0.0095 0.0165 1.69741926876e-05
0.0095 0.0175 1.17698332796e-05
0.0095 0.0185 9.09692523312e-06
0.0095 0.0195 7.76680101626e-06
0.0095 0.0205 7.07540921454e-06
0.0095 0.0215 6.67032912878e-06
0.0095 0.0225 6.39064070294e-06
0.0095 0.0235 6.16918144165e-06
0.0095 0.0245 5.96930171196e-06
0.0095 0.0255 5.75836222489e-06
0.0095 0.0265 5.51172347209e-06
0.0095 0.0275 5.20333987841e-06
0.0095 0.0285 4.88367872261e-06
0.0095 0.0295 4.42927074393e-06
0.0095 0.0305 4.74027403072e-06
0.0095 0.0315 2.74156509335e-06
0.0105 -0.0315 4.06250219152e-06
0.0105 -0.0305 6.44729219654e-06
0.0105 -0.0295 5.12853688326e-06
0.0105 -0.0285 5.41031129186e-06
0.0105 -0.0275 5.79789027982e-06
0.0105 -0.0265 6.6804242817e-06
0.0105 -0.0255 8.76199185186e-06
0.0105 -0.0245 1.42280164046e-05
0.0105 -0.0235 2.97834750721e-05
0.0105 -0.0225 7.69122344822e-05
0.0105 -0.0215 0.000273637673798
0.0105 -0.0205 0.000940063698415
0.0105 -0.0195 0.00300997262053
0.0105 -0.0185 0.00713308855773
0.0105 -0.0175 0.0103998883205
0.0105 -0.0165 0.00888835018642
0.0105 -0.0155 0.00450855490186
0.0105 -0.0145 0.00155737756571
0.0105 -0.0135 0.000494962019818
0.0105 -0.0125 0.000155948773819
0.0105 -0.0115 7.23140442839e-05
0.0105 -0.0105 4.58529917174e-05
0.0105 -0.0095 3.67997787732e-05
0.0105 -0.0085 3.30276984182e-05
0.0105 -0.0075 3.06966879075e-05
0.0105 -0.0065 2.95240752065e-05
0.0105 -0.0055 3.11990846839e-05
0.0105 -0.0045 3.91021583409e-05
0.0105 -0.0035 6.11615352029e-05
0.0105 -0.0025 0.000122502827834
0.0105 -0.0015 0.000289218670282
0.0105 -0.0005 0.000714331990994
0.0105 0.0005 0.00179910733513
0.0105 0.0015 0.00437926109337
0.0105 0.0025 0.00876053998219
0.0105 0.0035 0.0133602074026
0.0105 0.0045 0.0157427821797
0.0105 0.0055 0.0147717134714
0.0105 0.0065 0.0112255528679
0.0105 0.0075 0.00699221302672
0.0105 0.0085 0.00376843809748
0.0105 0.0095 0.00203584152651
0.0105 0.0105 0.00123784247249
0.0105 0.0115 0.000784093977749
0.0105 0.0125 0.00046375703465
0.0105 0.0135 0.000261632804303
0.0105 0.0145 0.000139445274259
0.0105 0.0155 6.68571809343e-05
0.0105 0.0165 3.52637249141e-05
0.0105 0.0175 2.0347184851e-05
0.0105 0.0185 1.32689397518e-05
0.0105 0.0195 9.77463992926e-06
0.0105 0.0205 8.01968027779e-06
0.0105 0.0215 7.06349986559e-06
0.0105 0.0225 6.5002160152e-06
0.0105 0.0235 6.14840765815e-06
0.0105 0.0245 5.90149748434e-06
0.0105 0.0255 5.68507936652e-06
0.0105 0.0265 5.45243856007e-06
0.0105 0.0275 5.16629238999e-06
0.0105 0.0285 4.86832037506e-06
0.0105 0.0295 4.42569625767e-06
0.0105 0.0305 4.69650283818e-06
0.0105 0.0315 2.69781111964e-06
0.0115 -0.0315 4.17300983347e-06
0.0115 -0.0305 6.5806510605e-06
0.0115 -0.0295 5.15830203059e-06
0.0115 -0.0285 5.43186438975e-06
0.0115 -0.0275 5.88508582139e-06
0.0115 -0.0265 7.02691096464e-06
0.0115 -0.0255 9.85458592316e-06
0.0115 -0.0245 1.75396612422e-05
0.0115 -0.0235 4.10351332799e-05
0.0115 -0.0225 0.000118730758176
0.0115 -0.0215 0.000409979312053
0.0115 -0.0205 0.0013936659393
0.0115 -0.0195 0.00416540746389
0.0115 -0.0185 0.00843928337361
0.0115 -0.0175 0.0103948138884
0.0115 -0.0165 0.00753717384298
0.0115 -0.0155 0.00332377616389
0.0115 -0.0145 0.00111187419965
0.0115 -0.0135 0.000359330273268
0.0115 -0.0125 0.000113834885035
0.0115 -0.0115 5.06507286623e-05
0.0115 -0.0105 3.08167465765e-05
0.0115 -0.0095 2.42173226727e-05
0.0115 -0.0085 2.14217619485e-05
0.0115 -0.0075 1.98217763916e-05
0.0115 -0.0065 1.90394035102e-05
0.0115 -0.0055 1.97819580032e-05
0.0115 -0.0045 2.3552655716e-05
0.0115 -0.0035 3.35416760432e-05
0.0115 -0.0025 5.79521056988e-05
0.0115 -0.0015 0.000121319031728
0.0115 -0.0005 0.000295555961267
0.0115 0.0005 0.000758261853035
0.0115 0.0015 0.00195139240725
0.0115 0.0025 0.00472051013293
0.0115 0.0035 0.00916228487752
0.0115 0.0045 0.0134228317777
0.0115 0.0055 0.0151903295678
0.0115 0.0065 0.0138871795177
0.0115 0.0075 0.0106576525443
0.0115 0.0085 0.00721719032091
0.0115 0.0095 0.0047819081599
0.0115 0.0105 0.00336146084821
0.0115 0.0115 0.0023778813277
0.0115 0.0125 0.00154479127091
0.0115 0.0135 0.00089599678132
0.0115 0.0145 0.000456834212165
0.0115 0.0155 0.000196193199941
0.0115 0.0165 8.20351633632e-05
0.0115 0.0175 3.97203909572e-05
0.0115 0.0185 2.13581345287e-05
0.0115 0.0195 1.33868088298e-05
0.0115 0.0205 9.61085148109e-06
0.0115 0.0215 7.6765096698e-06
0.0115 0.0225 6.67358289098e-06
0.0115 0.0235 6.15215023795e-06
0.0115 0.0245 5.85803619485e-06
0.0115 0.0255 5.64548569622e-06
0.0115 0.0265 5.4346643482e-06
0.0115 0.0275 5.1738703388e-06
0.0115 0.0285 4.89446994945e-06
0.0115 0.0295 4.45546574409e-06
0.0115 0.0305 4.6492386699e-06
0.0115 0.0315 2.63670955357e-06
0.0125 -0.0315 4.2779342923e-06
0.0125 -0.0305 6.7128225991e-06
0.0125 -0.0295 5.20446703948e-06
0.0125 -0.0285 5.48482657158e-06
0.0125 -0.0275 6.0384635065e-06
0.0125 -0.0265 7.53666176921e-06
0.0125 -0.0255 1.13362520674e-05
0.0125 -0.0245 2.19293272965e-05
0.0125 -0.0235 5.54469522438e-05
0.0125 -0.0225 0.000186395265496
0.0125 -0.0215 0.000626617771326
0.0125 -0.0205 0.0020421572391
0.0125 -0.0195 0.00546131275269
0.0125 -0.0185 0.00944370371204
0.0125 -0.0175 0.00987396101531
0.0125 -0.0165 0.00614426057352
0.0125 -0.0155 0.00240873257058
0.0125 -0.0145 0.000793828543016
0.0125 -0.0135 0.000262379969285
0.0125 -0.0125 9.00127889254e-05
0.0125 -0.0115 4.17378552512e-05
0.0125 -0.0105 2.56919856652e-05
0.0125 -0.0095 2.00262082758e-05
0.0125 -0.0085 1.76784734226e-05
0.0125 -0.0075 1.63368835225e-05
0.0125 -0.0065 1.54905128108e-05
0.0125 -0.0055 1.54704116591e-05
0.0125 -0.0045 1.70782957723e-05
0.0125 -0.0035 2.17679749458e-05
0.0125 -0.0025 3.26509909609e-05
0.0125 -0.0015 5.83682611978e-05
0.0125 -0.0005 0.000124950179229
0.0125 0.0005 0.000329392788538
0.0125 0.0015 0.000856134302368
0.0125 0.0025 0.0021992578504
0.0125 0.0035 0.00522267657109
0.0125 0.0045 0.00960980469987
0.0125 0.0055 0.0131087347755
0.0125 0.0065 0.0139713403096
0.0125 0.0075 0.012540560298
0.0125 0.0085 0.010284754035
0.0125 0.0095 0.00846831041531
0.0125 0.0105 0.00721565498674
0.0125 0.0115 0.00597102075666
0.0125 0.0125 0.00440424180214
0.0125 0.0135 0.00269835289839
0.0125 0.0145 0.00135185205949
0.0125 0.0155 0.000579778006149
0.0125 0.0165 0.000219618459463
0.0125 0.0175 8.10984411473e-05
0.0125 0.0185 3.74623364239e-05
0.0125 0.0195 2.06348505492e-05
0.0125 0.0205 1.2699043305e-05
0.0125 0.0215 8.89247735566e-06
0.0125 0.0225 7.12048244791e-06
0.0125 0.0235 6.30078845554e-06
0.0125 0.0245 5.90880669125e-06
0.0125 0.0255 5.67852680973e-06
0.0125 0.0265 5.47868387132e-06
0.0125 0.0275 5.23598565748e-06
0.0125 0.0285 4.96867270603e-06
0.0125 0.0295 4.5256691039e-06
0.0125 0.0305 4.64739700933e-06
0.0125 0.0315 2.60397113852e-06
0.0135 -0.0315 4.38419800441e-06
0.0135 -0.0305 6.85614295559e-06
0.0135 -0.0295 5.28136842745e-06
0.0135 -0.0285 5.59168292713e-06
0.0135 -0.0275 6.29968697554e-06
0.0135 -0.0265 8.29148883131e-06
0.0135 -0.0255 1.34531814632e-05
0.0135 -0.0245 2.80017430399e-05
0.0135 -0.0235 7.2862875797e-05
0.0135 -0.0225 0.000263249415719
0.0135 -0.0215 0.000912385726778
0.0135 -0.0205 0.00290266747456
0.0135 -0.0195 0.00681339859705
0.0135 -0.0185 0.0100459816348
0.0135 -0.0175 0.00894200277195
0.0135 -0.0165 0.00480179295498
0.0135 -0.0155 0.00169875110784
0.0135 -0.0145 0.000541603606705
0.0135 -0.0135 0.000187800193684
0.0135 -0.0125 7.70804093132e-05
0.0135 -0.0115 3.89843727755e-05
0.0135 -0.0105 2.4926802043e-05
0.0135 -0.0095 1.9544462971e-05
0.0135 -0.0085 1.7248183194e-05
0.0135 -0.0075 1.58570799048e-05
0.0135 -0.0065 1.47719140342e-05
0.0135 -0.0055 1.41274950702e-05
0.0135 -0.0045 1.44095132008e-05
0.0135 -0.0035 1.64462069127e-05
0.0135 -0.0025 2.17897361465e-05
0.0135 -0.0015 3.39989624521e-05
0.0135 -0.0005 6.37234241748e-05
0.0135 0.0005 0.000148689510682
0.0135 0.0015 0.000398771989637
0.0135 0.0025 0.00103644479047
0.0135 0.0035 0.00268698845156
0.0135 0.0045 0.0059802289479
0.0135 0.0055 0.00974219966721
0.0135 0.0065 0.0117711774811
0.0135 0.0075 0.0116700792927
0.0135 0.0085 0.0108523751845
0.0135 0.0095 0.0105658552117
0.0135 0.0105 0.0106227744797
0.0135 0.0115 0.0102430151371
0.0135 0.0125 0.00888546512772
0.0135 0.0135 0.00640382840434
0.0135 0.0145 0.00354099672285
0.0135 0.0155 0.0014837847427
0.0135 0.0165 0.00051144189893
0.0135 0.0175 0.00017080288994
0.0135 0.0185 7.68855402265e-05
0.0135 0.0195 3.65856654463e-05
0.0135 0.0205 1.89358367433e-05
0.0135 0.0215 1.1463652314e-05
0.0135 0.0225 8.20311836142e-06
0.0135 0.0235 6.77442395222e-06
0.0135 0.0245 6.14149869939e-06
0.0135 0.0255 5.82625454932e-06
0.0135 0.0265 5.60468983332e-06
0.0135 0.0275 5.36306949454e-06
0.0135 0.0285 5.09794331782e-06
0.0135 0.0295 4.64187104979e-06
0.0135 0.0305 4.71701813161e-06
0.0135 0.0315 2.62369140891e-06
0.0145 -0.0315 4.49930170304e-06
0.0145 -0.0305 7.0263931363e-06
0.0145 -0.0295 5.41056285677e-06
0.0145 -0.0285 5.78944387014e-06
0.0145 -0.0275 6.74722820372e-06
0.0145 -0.0265 9.45583593136e-06
0.0145 -0.0255 1.66298189601e-05
0.0145 -0.0245 3.78144124789e-05
0.0145 -0.0235 0.000103602637428
0.0145 -0.0225 0.000368533525182
0.0145 -0.0215 0.00130895264355
0.0145 -0.0205 0.0039763307683
0.0145 -0.0195 0.00809707922047
0.0145 -0.0185 0.0101597350703
0.0145 -0.0175 0.00769739951758
0.0145 -0.0165 0.00358556920812
0.0145 -0.0155 0.00120185863148
0.0145 -0.0145 0.000392291502131
0.0145 -0.0135 0.00014745500339
0.0145 -0.0125 7.15928224593e-05
0.0145 -0.0115 3.94879403783e-05
0.0145 -0.0105 2.61941726492e-05
0.0145 -0.0095 2.07657148624e-05
0.0145 -0.0085 1.82999959048e-05
0.0145 -0.0075 1.66968875289e-05
0.0145 -0.0065 1.53283380197e-05
0.0145 -0.0055 1.42183108602e-05
0.0145 -0.0045 1.36925155006e-05
0.0145 -0.0035 1.43237442953e-05
0.0145 -0.0025 1.71661988287e-05