% Model:              模型结构导入comsolBench极细.mph
% Version:            COMSOL 6.2.0.339
% Date:               May 29 2026, 14:55
% Dimension:          2
% Nodes:              4096
% Expressions:        1
% Description:        温度
% Length unit:        m
% x                       y                        T (K)
5.0E-4                    -0.0315                  295.126664121203
5.0E-4                    -0.0305                  295.98010553744365
5.0E-4                    -0.0295                  296.05477594796935
5.0E-4                    -0.0285                  295.7477580726544
5.0E-4                    -0.0275                  295.3276915650973
5.0E-4                    -0.0265                  294.49229681990846
5.0E-4                    -0.0255                  293.22193200640845
5.0E-4                    -0.0245                  293.1506838852863
5.0E-4                    -0.0235                  293.1468637046327
5.0E-4                    -0.0225                  294.1143725158946
5.0E-4                    -0.0215                  309.5161346851117
5.0E-4                    -0.0205                  314.0720559696252
5.0E-4                    -0.0195                  315.02626597417185
5.0E-4                    -0.0185                  315.43985214101434
5.0E-4                    -0.0175                  315.6939202417076
5.0E-4                    -0.0165                  315.9625447787762
5.0E-4                    -0.0155                  316.2822433082474
5.0E-4                    -0.0145                  316.66321702655944
5.0E-4                    -0.0135                  317.0640275709687
5.0E-4                    -0.0125                  317.4327834390896
5.0E-4                    -0.0115                  317.78319782485056
5.0E-4                    -0.0105                  318.1460173406966
5.0E-4                    -0.0095                  318.55200622158605
5.0E-4                    -0.0085                  318.8227991728778
5.0E-4                    -0.0075                  318.2061665976494
5.0E-4                    -0.0065                  318.19169672488937
5.0E-4                    -0.0055                  318.1757487264486
5.0E-4                    -0.0045                  318.15760442950966
5.0E-4                    -0.0035                  318.13702195570664
5.0E-4                    -0.0025                  318.11485612829557
5.0E-4                    -0.0015                  318.09223557920444
5.0E-4                    -5.0E-4                  318.07004084649486
5.0E-4                    5.0E-4                   318.04878601842057
5.0E-4                    0.0015                   318.0288726487878
5.0E-4                    0.0025                   318.0103457488088
5.0E-4                    0.0035                   317.9932232929464
5.0E-4                    0.0045                   317.9776309269939
5.0E-4                    0.0055                   317.9636387036579
5.0E-4                    0.0065                   317.95111142726546
5.0E-4                    0.0075                   317.93992273904905
5.0E-4                    0.0085                   317.93001151490495
5.0E-4                    0.0095                   317.92127365447624
5.0E-4                    0.0105                   317.91346656008557
5.0E-4                    0.0115                   317.9064191413272
5.0E-4                    0.0125                   317.9000225521504
5.0E-4                    0.0135                   317.8941627089357
5.0E-4                    0.0145                   317.88869950811517
5.0E-4                    0.0155                   317.8835558592268
5.0E-4                    0.0165                   317.87870216528626
5.0E-4                    0.0175                   317.8741213508955
5.0E-4                    0.0185                   317.8697864098142
5.0E-4                    0.0195                   317.86569715118833
5.0E-4                    0.0205                   317.86187992432457
5.0E-4                    0.0215                   317.8583550092661
5.0E-4                    0.0225                   317.8551127835916
5.0E-4                    0.0235                   317.8521602786149
5.0E-4                    0.0245                   317.84952701577356
5.0E-4                    0.0255                   317.84722728638747
5.0E-4                    0.0265                   317.84523988709077
5.0E-4                    0.0275                   317.84356893532197
5.0E-4                    0.0285                   317.8422453870585
5.0E-4                    0.0295                   317.8412598704236
5.0E-4                    0.0305                   317.84057979573754
5.0E-4                    0.0315                   317.8403485509236
0.0015                    -0.0315                  295.11538733468257
0.0015                    -0.0305                  295.9625120040671
0.0015                    -0.0295                  296.19158202603546
0.0015                    -0.0285                  295.9989826887357
0.0015                    -0.0275                  294.73133264763544
0.0015                    -0.0265                  294.1378451444235
0.0015                    -0.0255                  293.2480124532668
0.0015                    -0.0245                  293.15149947105976
0.0015                    -0.0235                  293.1397832764401
0.0015                    -0.0225                  294.5748325328224
0.0015                    -0.0215                  308.3987435350624
0.0015                    -0.0205                  312.3769646756948
0.0015                    -0.0195                  315.4108942120775
0.0015                    -0.0185                  316.8529269588071
0.0015                    -0.0175                  316.97781074569
0.0015                    -0.0165                  316.72222429777935
0.0015                    -0.0155                  316.58358204780416
0.0015                    -0.0145                  316.6493545991398
0.0015                    -0.0135                  316.89477804148055
0.0015                    -0.0125                  317.1913297342243
0.0015                    -0.0115                  317.5089934387436
0.0015                    -0.0105                  317.8377025168838
0.0015                    -0.0095                  318.2017905362111
0.0015                    -0.0085                  318.60717942155986
0.0015                    -0.0075                  318.86714703841744
0.0015                    -0.0065                  318.6957032196623
0.0015                    -0.0055                  318.173979555214
0.0015                    -0.0045                  318.15515055820447
0.0015                    -0.0035                  318.13318865356047
0.0015                    -0.0025                  318.1102841288282
0.0015                    -0.0015                  318.0865885323775
0.0015                    -5.0E-4                  318.06374232199846
0.0015                    5.0E-4                   318.04235086509254
0.0015                    0.0015                   318.02226878437904
0.0015                    0.0025                   318.00361778592054
0.0015                    0.0035                   317.98649714040283
0.0015                    0.0045                   317.9709480254993
0.0015                    0.0055                   317.9569134838211
0.0015                    0.0065                   317.9444680819647
0.0015                    0.0075                   317.9334696252296
0.0015                    0.0085                   317.92374276533565
0.0015                    0.0095                   317.9150974022215
0.0015                    0.0105                   317.9074665182404
0.0015                    0.0115                   317.9006081730958
0.0015                    0.0125                   317.894353009665
0.0015                    0.0135                   317.88856673678924
0.0015                    0.0145                   317.8831855122951
0.0015                    0.0155                   317.87810423303216
0.0015                    0.0165                   317.8732789049734
0.0015                    0.0175                   317.868688164051
0.0015                    0.0185                   317.86434596291747
0.0015                    0.0195                   317.8602597905809
0.0015                    0.0205                   317.856435466444
0.0015                    0.0215                   317.8528784581503
0.0015                    0.0225                   317.84962269843027
0.0015                    0.0235                   317.84667927742123
0.0015                    0.0245                   317.84404436706086
0.0015                    0.0255                   317.84171782022133
0.0015                    0.0265                   317.8397263079996
0.0015                    0.0275                   317.83808265940377
0.0015                    0.0285                   317.83675702076323
0.0015                    0.0295                   317.83575624207816
0.0015                    0.0305                   317.8352050158499
0.0015                    0.0315                   317.8346624988294
0.0025                    -0.0315                  295.0938663240774
0.0025                    -0.0305                  295.6922706659738
0.0025                    -0.0295                  296.3764793702297
0.0025                    -0.0285                  295.6621308250963
0.0025                    -0.0275                  294.279755839941
0.0025                    -0.0265                  293.9948152067252
0.0025                    -0.0255                  293.25580970400483
0.0025                    -0.0245                  293.1543185036229
0.0025                    -0.0235                  293.15040475675926
0.0025                    -0.0225                  295.34527107510513
0.0025                    -0.0215                  307.13367654387457
0.0025                    -0.0205                  310.5240550746877
0.0025                    -0.0195                  314.4757401118355
0.0025                    -0.0185                  317.236103264897
0.0025                    -0.0175                  317.97957183778146
0.0025                    -0.0165                  317.74577708895987
0.0025                    -0.0155                  317.37150984727
0.0025                    -0.0145                  317.2518870775956
0.0025                    -0.0135                  317.39896914138717
0.0025                    -0.0125                  317.68715980015855
0.0025                    -0.0115                  317.958197075624
0.0025                    -0.0105                  318.2236079783569
0.0025                    -0.0095                  318.44487207759505
0.0025                    -0.0085                  318.714271226505
0.0025                    -0.0075                  318.989294421976
0.0025                    -0.0065                  319.1446395036753
0.0025                    -0.0055                  318.8677849697684
0.0025                    -0.0045                  318.5414785363539
0.0025                    -0.0035                  318.1262734816344
0.0025                    -0.0025                  318.10148745033905
0.0025                    -0.0015                  318.07471325044725
0.0025                    -5.0E-4                  318.05133052063564
0.0025                    5.0E-4                   318.02968590471926
0.0025                    0.0015                   318.00941014039176
0.0025                    0.0025                   317.9904200854498
0.0025                    0.0035                   317.9732546400185
0.0025                    0.0045                   317.9577002997154
0.0025                    0.0055                   317.94378883789943
0.0025                    0.0065                   317.9314915647538
0.0025                    0.0075                   317.92081019024806
0.0025                    0.0085                   317.91143304670277
0.0025                    0.0095                   317.9031291813751
0.0025                    0.0105                   317.8957701367897
0.0025                    0.0115                   317.88923170242686
0.0025                    0.0125                   317.8832402740949
0.0025                    0.0135                   317.8776653929956
0.0025                    0.0145                   317.8724059546069
0.0025                    0.0155                   317.8674207360642
0.0025                    0.0165                   317.86263963009264
0.0025                    0.0175                   317.8580567856865
0.0025                    0.0185                   317.8536953705749
0.0025                    0.0195                   317.8495900159711
0.0025                    0.0205                   317.8457359793034
0.0025                    0.0215                   317.84215090146375
0.0025                    0.0225                   317.83886883735715
0.0025                    0.0235                   317.8359143651519
0.0025                    0.0245                   317.83326593326194
0.0025                    0.0255                   317.8309269784408
0.0025                    0.0265                   317.8289299344525
0.0025                    0.0275                   317.827232848613
0.0025                    0.0285                   317.82581830487953
0.0025                    0.0295                   317.8249512346553
0.0025                    0.0305                   317.82430986421616
0.0025                    0.0315                   317.8237651943721
0.0035                    -0.0315                  295.0693126641161
0.0035                    -0.0305                  295.06744899778755
0.0035                    -0.0295                  295.9689302037165
0.0035                    -0.0285                  294.8421081081758
0.0035                    -0.0275                  294.0649302801249
0.0035                    -0.0265                  293.87153278551364
0.0035                    -0.0255                  293.26277567468526
0.0035                    -0.0245                  293.1555914487032
0.0035                    -0.0235                  293.21431418164883
0.0035                    -0.0225                  295.33652720327075
0.0035                    -0.0215                  305.8617820605169
0.0035                    -0.0205                  309.25482794158864
0.0035                    -0.0195                  312.6709754077707
0.0035                    -0.0185                  316.11337741754596
0.0035                    -0.0175                  317.63426092657664
0.0035                    -0.0165                  317.8270969854054
0.0035                    -0.0155                  317.6945685293397
0.0035                    -0.0145                  317.7103150394929
0.0035                    -0.0135                  317.5240834987946
0.0035                    -0.0125                  317.5565628259795
0.0035                    -0.0115                  317.3983619935211
0.0035                    -0.0105                  317.22801167067007
0.0035                    -0.0095                  317.218040576867
0.0035                    -0.0085                  317.4497539225522
0.0035                    -0.0075                  317.421509531476
0.0035                    -0.0065                  317.53616389083936
0.0035                    -0.0055                  317.74323154831035
0.0035                    -0.0045                  317.93572335336086
0.0035                    -0.0035                  317.8573468046974
0.0035                    -0.0025                  317.9588079397569
0.0035                    -0.0015                  318.05452095898374
0.0035                    -5.0E-4                  318.0315762435818
0.0035                    5.0E-4                   318.0103873858487
0.0035                    0.0015                   317.98988990425255
0.0035                    0.0025                   317.9705700587948
0.0035                    0.0035                   317.95293999771263
0.0035                    0.0045                   317.9372882678529
0.0035                    0.0055                   317.92351201611376
0.0035                    0.0065                   317.9116808481016
0.0035                    0.0075                   317.90125057440093
0.0035                    0.0085                   317.8923957659789
0.0035                    0.0095                   317.88467413949206
0.0035                    0.0105                   317.87790065733196
0.0035                    0.0115                   317.87181164613554
0.0035                    0.0125                   317.8662852694383
0.0035                    0.0135                   317.8610562036973
0.0035                    0.0145                   317.85601793793927
0.0035                    0.0155                   317.8511350143756
0.0035                    0.0165                   317.8464004585905
0.0035                    0.0175                   317.84181787283455
0.0035                    0.0185                   317.8374310110254
0.0035                    0.0195                   317.8332647588623
0.0035                    0.0205                   317.8293568385727
0.0035                    0.0215                   317.8257408526206
0.0035                    0.0225                   317.8224328180615
0.0035                    0.0235                   317.8194322299906
0.0035                    0.0245                   317.81676361853596
0.0035                    0.0255                   317.8144307579439
0.0035                    0.0265                   317.8124233679223
0.0035                    0.0275                   317.8107712074339
0.0035                    0.0285                   317.80965520105
0.0035                    0.0295                   317.8083035034429
0.0035                    0.0305                   317.8077604500649
0.0035                    0.0315                   317.80760056181674
0.0045                    -0.0315                  295.0424776071445
0.0045                    -0.0305                  295.0416555464177
0.0045                    -0.0295                  295.34576407213484
0.0045                    -0.0285                  294.45425798381314
0.0045                    -0.0275                  293.9238459870528
0.0045                    -0.0265                  293.81144722698957
0.0045                    -0.0255                  293.28278129504747
0.0045                    -0.0245                  293.1561196136062
0.0045                    -0.0235                  293.22180461921937
0.0045                    -0.0225                  296.43083592256164
0.0045                    -0.0215                  305.5827153168047
0.0045                    -0.0205                  308.27649011844346
0.0045                    -0.0195                  310.61240508920446
0.0045                    -0.0185                  313.2808818613798
0.0045                    -0.0175                  315.16101877393703
0.0045                    -0.0165                  315.63079910719046
0.0045                    -0.0155                  315.4150747462167
0.0045                    -0.0145                  314.7874644156629
0.0045                    -0.0135                  314.03421831202155
0.0045                    -0.0125                  313.2879484029436
0.0045                    -0.0115                  312.6807206120652
0.0045                    -0.0105                  312.13421831871597
0.0045                    -0.0095                  311.8629972555767
0.0045                    -0.0085                  311.6557417697795
0.0045                    -0.0075                  311.8700202100565
0.0045                    -0.0065                  312.23653810570744
0.0045                    -0.0055                  312.79454065240714
0.0045                    -0.0045                  313.63808600465137
0.0045                    -0.0035                  314.6600423127668
0.0045                    -0.0025                  315.78844923090867
0.0045                    -0.0015                  317.0751265089749
0.0045                    -5.0E-4                  318.003804805703
0.0045                    5.0E-4                   317.98617844842386
0.0045                    0.0015                   317.9634818882646
0.0045                    0.0025                   317.9437103251645
0.0045                    0.0035                   317.9259604050981
0.0045                    0.0045                   317.91006049677026
0.0045                    0.0055                   317.89675265133474
0.0045                    0.0065                   317.8853754333028
0.0045                    0.0075                   317.8756896826038
0.0045                    0.0085                   317.86751795260693
0.0045                    0.0095                   317.86064207956827
0.0045                    0.0105                   317.8545614736294
0.0045                    0.0115                   317.84922238255365
0.0045                    0.0125                   317.84425049931906
0.0045                    0.0135                   317.83941212999855
0.0045                    0.0145                   317.8346820058391
0.0045                    0.0155                   317.8299562993742
0.0045                    0.0165                   317.8252475575515
0.0045                    0.0175                   317.8206430719085
0.0045                    0.0185                   317.8161879867573
0.0045                    0.0195                   317.811934723193
0.0045                    0.0205                   317.80794758285634
0.0045                    0.0215                   317.8042786370227
0.0045                    0.0225                   317.8009202892734
0.0045                    0.0235                   317.79788217827536
0.0045                    0.0245                   317.79520082860313
0.0045                    0.0255                   317.7928680103837
0.0045                    0.0265                   317.7908494171594
0.0045                    0.0275                   317.7891227557887
0.0045                    0.0285                   317.787668832157
0.0045                    0.0295                   317.7864642187474
0.0045                    0.0305                   317.7859094648551
0.0045                    0.0315                   317.7857275051707
0.0055                    -0.0315                  295.01248682303697
0.0055                    -0.0305                  295.0061077088992
0.0055                    -0.0295                  295.0638260621587
0.0055                    -0.0285                  294.23380375422755
0.0055                    -0.0275                  293.8675199279844
0.0055                    -0.0265                  293.7822285729332
0.0055                    -0.0255                  293.28335126340653
0.0055                    -0.0245                  293.1564075706857
0.0055                    -0.0235                  293.3221067138338
0.0055                    -0.0225                  296.4966987572664
0.0055                    -0.0215                  305.08519740016095
0.0055                    -0.0205                  307.7913182702216
0.0055                    -0.0195                  308.9249873511789
0.0055                    -0.0185                  310.318332397425
0.0055                    -0.0175                  311.0163247982912
0.0055                    -0.0165                  311.02796841285885
0.0055                    -0.0155                  310.6175601821595
0.0055                    -0.0145                  309.8548628263509
0.0055                    -0.0135                  309.2120047715218
0.0055                    -0.0125                  308.8670124219407
0.0055                    -0.0115                  308.43818655232343
0.0055                    -0.0105                  308.2235855127407
0.0055                    -0.0095                  308.11868409287877
0.0055                    -0.0085                  308.08894990956276
0.0055                    -0.0075                  308.07650029438446
0.0055                    -0.0065                  308.1983019538734
0.0055                    -0.0055                  308.4766146197495
0.0055                    -0.0045                  308.96436952770796
0.0055                    -0.0035                  309.6424266281509
0.0055                    -0.0025                  310.7208488892869
0.0055                    -0.0015                  312.2400470744329
0.0055                    -5.0E-4                  314.2534336449094
0.0055                    5.0E-4                   316.44094998024843
0.0055                    0.0015                   317.9251036887081
0.0055                    0.0025                   317.9110599205933
0.0055                    0.0035                   317.8907983668545
0.0055                    0.0045                   317.87515632343684
0.0055                    0.0055                   317.86264784712864
0.0055                    0.0065                   317.85217734535314
0.0055                    0.0075                   317.84357574468464
0.0055                    0.0085                   317.83617888394383
0.0055                    0.0095                   317.8300273026505
0.0055                    0.0105                   317.8249450553508
0.0055                    0.0115                   317.82075900020584
0.0055                    0.0125                   317.8166958343129
0.0055                    0.0135                   317.8122893441397
0.0055                    0.0145                   317.80779634294265
0.0055                    0.0155                   317.8031680456008
0.0055                    0.0165                   317.79841467947733
0.0055                    0.0175                   317.7936892933935
0.0055                    0.0185                   317.7890964003532
0.0055                    0.0195                   317.7847185759241
0.0055                    0.0205                   317.7806433801348
0.0055                    0.0215                   317.77687931144874
0.0055                    0.0225                   317.77345648655
0.0055                    0.0235                   317.7703898756808
0.0055                    0.0245                   317.7676772867766
0.0055                    0.0255                   317.7653159606117
0.0055                    0.0265                   317.76332479752426
0.0055                    0.0275                   317.7615384978143
0.0055                    0.0285                   317.7603342196192
0.0055                    0.0295                   317.7593682024845
0.0055                    0.0305                   317.7587291953175
0.0055                    0.0315                   317.7581913845045
0.0065                    -0.0315                  294.98339235409026
0.0065                    -0.0305                  294.97276174140256
0.0065                    -0.0295                  294.9482266691427
0.0065                    -0.0285                  294.15548535861353
0.0065                    -0.0275                  293.84764758858313
0.0065                    -0.0265                  293.7246857577379
0.0065                    -0.0255                  293.269616432014
0.0065                    -0.0245                  293.1588310049598
0.0065                    -0.0235                  293.4715637490401
0.0065                    -0.0225                  296.63609131934163
0.0065                    -0.0215                  304.78082967277714
0.0065                    -0.0205                  307.4169425589241
0.0065                    -0.0195                  307.84782539352534
0.0065                    -0.0185                  308.2150065819277
0.0065                    -0.0175                  308.2907764261363
0.0065                    -0.0165                  308.079480791114
0.0065                    -0.0155                  307.73236625843987
0.0065                    -0.0145                  307.4889008689084
0.0065                    -0.0135                  307.32849408539903
0.0065                    -0.0125                  307.1263535395684
0.0065                    -0.0115                  307.00771484013114
0.0065                    -0.0105                  306.93294650687176
0.0065                    -0.0095                  306.9219278196924
0.0065                    -0.0085                  306.897726309862
0.0065                    -0.0075                  306.88565776946643
0.0065                    -0.0065                  306.9027223599544
0.0065                    -0.0055                  306.9601530675013
0.0065                    -0.0045                  307.05353116105806
0.0065                    -0.0035                  307.2788989587278
0.0065                    -0.0025                  307.55490007253155
0.0065                    -0.0015                  308.06460373151447
0.0065                    -5.0E-4                  309.0642647387988
0.0065                    5.0E-4                   310.5860309478021
0.0065                    0.0015                   313.0780328341708
0.0065                    0.0025                   315.8785146792069
0.0065                    0.0035                   317.838383149122
0.0065                    0.0045                   317.83379622299503
0.0065                    0.0055                   317.8210059762914
0.0065                    0.0065                   317.81189134049754
0.0065                    0.0075                   317.80464129593196
0.0065                    0.0085                   317.7977934153316
0.0065                    0.0095                   317.79306975596126
0.0065                    0.0105                   317.7900243417953
0.0065                    0.0115                   317.78720366879946