% Model:              模型结构导入comsolBench极细.mph
% Version:            COMSOL 6.2.0.339
% Date:               May 29 2026, 14:45
% Dimension:          2
% Nodes:              4096
% Expressions:        1
% Description:        温度
% Length unit:        m
% x                       y                        T (K)
5.0E-4                    -0.0315                  310.00860288514446
5.0E-4                    -0.0305                  310.00752755081515
5.0E-4                    -0.0295                  310.00554302016724
5.0E-4                    -0.0285                  310.0026920728744
5.0E-4                    -0.0275                  309.99895681412664
5.0E-4                    -0.0265                  309.99441996443
5.0E-4                    -0.0255                  309.9892316755107
5.0E-4                    -0.0245                  309.98348642197914
5.0E-4                    -0.0235                  309.9772710886371
5.0E-4                    -0.0225                  309.97073356354224
5.0E-4                    -0.0215                  309.96402492620916
5.0E-4                    -0.0205                  309.9572763640599
5.0E-4                    -0.0195                  309.95064662126754
5.0E-4                    -0.0185                  309.94429410618943
5.0E-4                    -0.0175                  309.9383717825524
5.0E-4                    -0.0165                  309.9330795942677
5.0E-4                    -0.0155                  309.9286860381061
5.0E-4                    -0.0145                  309.92538500565905
5.0E-4                    -0.0135                  309.92336454000747
5.0E-4                    -0.0125                  309.9229172275878
5.0E-4                    -0.0115                  309.92435760768325
5.0E-4                    -0.0105                  309.92774264165064
5.0E-4                    -0.0095                  309.93308982237215
5.0E-4                    -0.0085                  309.9404612815619
5.0E-4                    -0.0075                  309.94975816679363
5.0E-4                    -0.0065                  309.9605203438939
5.0E-4                    -0.0055                  309.97226041433925
5.0E-4                    -0.0045                  309.98432843288606
5.0E-4                    -0.0035                  309.9959355074297
5.0E-4                    -0.0025                  310.0064663781354
5.0E-4                    -0.0015                  310.014637760035
5.0E-4                    -5.0E-4                  310.7594373534816
5.0E-4                    5.0E-4                   310.8548893054194
5.0E-4                    0.0015                   310.31206235355364
5.0E-4                    0.0025                   309.9297603789307
5.0E-4                    0.0035                   309.6633182086515
5.0E-4                    0.0045                   309.45459549248574
5.0E-4                    0.0055                   309.2788504854846
5.0E-4                    0.0065                   309.1237564463417
5.0E-4                    0.0075                   308.99532154912794
5.0E-4                    0.0085                   308.87314654060094
5.0E-4                    0.0095                   308.7511556627648
5.0E-4                    0.0105                   308.62764381214083
5.0E-4                    0.0115                   308.5010584050209
5.0E-4                    0.0125                   308.3667587669299
5.0E-4                    0.0135                   308.2309634317755
5.0E-4                    0.0145                   308.04637840153964
5.0E-4                    0.0155                   307.8673027625274
5.0E-4                    0.0165                   307.6965217120956
5.0E-4                    0.0175                   307.5663667222963
5.0E-4                    0.0185                   307.4393965453428
5.0E-4                    0.0195                   307.21077325990484
5.0E-4                    0.0205                   306.5031741564628
5.0E-4                    0.0215                   302.42493701403123
5.0E-4                    0.0225                   293.5998733531834
5.0E-4                    0.0235                   293.14831095435716
5.0E-4                    0.0245                   293.15027142078804
5.0E-4                    0.0255                   293.2077902115117
5.0E-4                    0.0265                   294.063238812567
5.0E-4                    0.0275                   294.6825276335561
5.0E-4                    0.0285                   294.91562892170305
5.0E-4                    0.0295                   295.1489647319604
5.0E-4                    0.0305                   295.13035085372314
5.0E-4                    0.0315                   294.41043939209135
0.0015                    -0.0315                  310.0042803296769
0.0015                    -0.0305                  310.00328096003
0.0015                    -0.0295                  310.0013162722448
0.0015                    -0.0285                  309.9983607306733
0.0015                    -0.0275                  309.9945588189372
0.0015                    -0.0265                  309.9899611979532
0.0015                    -0.0255                  309.98464297895555
0.0015                    -0.0245                  309.978748178937
0.0015                    -0.0235                  309.9724184370888
0.0015                    -0.0225                  309.96575296638815
0.0015                    -0.0215                  309.95888063809616
0.0015                    -0.0205                  309.95199270519197
0.0015                    -0.0195                  309.94520600915257
0.0015                    -0.0185                  309.93865719670526
0.0015                    -0.0175                  309.9325316299361
0.0015                    -0.0165                  309.9270730990684
0.0015                    -0.0155                  309.92241725060103
0.0015                    -0.0145                  309.9188100839021
0.0015                    -0.0135                  309.9165638933048
0.0015                    -0.0125                  309.91597925001895
0.0015                    -0.0115                  309.9171586773567
0.0015                    -0.0105                  309.9204017325821
0.0015                    -0.0095                  309.92586101099346
0.0015                    -0.0085                  309.9334508984092
0.0015                    -0.0075                  309.9429408533344
0.0015                    -0.0065                  309.9542812873339
0.0015                    -0.0055                  309.9666753064596
0.0015                    -0.0045                  309.97949222991883
0.0015                    -0.0035                  309.99211578427287
0.0015                    -0.0025                  310.0034645590118
0.0015                    -0.0015                  310.0124990497487
0.0015                    -5.0E-4                  310.6809530735357
0.0015                    5.0E-4                   310.41822614182524
0.0015                    0.0015                   309.9094658678881
0.0015                    0.0025                   309.64941278838256
0.0015                    0.0035                   309.49446513412596
0.0015                    0.0045                   309.38376290066566
0.0015                    0.0055                   309.2920725312753
0.0015                    0.0065                   309.1972479149052
0.0015                    0.0075                   309.08899249737397
0.0015                    0.0085                   308.96455175253413
0.0015                    0.0095                   308.83882368971075
0.0015                    0.0105                   308.7211544552625
0.0015                    0.0115                   308.6009092396341
0.0015                    0.0125                   308.46900670408223
0.0015                    0.0135                   308.3326629154001
0.0015                    0.0145                   308.21270623119125
0.0015                    0.0155                   308.16868239332916
0.0015                    0.0165                   308.2562918478316
0.0015                    0.0175                   308.38254529248775
0.0015                    0.0185                   308.1720602505141
0.0015                    0.0195                   307.24200032901274
0.0015                    0.0205                   305.62961847521035
0.0015                    0.0215                   302.59218531045354
0.0015                    0.0225                   293.80163355050485
0.0015                    0.0235                   293.14293457744634
0.0015                    0.0245                   293.15025268236514
0.0015                    0.0255                   293.24753639341947
0.0015                    0.0265                   293.8590413723646
0.0015                    0.0275                   294.4226776324357
0.0015                    0.0285                   295.22076866738536
0.0015                    0.0295                   295.1850252619113
0.0015                    0.0305                   294.9547309239609
0.0015                    0.0315                   294.4006045802513
0.0025                    -0.0315                  309.99601771664464
0.0025                    -0.0305                  309.99507578987254
0.0025                    -0.0295                  309.99304211825455
0.0025                    -0.0285                  309.98986760470666
0.0025                    -0.0275                  309.9859425722226
0.0025                    -0.0265                  309.98118210888396
0.0025                    -0.0255                  309.97565292599484
0.0025                    -0.0245                  309.96949869299976
0.0025                    -0.0235                  309.96289295348384
0.0025                    -0.0225                  309.9559605029305
0.0025                    -0.0215                  309.9488347670514
0.0025                    -0.0205                  309.9416411962958
0.0025                    -0.0195                  309.9345327828259
0.0025                    -0.0185                  309.92764651972027
0.0025                    -0.0175                  309.92119417695164
0.0025                    -0.0165                  309.9152932041487
0.0025                    -0.0155                  309.91014332474424
0.0025                    -0.0145                  309.9060116414028
0.0025                    -0.0135                  309.90333804962694
0.0025                    -0.0125                  309.90227394149224
0.0025                    -0.0115                  309.90304569933573
0.0025                    -0.0105                  309.9060246320464
0.0025                    -0.0095                  309.91165248949216
0.0025                    -0.0085                  309.9196022730888
0.0025                    -0.0075                  309.929742204754
0.0025                    -0.0065                  309.9418700522891
0.0025                    -0.0055                  309.9555575634406
0.0025                    -0.0045                  309.97012010639685
0.0025                    -0.0035                  309.9842499158036
0.0025                    -0.0025                  309.9976174220491
0.0025                    -0.0015                  310.0089218211129
0.0025                    -5.0E-4                  310.62495712848994
0.0025                    5.0E-4                   310.20567004255844
0.0025                    0.0015                   309.9528689489136
0.0025                    0.0025                   309.89355130268325
0.0025                    0.0035                   309.88565798007505
0.0025                    0.0045                   309.8833661185841
0.0025                    0.0055                   309.7150047266199
0.0025                    0.0065                   309.50928587391013
0.0025                    0.0075                   309.2587692245986
0.0025                    0.0085                   308.8655187206671
0.0025                    0.0095                   308.6655470644274
0.0025                    0.0105                   308.5495350993604
0.0025                    0.0115                   308.5096750731584
0.0025                    0.0125                   308.53074165270044
0.0025                    0.0135                   308.5284955356002
0.0025                    0.0145                   308.4893284513941
0.0025                    0.0155                   308.6274442789716
0.0025                    0.0165                   308.72797192326146
0.0025                    0.0175                   308.66107446601194
0.0025                    0.0185                   307.8755202270022
0.0025                    0.0195                   306.31613006654544
0.0025                    0.0205                   304.3576028521178
0.0025                    0.0215                   301.704954592038
0.0025                    0.0225                   293.8302672076638
0.0025                    0.0235                   293.1426604837295
0.0025                    0.0245                   293.1516433971385
0.0025                    0.0255                   293.28911734631333
0.0025                    0.0265                   293.79064637325524
0.0025                    0.0275                   294.0966554755373
0.0025                    0.0285                   295.28751166027115
0.0025                    0.0295                   295.18363530935596
0.0025                    0.0305                   294.38571374246806
0.0025                    0.0315                   294.38538402968584
0.0035                    -0.0315                  309.9838301980011
0.0035                    -0.0305                  309.98258796276855
0.0035                    -0.0295                  309.9803343298084
0.0035                    -0.0285                  309.9771977554029
0.0035                    -0.0275                  309.97289293112175
0.0035                    -0.0265                  309.9677692207605
0.0035                    -0.0255                  309.9619171801579
0.0035                    -0.0245                  309.9553949083529
0.0035                    -0.0235                  309.94834788304024
0.0035                    -0.0225                  309.94100095101186
0.0035                    -0.0215                  309.9334628750733
0.0035                    -0.0205                  309.92581733027777
0.0035                    -0.0195                  309.9182121113429
0.0035                    -0.0185                  309.9108695078459
0.0035                    -0.0175                  309.90384750392445
0.0035                    -0.0165                  309.89724730603234
0.0035                    -0.0155                  309.8913113797537
0.0035                    -0.0145                  309.8864755829193
0.0035                    -0.0135                  309.8828978959474
0.0035                    -0.0125                  309.8809444698266
0.0035                    -0.0115                  309.8810134301679
0.0035                    -0.0105                  309.88385618595356
0.0035                    -0.0095                  309.8892924906695
0.0035                    -0.0085                  309.89763803856465
0.0035                    -0.0075                  309.90880762992094
0.0035                    -0.0065                  309.9224828975826
0.0035                    -0.0055                  309.9387827901763
0.0035                    -0.0045                  309.95587642306765
0.0035                    -0.0035                  309.9722541617715
0.0035                    -0.0025                  309.98833219471226
0.0035                    -0.0015                  310.3894220167703
0.0035                    -5.0E-4                  310.6562025945343
0.0035                    5.0E-4                   310.3287873141235
0.0035                    0.0015                   310.00217582884625
0.0035                    0.0025                   309.73472636618635
0.0035                    0.0035                   309.0550614322009
0.0035                    0.0045                   308.24844697528613
0.0035                    0.0055                   307.76721259601305
0.0035                    0.0065                   306.99237753462046
0.0035                    0.0075                   306.673897239963
0.0035                    0.0085                   306.47424488257036
0.0035                    0.0095                   306.3518639189482
0.0035                    0.0105                   306.32698431306676
0.0035                    0.0115                   306.42206971194867
0.0035                    0.0125                   306.63379923473195
0.0035                    0.0135                   306.9609386499149
0.0035                    0.0145                   307.2399994952701
0.0035                    0.0155                   307.5310362558051
0.0035                    0.0165                   307.7258074540694
0.0035                    0.0175                   307.43158452590046
0.0035                    0.0185                   306.4939940252972
0.0035                    0.0195                   305.02087857202497
0.0035                    0.0205                   303.5498323687088
0.0035                    0.0215                   300.48339465395566
0.0035                    0.0225                   293.79781168875553
0.0035                    0.0235                   293.1426532291408
0.0035                    0.0245                   293.1546561634803
0.0035                    0.0255                   293.29322643213055
0.0035                    0.0265                   293.7389082035747
0.0035                    0.0275                   293.9301809386716
0.0035                    0.0285                   294.9042295343674
0.0035                    0.0295                   295.0420753144026
0.0035                    0.0305                   294.36576735657
0.0035                    0.0315                   294.36531906402854
0.0045                    -0.0315                  309.96748779562523
0.0045                    -0.0305                  309.9661493115973
0.0045                    -0.0295                  309.9637400956749
0.0045                    -0.0285                  309.96036082604365
0.0045                    -0.0275                  309.9559218897989
0.0045                    -0.0265                  309.95027161403925
0.0045                    -0.0255                  309.94397314600104
0.0045                    -0.0245                  309.9369737619604
0.0045                    -0.0235                  309.9294016289136
0.0045                    -0.0225                  309.92146990324784
0.0045                    -0.0215                  309.91334472222405
0.0045                    -0.0205                  309.90515486644836
0.0045                    -0.0195                  309.8970475513644
0.0045                    -0.0185                  309.8890430376702
0.0045                    -0.0175                  309.8812403261032
0.0045                    -0.0165                  309.87380287572796
0.0045                    -0.0155                  309.86703880353355
0.0045                    -0.0145                  309.86101184779864
0.0045                    -0.0135                  309.856037785409
0.0045                    -0.0125                  309.8528089186742
0.0045                    -0.0115                  309.85216735235315
0.0045                    -0.0105                  309.8540239635648
0.0045                    -0.0095                  309.8597601191501
0.0045                    -0.0085                  309.8682371894838
0.0045                    -0.0075                  309.8802112619171
0.0045                    -0.0065                  309.89589811858855
0.0045                    -0.0055                  309.9151924968895
0.0045                    -0.0045                  309.9378071185845
0.0045                    -0.0035                  309.9557075141535
0.0045                    -0.0025                  309.72860819527784
0.0045                    -0.0015                  309.3462458601487
0.0045                    -5.0E-4                  308.3158603662663
0.0045                    5.0E-4                   307.23914342040837
0.0045                    0.0015                   306.2407428689521
0.0045                    0.0025                   305.2342627376856
0.0045                    0.0035                   304.63846797021233
0.0045                    0.0045                   304.1712919832835
0.0045                    0.0055                   303.8628101157343
0.0045                    0.0065                   303.70443101155695
0.0045                    0.0075                   303.55411919746444
0.0045                    0.0085                   303.5302062516575
0.0045                    0.0095                   303.5237663453961
0.0045                    0.0105                   303.64140966651564
0.0045                    0.0115                   303.81057760245596
0.0045                    0.0125                   304.050720365595
0.0045                    0.0135                   304.3639265193551
0.0045                    0.0145                   304.7113833927051
0.0045                    0.0155                   305.1641481942811
0.0045                    0.0165                   305.42987729836085
0.0045                    0.0175                   305.36377910699946
0.0045                    0.0185                   304.83844006624514
0.0045                    0.0195                   303.96293479304353
0.0045                    0.0205                   303.0362768858216
0.0045                    0.0215                   299.22663106553034
0.0045                    0.0225                   293.91018888332053
0.0045                    0.0235                   293.1586040912969
0.0045                    0.0245                   293.16487076809346
0.0045                    0.0255                   293.32467982152207
0.0045                    0.0265                   293.6805008104404
0.0045                    0.0275                   293.8390129961268
0.0045                    0.0285                   294.32587396183993
0.0045                    0.0295                   294.7613025414654
0.0045                    0.0305                   294.33705705946795
0.0045                    0.0315                   294.34002210540285
0.0055                    -0.0315                  309.9470703554672
0.0055                    -0.0305                  309.9458826642707
0.0055                    -0.0295                  309.9432895979512
0.0055                    -0.0285                  309.93929371348594
0.0055                    -0.0275                  309.9342961787541
0.0055                    -0.0265                  309.9282438618298
0.0055                    -0.0255                  309.9212073835123
0.0055                    -0.0245                  309.9134940017826
0.0055                    -0.0235                  309.90528094476554
0.0055                    -0.0225                  309.8965953381162
0.0055                    -0.0215                  309.8877035912547
0.0055                    -0.0205                  309.87884603337255
0.0055                    -0.0195                  309.87007306759006
0.0055                    -0.0185                  309.861299998407
0.0055                    -0.0175                  309.8527326754248
0.0055                    -0.0165                  309.84433227038244
0.0055                    -0.0155                  309.8362195905037
0.0055                    -0.0145                  309.82854975469775
0.0055                    -0.0135                  309.82217794705866
0.0055                    -0.0125                  309.8174249057494
0.0055                    -0.0115                  309.8146127185391
0.0055                    -0.0105                  309.8155743827791
0.0055                    -0.0095                  309.8205797998797
0.0055                    -0.0085                  309.83074388837593
0.0055                    -0.0075                  309.8434667662557
0.0055                    -0.0065                  309.8592311366537
0.0055                    -0.0055                  309.88347373019985
0.0055                    -0.0045                  309.37750676284935
0.0055                    -0.0035                  308.1408474627717
0.0055                    -0.0025                  306.63713283068466
0.0055                    -0.0015                  305.32622300552015
0.0055                    -5.0E-4                  304.37655739786493
0.0055                    5.0E-4                   303.6794611686093
0.0055                    0.0015                   303.27290751517376
0.0055                    0.0025                   302.960173438065
0.0055                    0.0035                   302.7440768110238
0.0055                    0.0045                   302.5783552422204
0.0055                    0.0055                   302.5103633416064
0.0055                    0.0065                   302.42258924001095
0.0055                    0.0075                   302.3960125243068
0.0055                    0.0085                   302.40448607554714
0.0055                    0.0095                   302.42062480436374
0.0055                    0.0105                   302.45962905558343
0.0055                    0.0115                   302.54051161364345
0.0055                    0.0125                   302.6732105763058
0.0055                    0.0135                   302.8492074529601
0.0055                    0.0145                   303.07800177906074
0.0055                    0.0155                   303.26881428588894
0.0055                    0.0165                   303.5454259421674
0.0055                    0.0175                   303.6965337843103
0.0055                    0.0185                   303.6015984026913
0.0055                    0.0195                   303.2358828632315
0.0055                    0.0205                   302.59027958278904
0.0055                    0.0215                   298.4607285927274
0.0055                    0.0225                   293.70795554167137
0.0055                    0.0235                   293.1615806900596
0.0055                    0.0245                   293.1691038548827
0.0055                    0.0255                   293.3687298670232
0.0055                    0.0265                   293.6476932464981
0.0055                    0.0275                   293.7728892724096
0.0055                    0.0285                   294.12724224052465
0.0055                    0.0295                   294.29671766225124
0.0055                    0.0305                   294.30710277255537
0.0055                    0.0315                   294.31265482113815
0.0065                    -0.0315                  309.92300573589375
0.0065                    -0.0305                  309.9216531129946
0.0065                    -0.0295                  309.9187715822704
0.0065                    -0.0285                  309.91440853408756
0.0065                    -0.0275                  309.9087501206409
0.0065                    -0.0265                  309.90210575890785
0.0065                    -0.0255                  309.8945033260618
0.0065                    -0.0245                  309.8857992590148
0.0065                    -0.0235                  309.8766912363192
0.0065                    -0.0225                  309.8671989109024
0.0065                    -0.0215                  309.85749791783337
0.0065                    -0.0205                  309.8478596142529
0.0065                    -0.0195                  309.83816164534596
0.0065                    -0.0185                  309.82886590294106
0.0065                    -0.0175                  309.81930261052787
0.0065                    -0.0165                  309.8096086304113
0.0065                    -0.0155                  309.80006256581976
0.0065                    -0.0145                  309.7903637521556
0.0065                    -0.0135                  309.78119573771954
0.0065                    -0.0125                  309.77414281075875
0.0065                    -0.0115                  309.7690362518416
0.0065                    -0.0105                  309.76685829937526
0.0065                    -0.0095                  309.771735578499
0.0065                    -0.0085                  309.7850462995603
0.0065                    -0.0075                  309.8012350349152
0.0065                    -0.0065                  309.8067323607982
0.0065                    -0.0055                  308.5033047582485
0.0065                    -0.0045                  306.29622685185035
0.0065                    -0.0035                  304.6100095236602
0.0065                    -0.0025                  303.58729668718433
0.0065                    -0.0015                  302.99949997169233
0.0065                    -5.0E-4                  302.5820637216858
0.0065                    5.0E-4                   302.3855596666432
0.0065                    0.0015                   302.25518356080835
0.0065                    0.0025                   302.14991277404636
0.0065                    0.0035                   302.11399990036006
0.0065                    0.0045                   302.1135290193834
0.0065                    0.0055                   302.1070924491811
0.0065                    0.0065                   302.1169827136936
0.0065                    0.0075                   302.1229860469126
0.0065                    0.0085                   302.13573773280234
0.0065                    0.0095                   302.15077881871787
0.0065                    0.0105                   302.16456876955624