% Model:              模型结构导入comsolBench.mph
% Version:            COMSOL 6.2.0.339
% Date:               May 29 2026, 11:21
% Dimension:          2
% Nodes:              4096
% Expressions:        1
% Description:        温度
% Length unit:        m
% x                       y                        T (K)
5.0E-4                    -0.0315                  298.2111878338836
5.0E-4                    -0.0305                  298.209538875534
5.0E-4                    -0.0295                  298.2070157774994
5.0E-4                    -0.0285                  297.4922057015691
5.0E-4                    -0.0275                  293.5295534384733
5.0E-4                    -0.0265                  293.15476536877907
5.0E-4                    -0.0255                  293.1522987146542
5.0E-4                    -0.0245                  293.15189219918005
5.0E-4                    -0.0235                  293.151730762175
5.0E-4                    -0.0225                  293.1517416950549
5.0E-4                    -0.0215                  293.1519065408879
5.0E-4                    -0.0205                  293.19218888021163
5.0E-4                    -0.0195                  295.3747603804459
5.0E-4                    -0.0185                  296.3190553334406
5.0E-4                    -0.0175                  296.32986842314415
5.0E-4                    -0.0165                  296.2660925588854
5.0E-4                    -0.0155                  296.1915041665427
5.0E-4                    -0.0145                  296.1167910231629
5.0E-4                    -0.0135                  296.0574758052004
5.0E-4                    -0.0125                  296.0059348477666
5.0E-4                    -0.0115                  295.9623122565333
5.0E-4                    -0.0105                  295.9299912031122
5.0E-4                    -0.0095                  295.91452167441133
5.0E-4                    -0.0085                  295.9354697619765
5.0E-4                    -0.0075                  295.9689291420954
5.0E-4                    -0.0065                  296.02370722017685
5.0E-4                    -0.0055                  296.0966056023726
5.0E-4                    -0.0045                  296.14485441982754
5.0E-4                    -0.0035                  296.1483127905713
5.0E-4                    -0.0025                  296.1871911560676
5.0E-4                    -0.0015                  296.5093269827059
5.0E-4                    -5.0E-4                  297.4316509470498
5.0E-4                    5.0E-4                   298.8479448760695
5.0E-4                    0.0015                   299.9782591641908
5.0E-4                    0.0025                   300.0606803051114
5.0E-4                    0.0035                   300.1995513372717
5.0E-4                    0.0045                   300.36900515816757
5.0E-4                    0.0055                   300.5560086470161
5.0E-4                    0.0065                   300.74617582114684
5.0E-4                    0.0075                   300.93263365418494
5.0E-4                    0.0085                   301.11810612693887
5.0E-4                    0.0095                   301.2923357255242
5.0E-4                    0.0105                   301.46047284616543
5.0E-4                    0.0115                   301.62699777283984
5.0E-4                    0.0125                   301.7734368677442
5.0E-4                    0.0135                   301.91244331798555
5.0E-4                    0.0145                   302.0514497682269
5.0E-4                    0.0155                   302.1824837079666
5.0E-4                    0.0165                   302.2877107602978
5.0E-4                    0.0175                   302.39293781262893
5.0E-4                    0.0185                   302.49816486496013
5.0E-4                    0.0195                   302.59517403261026
5.0E-4                    0.0205                   302.66958390982353
5.0E-4                    0.0215                   302.7414970641758
5.0E-4                    0.0225                   302.8134102185281
5.0E-4                    0.0235                   302.88083353769565
5.0E-4                    0.0245                   302.92804933190865
5.0E-4                    0.0255                   302.96983528956866
5.0E-4                    0.0265                   303.0116212472286
5.0E-4                    0.0275                   303.0524653868292
5.0E-4                    0.0285                   303.07447986036016
5.0E-4                    0.0295                   303.0884567952904
5.0E-4                    0.0305                   303.1024337302207
5.0E-4                    0.0315                   303.11641066515097
0.0015                    -0.0315                  298.20791275512875
0.0015                    -0.0305                  298.20562136493396
0.0015                    -0.0295                  298.20123629401706
0.0015                    -0.0285                  297.0142799863586
0.0015                    -0.0275                  293.97693581851064
0.0015                    -0.0265                  293.1718946776897
0.0015                    -0.0255                  293.1573022414396
0.0015                    -0.0245                  293.15550278251555
0.0015                    -0.0235                  293.1550668639616
0.0015                    -0.0225                  293.155085117411
0.0015                    -0.0215                  293.15370809637335
0.0015                    -0.0205                  293.20437420368575
0.0015                    -0.0195                  294.657863246342
0.0015                    -0.0185                  295.7247996157804
0.0015                    -0.0175                  295.829734228436
0.0015                    -0.0165                  295.84615119269336
0.0015                    -0.0155                  295.7804824513903
0.0015                    -0.0145                  295.6858495864813
0.0015                    -0.0135                  295.5638806954896
0.0015                    -0.0125                  295.436753173093
0.0015                    -0.0115                  295.3082380243248
0.0015                    -0.0105                  295.18828518780697
0.0015                    -0.0095                  295.0929748574169
0.0015                    -0.0085                  294.98097451807246
0.0015                    -0.0075                  294.9606943459879
0.0015                    -0.0065                  294.98242853814503
0.0015                    -0.0055                  294.96887871447467
0.0015                    -0.0045                  294.9252911875642
0.0015                    -0.0035                  294.868321965692
0.0015                    -0.0025                  294.6930172748532
0.0015                    -0.0015                  294.6958880518102
0.0015                    -5.0E-4                  295.10691160558997
0.0015                    5.0E-4                   297.67792706011204
0.0015                    0.0015                   299.87822309835946
0.0015                    0.0025                   300.00354027336743
0.0015                    0.0035                   300.161941290454
0.0015                    0.0045                   300.35460017331957
0.0015                    0.0055                   300.54863401429714
0.0015                    0.0065                   300.7427682871661
0.0015                    0.0075                   300.93361067661885
0.0015                    0.0085                   301.118476468858
0.0015                    0.0095                   301.29974325913304
0.0015                    0.0105                   301.4678803797743
0.0015                    0.0115                   301.6289307500453
0.0015                    0.0125                   301.78440310997394
0.0015                    0.0135                   301.9234095602153
0.0015                    0.0145                   302.0586172007599
0.0015                    0.0155                   302.1841646760806
0.0015                    0.0165                   302.29866023585885
0.0015                    0.0175                   302.40388728819005
0.0015                    0.0185                   302.5060921517735
0.0015                    0.0195                   302.594621346833
0.0015                    0.0205                   302.6789341039801
0.0015                    0.0215                   302.7508472583323
0.0015                    0.0225                   302.81978599485876
0.0015                    0.0235                   302.87957096329353
0.0015                    0.0245                   302.9352228074834
0.0015                    0.0255                   302.9770087651434
0.0015                    0.0265                   303.01879472280336
0.0015                    0.0275                   303.0507648807723
0.0015                    0.0285                   303.08006797968267
0.0015                    0.0295                   303.09404491461294
0.0015                    0.0305                   303.10802184954315
0.0015                    0.0315                   303.1182114474848
0.0025                    -0.0315                  298.2025327442383
0.0025                    -0.0305                  298.197430634064
0.0025                    -0.0295                  298.1904578728635
0.0025                    -0.0285                  296.7932476338149
0.0025                    -0.0275                  294.346983665109
0.0025                    -0.0265                  293.2180282906834
0.0025                    -0.0255                  293.16458302881784
0.0025                    -0.0245                  293.1597246473203
0.0025                    -0.0235                  293.1586447548222
0.0025                    -0.0225                  293.1586043230135
0.0025                    -0.0215                  293.15831202316895
0.0025                    -0.0205                  293.2028813988063
0.0025                    -0.0195                  294.04529330125894
0.0025                    -0.0185                  295.3023089207844
0.0025                    -0.0175                  295.474734979307
0.0025                    -0.0165                  295.4557099812616
0.0025                    -0.0155                  295.37307107046445
0.0025                    -0.0145                  295.2694242790328
0.0025                    -0.0135                  295.14644154648875
0.0025                    -0.0125                  295.0253804826224
0.0025                    -0.0115                  294.9145259895146
0.0025                    -0.0105                  294.82839528713765
0.0025                    -0.0095                  294.71465252869535
0.0025                    -0.0085                  294.64110049990006
0.0025                    -0.0075                  294.5625659363899
0.0025                    -0.0065                  294.5186866302556
0.0025                    -0.0055                  294.52250365609166
0.0025                    -0.0045                  294.5017107856484
0.0025                    -0.0035                  294.4814318318602
0.0025                    -0.0025                  294.4608128473197
0.0025                    -0.0015                  294.3903134302643
0.0025                    -5.0E-4                  294.62790093266455
0.0025                    5.0E-4                   296.78301015161173
0.0025                    0.0015                   299.6657524088788
0.0025                    0.0025                   299.8871139073268
0.0025                    0.0035                   300.10723156703006
0.0025                    0.0045                   300.3266829337086
0.0025                    0.0055                   300.5368873556597
0.0025                    0.0065                   300.7356413978408
0.0025                    0.0075                   300.9363827890809
0.0025                    0.0085                   301.1197357303714
0.0025                    0.0095                   301.3036001295777
0.0025                    0.0105                   301.4708368952274
0.0025                    0.0115                   301.6308637272507
0.0025                    0.0125                   301.7908905592739
0.0025                    0.0135                   301.9343758024451
0.0025                    0.0145                   302.0601937239052
0.0025                    0.0155                   302.18574119922596
0.0025                    0.0165                   302.30960971141997
0.0025                    0.0175                   302.4148367637511
0.0025                    0.0185                   302.5055394659962
0.0025                    0.0195                   302.59406866105564
0.0025                    0.0205                   302.6825978561152
0.0025                    0.0215                   302.75873845202193
0.0025                    0.0225                   302.8185234204567
0.0025                    0.0235                   302.87830838889136
0.0025                    0.0245                   302.9380933573261
0.0025                    0.0255                   302.98418224071816
0.0025                    0.0265                   303.01959997212964
0.0025                    0.0275                   303.0490643747154
0.0025                    0.0285                   303.0785287773011
0.0025                    0.0295                   303.09963303393545
0.0025                    0.0305                   303.1098835375429
0.0025                    0.0315                   303.1199817769857
0.0035                    -0.0315                  298.1954895696637
0.0035                    -0.0305                  298.18980637098934
0.0035                    -0.0295                  298.17701895146433
0.0035                    -0.0285                  296.95948112279007
0.0035                    -0.0275                  294.54917671181107
0.0035                    -0.0265                  293.3635343214181
0.0035                    -0.0255                  293.17416973742485
0.0035                    -0.0245                  293.16424659165375
0.0035                    -0.0235                  293.1624222230246
0.0035                    -0.0225                  293.16209842404453
0.0035                    -0.0215                  293.1632594077902
0.0035                    -0.0205                  293.17960464569865
0.0035                    -0.0195                  293.55559153120714
0.0035                    -0.0185                  294.695619048894
0.0035                    -0.0175                  295.12723026690145
0.0035                    -0.0165                  295.24465666602265
0.0035                    -0.0155                  295.1649127091932
0.0035                    -0.0145                  295.0867929726363
0.0035                    -0.0135                  295.0353346301425
0.0035                    -0.0125                  294.9771438440915
0.0035                    -0.0115                  294.8554873689352
0.0035                    -0.0105                  294.73507840558267
0.0035                    -0.0095                  294.574243445062
0.0035                    -0.0085                  294.4700196086186
0.0035                    -0.0075                  294.39631214935724
0.0035                    -0.0065                  294.3413206902137
0.0035                    -0.0055                  294.3263479414596
0.0035                    -0.0045                  294.3051071190507
0.0035                    -0.0035                  294.30228177236046
0.0035                    -0.0025                  294.28562002626074
0.0035                    -0.0015                  294.2643261519515
0.0035                    -5.0E-4                  294.2764576116671
0.0035                    5.0E-4                   296.074211972092
0.0035                    0.0015                   299.31026550020994
0.0035                    0.0025                   299.7646732203874
0.0035                    0.0035                   300.0628227228026
0.0035                    0.0045                   300.3019345709512
0.0035                    0.0055                   300.5206237232327
0.0035                    0.0065                   300.7322442563383
0.0035                    0.0075                   300.9368589724122
0.0035                    0.0085                   301.12444891910553
0.0035                    0.0095                   301.3130471492419
0.0035                    0.0105                   301.4841746302821
0.0035                    0.0115                   301.64157936435356
0.0035                    0.0125                   301.7989840984251
0.0035                    0.0135                   301.9413995675461
0.0035                    0.0145                   302.0650840725787
0.0035                    0.0155                   302.1887685776113
0.0035                    0.0165                   302.31286519769196
0.0035                    0.0175                   302.41727317017796
0.0035                    0.0185                   302.50885166343016
0.0035                    0.0195                   302.6004301566824
0.0035                    0.0205                   302.6920086499346
0.0035                    0.0215                   302.76552184836584
0.0035                    0.0225                   302.82297143784615
0.0035                    0.0235                   302.8804210273264
0.0035                    0.0245                   302.9378706168067
0.0035                    0.0255                   302.98843506348703
0.0035                    0.0265                   303.01961741252177
0.0035                    0.0275                   303.05081726072626
0.0035                    0.0285                   303.0820171089307
0.0035                    0.0295                   303.1026484917612
0.0035                    0.0305                   303.1116538670438
0.0035                    0.0315                   303.1217521064866
0.0045                    -0.0315                  298.1895329034728
0.0045                    -0.0305                  298.1831049978156
0.0045                    -0.0295                  298.1642681224952
0.0045                    -0.0285                  298.1190002165914
0.0045                    -0.0275                  295.55136879296623
0.0045                    -0.0265                  293.4879999919754
0.0045                    -0.0255                  293.20095722872907
0.0045                    -0.0245                  293.17065118927457
0.0045                    -0.0235                  293.1668123282121
0.0045                    -0.0225                  293.16578493168066
0.0045                    -0.0215                  293.16694337645663
0.0045                    -0.0205                  293.18561711411917
0.0045                    -0.0195                  293.388832556805
0.0045                    -0.0185                  294.013948949678
0.0045                    -0.0175                  294.55821390691017
0.0045                    -0.0165                  294.91285983512944
0.0045                    -0.0155                  294.8710816592132
0.0045                    -0.0145                  294.8391390820768
0.0045                    -0.0135                  294.7031229752902
0.0045                    -0.0125                  294.5462182480518
0.0045                    -0.0115                  294.4032030023191
0.0045                    -0.0105                  294.2722020337201
0.0045                    -0.0095                  294.18952123843803
0.0045                    -0.0085                  294.0686164796514
0.0045                    -0.0075                  294.05806020383136
0.0045                    -0.0065                  294.02312376452204
0.0045                    -0.0055                  293.98305065490536
0.0045                    -0.0045                  293.9486319459313
0.0045                    -0.0035                  293.9192333287574
0.0045                    -0.0025                  293.9217406307777
0.0045                    -0.0015                  293.93785485392414
0.0045                    -5.0E-4                  293.9627919900843
0.0045                    5.0E-4                   294.0436861815526
0.0045                    0.0015                   294.697033269769
0.0045                    0.0025                   296.49128489589964
0.0045                    0.0035                   300.03708098677583
0.0045                    0.0045                   300.2852622958183
0.0045                    0.0055                   300.5140564862743
0.0045                    0.0065                   300.7329623943607
0.0045                    0.0075                   300.93939853038626
0.0045                    0.0085                   301.1371518220161
0.0045                    0.0095                   301.3250418937666
0.0045                    0.0105                   301.4994352389987
0.0045                    0.0115                   301.66064429020525
0.0045                    0.0125                   301.81921945488057
0.0045                    0.0135                   301.9613596944365
0.0045                    0.0145                   302.0880203312774
0.0045                    0.0155                   302.21170483630993
0.0045                    0.0165                   302.3332062126261
0.0045                    0.0175                   302.4345115536601
0.0045                    0.0185                   302.5266893553537
0.0045                    0.0195                   302.6182678486059
0.0045                    0.0205                   302.70139760633236
0.0045                    0.0215                   302.7749216594028
0.0045                    0.0225                   302.8360063606257
0.0045                    0.0235                   302.89345595010593
0.0045                    0.0245                   302.9497529860578
0.0045                    0.0255                   302.9963755327481
0.0045                    0.0265                   303.0284028925852
0.0045                    0.0275                   303.0596027407896
0.0045                    0.0285                   303.0908025889941
0.0045                    0.0295                   303.1069494851737
0.0045                    0.0305                   303.11582617275985
0.0045                    0.0315                   303.124702860346
0.0055                    -0.0315                  298.1887539097966
0.0055                    -0.0305                  298.18034416748213
0.0055                    -0.0295                  298.1629078593765
0.0055                    -0.0285                  298.13866586677557
0.0055                    -0.0275                  296.11215477855217
0.0055                    -0.0265                  293.73034396950976
0.0055                    -0.0255                  293.2706246397787
0.0055                    -0.0245                  293.1792115913263
0.0055                    -0.0235                  293.172512814677
0.0055                    -0.0225                  293.1695588737325
0.0055                    -0.0215                  293.17081055531884
0.0055                    -0.0205                  293.1784887923508
0.0055                    -0.0195                  293.3069108381841
0.0055                    -0.0185                  293.5959757161108
0.0055                    -0.0175                  293.9948355953237
0.0055                    -0.0165                  294.2553028987146
0.0055                    -0.0155                  294.354913134782
0.0055                    -0.0145                  294.25153752769154
0.0055                    -0.0135                  294.1046327278756
0.0055                    -0.0125                  293.96004835351744
0.0055                    -0.0115                  293.85081892022936
0.0055                    -0.0105                  293.74553622245423
0.0055                    -0.0095                  293.7089042662902
0.0055                    -0.0085                  293.6876887051212
0.0055                    -0.0075                  293.6375987925574
0.0055                    -0.0065                  293.64158638174024
0.0055                    -0.0055                  293.651417542199
0.0055                    -0.0045                  293.685234111904
0.0055                    -0.0035                  293.70835654670117
0.0055                    -0.0025                  293.70454198726895
0.0055                    -0.0015                  293.72684005186613
0.0055                    -5.0E-4                  293.7582045095024
0.0055                    5.0E-4                   293.79352095326993
0.0055                    0.0015                   293.83187444966126
0.0055                    0.0025                   294.137502832164
0.0055                    0.0035                   296.7787099802309
0.0055                    0.0045                   300.2958101745552
0.0055                    0.0055                   300.50997049765414
0.0055                    0.0065                   300.73192076209153
0.0055                    0.0075                   300.95256960928754
0.0055                    0.0085                   301.1541704165576
0.0055                    0.0095                   301.344150576929
0.0055                    0.0105                   301.51996430044227
0.0055                    0.0115                   301.68255616084286
0.0055                    0.0125                   301.8379428041434
0.0055                    0.0135                   301.9764470049681
0.0055                    0.0145                   302.11095658997596
0.0055                    0.0155                   302.2318169332833
0.0055                    0.0165                   302.3525902260014
0.0055                    0.0175                   302.44946431227606
0.0055                    0.0185                   302.54452704727726
0.0055                    0.0195                   302.634357646883
0.0055                    0.0205                   302.7078816999535
0.0055                    0.0215                   302.78140575302393
0.0055                    0.0225                   302.8490412834052
0.0055                    0.0235                   302.9046517460091
0.0055                    0.0245                   302.9598791832785
0.0055                    0.0255                   303.00404270448126
0.0055                    0.0265                   303.03612569576046
0.0055                    0.0275                   303.06820868703966
0.0055                    0.0285                   303.0995880690575
0.0055                    0.0295                   303.11125047858627
0.0055                    0.0305                   303.1217777963676
0.0055                    0.0315                   303.13268055899647
0.0065                    -0.0315                  298.1898552565645
0.0065                    -0.0305                  298.1837168161406
0.0065                    -0.0295                  298.16519570767497
0.0065                    -0.0285                  298.14225233711045
0.0065                    -0.0275                  296.9163988997426
0.0065                    -0.0265                  294.2455270145847
0.0065                    -0.0255                  293.36045638206446
0.0065                    -0.0245                  293.1996478726425
0.0065                    -0.0235                  293.1803711187505
0.0065                    -0.0225                  293.17395715112
0.0065                    -0.0215                  293.17390027179283
0.0065                    -0.0205                  293.1796347979913
0.0065                    -0.0195                  293.2171373737078
0.0065                    -0.0185                  293.3045149218764
0.0065                    -0.0175                  293.51987015593545
0.0065                    -0.0165                  293.64881841233256
0.0065                    -0.0155                  293.6558698258647
0.0065                    -0.0145                  293.5868119492993
0.0065                    -0.0135                  293.4831643719031
0.0065                    -0.0125                  293.4709811955057
0.0065                    -0.0115                  293.47518163357654
0.0065                    -0.0105                  293.4967520126186
0.0065                    -0.0095                  293.51890691415304
0.0065                    -0.0085                  293.52639623139453
0.0065                    -0.0075                  293.55541552075385
0.0065                    -0.0065                  293.562521095389
0.0065                    -0.0055                  293.58498323418314
0.0065                    -0.0045                  293.60906874461614
0.0065                    -0.0035                  293.6378478359456
0.0065                    -0.0025                  293.631198547442
0.0065                    -0.0015                  293.6600332299233
0.0065                    -5.0E-4                  293.67114652275313
0.0065                    5.0E-4                   293.6822260787203
0.0065                    0.0015                   293.7230635004402
0.0065                    0.0025                   293.7844135146721
0.0065                    0.0035                   294.02252481423307
0.0065                    0.0045                   296.6481274142428
0.0065                    0.0055                   300.45097713591593
0.0065                    0.0065                   300.74033594925663
0.0065                    0.0075                   300.97993276959096
0.0065                    0.0085                   301.180505969075
0.0065                    0.0095                   301.3692387317159
0.0065                    0.0105                   301.54723744836303
0.0065                    0.0115                   301.7125194532289