% Model:              模型结构导入comsolBench.mph
% Version:            COMSOL 6.2.0.339
% Date:               May 28 2026, 17:36
% Dimension:          2
% Nodes:              4096
% Expressions:        1
% Description:        温度
% Length unit:        m
% x                       y                        T (K)
5.0E-4                    -0.0315                  300.05517828614927
5.0E-4                    -0.0305                  300.04472437472884
5.0E-4                    -0.0295                  300.0342704633084
5.0E-4                    -0.0285                  300.0217154787339
5.0E-4                    -0.0275                  299.99693483754197
5.0E-4                    -0.0265                  299.9709719894399
5.0E-4                    -0.0255                  299.94106280536204
5.0E-4                    -0.0245                  299.90750098282734
5.0E-4                    -0.0235                  299.872487709146
5.0E-4                    -0.0225                  299.83805916517144
5.0E-4                    -0.0215                  299.8055429682066
5.0E-4                    -0.0205                  299.77923900887754
5.0E-4                    -0.0195                  299.7621444121518
5.0E-4                    -0.0185                  299.28800735166874
5.0E-4                    -0.0175                  298.0305604446826
5.0E-4                    -0.0165                  296.7624859235445
5.0E-4                    -0.0155                  296.3217872763413
5.0E-4                    -0.0145                  296.3599842658215
5.0E-4                    -0.0135                  296.44262480928666
5.0E-4                    -0.0125                  296.54971236699873
5.0E-4                    -0.0115                  296.5864079410944
5.0E-4                    -0.0105                  295.77676909028276
5.0E-4                    -0.0095                  293.2485768599703
5.0E-4                    -0.0085                  293.15228336265653
5.0E-4                    -0.0075                  293.1514012728878
5.0E-4                    -0.0065                  293.3370886479265
5.0E-4                    -0.0055                  297.0303000242353
5.0E-4                    -0.0045                  297.8406122792424
5.0E-4                    -0.0035                  297.8410276094164
5.0E-4                    -0.0025                  297.75795818854306
5.0E-4                    -0.0015                  297.6793497948304
5.0E-4                    -5.0E-4                  297.6120366294401
5.0E-4                    5.0E-4                   297.55080320992283
5.0E-4                    0.0015                   297.50806646671094
5.0E-4                    0.0025                   297.464531168417
5.0E-4                    0.0035                   297.41875663647005
5.0E-4                    0.0045                   297.381433274149
5.0E-4                    0.0055                   297.33021452619676
5.0E-4                    0.0065                   297.2810809524643
5.0E-4                    0.0075                   297.24662241263104
5.0E-4                    0.0085                   297.21248816954227
5.0E-4                    0.0095                   297.2001342542361
5.0E-4                    0.0105                   297.32996449106355
5.0E-4                    0.0115                   297.80451218021915
5.0E-4                    0.0125                   298.73259956570763
5.0E-4                    0.0135                   299.7454272110259
5.0E-4                    0.0145                   300.18267743608646
5.0E-4                    0.0155                   300.20549375015065
5.0E-4                    0.0165                   300.2451249474085
5.0E-4                    0.0175                   300.29585013944666
5.0E-4                    0.0185                   300.3531254450598
5.0E-4                    0.0195                   300.413068835286
5.0E-4                    0.0205                   300.47119205240165
5.0E-4                    0.0215                   300.52835380166783
5.0E-4                    0.0225                   300.5782847451351
5.0E-4                    0.0235                   300.6275818035559
5.0E-4                    0.0245                   300.6713945749756
5.0E-4                    0.0255                   300.704204875345
5.0E-4                    0.0265                   300.7370151757144
5.0E-4                    0.0275                   300.76949472325305
5.0E-4                    0.0285                   300.78756665957553
5.0E-4                    0.0295                   300.7985079974608
5.0E-4                    0.0305                   300.8094493353459
5.0E-4                    0.0315                   300.81999581474986
0.0015                    -0.0315                  300.0561116839266
0.0015                    -0.0305                  300.0475141025738
0.0015                    -0.0295                  300.0370601911534
0.0015                    -0.0285                  300.02013789975706
0.0015                    -0.0275                  299.9975221095773
0.0015                    -0.0265                  299.9707556081431
0.0015                    -0.0255                  299.93856948614484
0.0015                    -0.0245                  299.9049038874622
0.0015                    -0.0235                  299.867940799145
0.0015                    -0.0225                  299.83052012343285
0.0015                    -0.0215                  299.7950487851279
0.0015                    -0.0205                  299.76463340211205
0.0015                    -0.0195                  299.7401183060449
0.0015                    -0.0185                  298.7537402126321
0.0015                    -0.0175                  295.8271525087092
0.0015                    -0.0165                  295.094822862117
0.0015                    -0.0155                  295.0913743818509
0.0015                    -0.0145                  295.23434414984297
0.0015                    -0.0135                  295.38673875392345
0.0015                    -0.0125                  295.63270874693967
0.0015                    -0.0115                  295.66952091410224
0.0015                    -0.0105                  295.0418242264708
0.0015                    -0.0095                  293.32834835129904
0.0015                    -0.0085                  293.1531309458109
0.0015                    -0.0075                  293.1465903180824
0.0015                    -0.0065                  293.60415024734453
0.0015                    -0.0055                  296.4384639464577
0.0015                    -0.0045                  297.0436742414997
0.0015                    -0.0035                  297.05353021211505
0.0015                    -0.0025                  296.9916959742432
0.0015                    -0.0015                  296.961052718262
0.0015                    -5.0E-4                  296.9016602229466
0.0015                    5.0E-4                   296.8174100560759
0.0015                    0.0015                   296.7084011355981
0.0015                    0.0025                   296.6517177743797
0.0015                    0.0035                   296.6169319466531
0.0015                    0.0045                   296.53669396252957
0.0015                    0.0055                   296.45380056485095
0.0015                    0.0065                   296.35586027786456
0.0015                    0.0075                   296.1696659145793
0.0015                    0.0085                   296.0290749385259
0.0015                    0.0095                   295.92038610352665
0.0015                    0.0105                   295.80884894525946
0.0015                    0.0115                   296.0356925406587
0.0015                    0.0125                   296.8919776362764
0.0015                    0.0135                   298.86458131492884
0.0015                    0.0145                   300.15364785452937
0.0015                    0.0155                   300.18422878277914
0.0015                    0.0165                   300.2290095393986
0.0015                    0.0175                   300.2844269510032
0.0015                    0.0185                   300.34728775702195
0.0015                    0.0195                   300.4095607796081
0.0015                    0.0205                   300.4690475715698
0.0015                    0.0215                   300.52539156100437
0.0015                    0.0225                   300.5800937897706
0.0015                    0.0235                   300.6269406143285
0.0015                    0.0245                   300.66845949755265
0.0015                    0.0255                   300.70788320376045
0.0015                    0.0265                   300.74069350412987
0.0015                    0.0275                   300.7658746924244
0.0015                    0.0285                   300.78785386941684
0.0015                    0.0295                   300.8023856432813
0.0015                    0.0305                   300.8121424057226
0.0015                    0.0315                   300.81989440467265
0.0025                    -0.0315                  300.05693149544004
0.0025                    -0.0305                  300.048674672879
0.0025                    -0.0295                  300.03984991899836
0.0025                    -0.0285                  300.01856032078024
0.0025                    -0.0275                  299.99659793851
0.0025                    -0.0265                  299.96748715742115
0.0025                    -0.0255                  299.9349167711937
0.0025                    -0.0245                  299.8962195713957
0.0025                    -0.0235                  299.85787865676764
0.0025                    -0.0225                  299.81765288916245
0.0025                    -0.0215                  299.7766896371736
0.0025                    -0.0205                  299.73812951353307
0.0025                    -0.0195                  299.6982547799481
0.0025                    -0.0185                  296.29839448050643
0.0025                    -0.0175                  294.6402296422539
0.0025                    -0.0165                  294.66371329844986
0.0025                    -0.0155                  294.72766203190895
0.0025                    -0.0145                  294.8274699609168
0.0025                    -0.0135                  294.9708197702956
0.0025                    -0.0125                  295.1850238786485
0.0025                    -0.0115                  295.2431311389881
0.0025                    -0.0105                  294.4413466862897
0.0025                    -0.0095                  293.4366661598497
0.0025                    -0.0085                  293.16046971891535
0.0025                    -0.0075                  293.1435391090843
0.0025                    -0.0065                  293.8526630721757
0.0025                    -0.0055                  295.5197464385968
0.0025                    -0.0045                  296.6045715397671
0.0025                    -0.0035                  296.5561164642432
0.0025                    -0.0025                  296.50362591306686
0.0025                    -0.0015                  296.45417296908226
0.0025                    -5.0E-4                  296.36789512821235
0.0025                    5.0E-4                   296.2798349597495
0.0025                    0.0015                   296.19931008971747
0.0025                    0.0025                   296.1122020625194
0.0025                    0.0035                   296.0589581897684
0.0025                    0.0045                   295.98411485261096
0.0025                    0.0055                   295.90499812571727
0.0025                    0.0065                   295.79954208993894
0.0025                    0.0075                   295.6908527848471
0.0025                    0.0085                   295.62184286538695
0.0025                    0.0095                   295.5622034483044
0.0025                    0.0105                   295.5003560417596
0.0025                    0.0115                   295.50793227003874
0.0025                    0.0125                   295.9212734866937
0.0025                    0.0135                   298.1995391844683
0.0025                    0.0145                   300.1002746425813
0.0025                    0.0155                   300.1391938046686
0.0025                    0.0165                   300.1987003922652
0.0025                    0.0175                   300.2658241542436
0.0025                    0.0185                   300.3346415234656
0.0025                    0.0195                   300.3986515683823
0.0025                    0.0205                   300.46691120718276
0.0025                    0.0215                   300.52304991834006
0.0025                    0.0225                   300.5791838991785
0.0025                    0.0235                   300.6253148295898
0.0025                    0.0245                   300.6661345026678
0.0025                    0.0255                   300.70698738117653
0.0025                    0.0265                   300.74027548460333
0.0025                    0.0275                   300.76296691927496
0.0025                    0.0285                   300.7857622628657
0.0025                    0.0295                   300.80395243785284
0.0025                    0.0305                   300.8120409956455
0.0025                    0.0315                   300.81979299459545
0.0035                    -0.0315                  300.0577513069535
0.0035                    -0.0305                  300.05049329060347
0.0035                    -0.0295                  300.0426468599415
0.0035                    -0.0285                  300.019847121769
0.0035                    -0.0275                  299.9979948484937
0.0035                    -0.0265                  299.9651616589934
0.0035                    -0.0255                  299.93089334525496
0.0035                    -0.0245                  299.8888265802142
0.0035                    -0.0235                  299.8421489018059
0.0035                    -0.0225                  299.79762808933197
0.0035                    -0.0215                  299.7524025134096
0.0035                    -0.0205                  299.70410887986736
0.0035                    -0.0195                  296.8970068542068
0.0035                    -0.0185                  294.55660111706277
0.0035                    -0.0175                  294.5655009230743
0.0035                    -0.0165                  294.71853966604147
0.0035                    -0.0155                  294.7551682810257
0.0035                    -0.0145                  294.7935587308357
0.0035                    -0.0135                  294.93814550619453
0.0035                    -0.0125                  294.85209214740684
0.0035                    -0.0115                  294.68001650016384
0.0035                    -0.0105                  294.0346295322695
0.0035                    -0.0095                  293.3060973111175
0.0035                    -0.0085                  293.1815631486681
0.0035                    -0.0075                  293.16154002689734
0.0035                    -0.0065                  293.6445872765198
0.0035                    -0.0055                  294.8611735581868
0.0035                    -0.0045                  295.9486984507476
0.0035                    -0.0035                  296.2474240665856
0.0035                    -0.0025                  296.1955235859655
0.0035                    -0.0015                  296.1680372647877
0.0035                    -5.0E-4                  296.1502155395162
0.0035                    5.0E-4                   296.09224879097235
0.0035                    0.0015                   296.0518957222995
0.0035                    0.0025                   295.98913031728864
0.0035                    0.0035                   295.8742455178363
0.0035                    0.0045                   295.85858140198224
0.0035                    0.0055                   295.7944121778359
0.0035                    0.0065                   295.7221866358718
0.0035                    0.0075                   295.7095431752067
0.0035                    0.0085                   295.6770095984789
0.0035                    0.0095                   295.6406956687517
0.0035                    0.0105                   295.52267371826076
0.0035                    0.0115                   295.3517032648016
0.0035                    0.0125                   295.58799410019935
0.0035                    0.0135                   297.78945552434516
0.0035                    0.0145                   300.00414756657403
0.0035                    0.0155                   300.0710928602249
0.0035                    0.0165                   300.1540034036821
0.0035                    0.0175                   300.2376402725326
0.0035                    0.0185                   300.3155012738906
0.0035                    0.0195                   300.393106266494
0.0035                    0.0205                   300.4625916649243
0.0035                    0.0215                   300.5213417319135
0.0035                    0.0225                   300.5771939191295
0.0035                    0.0235                   300.62883051894
0.0035                    0.0245                   300.66965019201797
0.0035                    0.0255                   300.7091062404438
0.0035                    0.0265                   300.7425294101844
0.0035                    0.0275                   300.76597312820223
0.0035                    0.0285                   300.7888441413359
0.0035                    0.0295                   300.8017318389914
0.0035                    0.0305                   300.8111062415129
0.0035                    0.0315                   300.81969158451824
0.0045                    -0.0315                  300.0619239522795
0.0045                    -0.0305                  300.05503753873467
0.0045                    -0.0295                  300.0453753493182
0.0045                    -0.0285                  300.02209307096115
0.0045                    -0.0275                  299.99832177142275
0.0045                    -0.0265                  299.96319467787237
0.0045                    -0.0255                  299.9256535706072
0.0045                    -0.0245                  299.8773784871469
0.0045                    -0.0235                  299.827482638525
0.0045                    -0.0225                  299.7695123423808
0.0045                    -0.0215                  299.7205256153578
0.0045                    -0.0205                  297.03440719965795
0.0045                    -0.0195                  294.6397513033251
0.0045                    -0.0185                  294.4316194647329
0.0045                    -0.0175                  294.48068234932873
0.0045                    -0.0165                  294.50507876557174
0.0045                    -0.0155                  294.5375447617096
0.0045                    -0.0145                  294.49650658575706
0.0045                    -0.0135                  294.32316629884536
0.0045                    -0.0125                  294.12261415465963
0.0045                    -0.0115                  293.7774198355868
0.0045                    -0.0105                  293.51754015002564
0.0045                    -0.0095                  293.24952758158395
0.0045                    -0.0085                  293.1842697442263
0.0045                    -0.0075                  293.18151502317545
0.0045                    -0.0065                  293.42450838168656
0.0045                    -0.0055                  294.0746373116316
0.0045                    -0.0045                  294.8877163300234
0.0045                    -0.0035                  295.2530677532208
0.0045                    -0.0025                  295.5352158505998
0.0045                    -0.0015                  295.6375964745213
0.0045                    -5.0E-4                  295.6930711853368
0.0045                    5.0E-4                   295.70136882713354
0.0045                    0.0015                   295.63572754198833
0.0045                    0.0025                   295.5029631953164
0.0045                    0.0035                   295.45244135277824
0.0045                    0.0045                   295.4157033039378
0.0045                    0.0055                   295.42973657438745
0.0045                    0.0065                   295.4357610594415
0.0045                    0.0075                   295.3959166984783
0.0045                    0.0085                   295.4162743919816
0.0045                    0.0095                   295.39985159470314
0.0045                    0.0105                   295.34310536484463
0.0045                    0.0115                   295.257691180245
0.0045                    0.0125                   295.31214706244845
0.0045                    0.0135                   297.47933653913975
0.0045                    0.0145                   299.84814594259865
0.0045                    0.0155                   299.98359597944847
0.0045                    0.0165                   300.10563272041236
0.0045                    0.0175                   300.21210781350203
0.0045                    0.0185                   300.3035389491313
0.0045                    0.0195                   300.38167880099235
0.0045                    0.0205                   300.455673300946
0.0045                    0.0215                   300.51992061543683
0.0045                    0.0225                   300.5752039390806
0.0045                    0.0235                   300.6310304846368
0.0045                    0.0245                   300.6722820417723
0.0045                    0.0255                   300.70801865068876
0.0045                    0.0265                   300.7437552596052
0.0045                    0.0275                   300.7678803277649
0.0045                    0.0285                   300.7910473286595
0.0045                    0.0295                   300.8013697841378
0.0045                    0.0305                   300.8104722434115
0.0045                    0.0315                   300.8195747026852
0.0055                    -0.0315                  300.0685492264294
0.0055                    -0.0305                  300.05989139387776
0.0055                    -0.0295                  300.0481038386949
0.0055                    -0.0285                  300.0253750620849
0.0055                    -0.0275                  300.001515864106
0.0055                    -0.0265                  299.9610132734478
0.0055                    -0.0255                  299.9219100703976
0.0055                    -0.0245                  299.8704048669731
0.0055                    -0.0235                  299.8071499356904
0.0055                    -0.0225                  299.7361766243071
0.0055                    -0.0215                  299.6495444214778
0.0055                    -0.0205                  296.3132551998132
0.0055                    -0.0195                  294.37480410626296
0.0055                    -0.0185                  294.2704521179666
0.0055                    -0.0175                  294.2541102348944
0.0055                    -0.0165                  294.216296101303
0.0055                    -0.0155                  294.14315259334506
0.0055                    -0.0145                  294.01083514391763
0.0055                    -0.0135                  293.8609409163073
0.0055                    -0.0125                  293.72005116615776
0.0055                    -0.0115                  293.6619261818504
0.0055                    -0.0105                  293.7193095413195
0.0055                    -0.0095                  293.31043539309155
0.0055                    -0.0085                  293.2233235797344
0.0055                    -0.0075                  293.17918195671814
0.0055                    -0.0065                  293.2375327582434
0.0055                    -0.0055                  293.46959528561877
0.0055                    -0.0045                  293.7945924711332
0.0055                    -0.0035                  294.1434743262946
0.0055                    -0.0025                  294.2713001314936
0.0055                    -0.0015                  294.4712702926549
0.0055                    -5.0E-4                  294.5866836043151
0.0055                    5.0E-4                   294.6087420288657
0.0055                    0.0015                   294.68065069042325
0.0055                    0.0025                   294.6802972939112
0.0055                    0.0035                   294.7514771476665
0.0055                    0.0045                   294.77704331392505
0.0055                    0.0055                   294.8060140904731
0.0055                    0.0065                   294.8440480448681
0.0055                    0.0075                   294.8910985728021
0.0055                    0.0085                   294.945255600742
0.0055                    0.0095                   294.9680527785715
0.0055                    0.0105                   294.97431740898406
0.0055                    0.0115                   294.94751211290975
0.0055                    0.0125                   294.9932896743525
0.0055                    0.0135                   296.9091422851638
0.0055                    0.0145                   299.6755621128028
0.0055                    0.0155                   299.91259696094716
0.0055                    0.0165                   300.063654342932
0.0055                    0.0175                   300.1877683049861
0.0055                    0.0185                   300.29088402813994
0.0055                    0.0195                   300.379845069758
0.0055                    0.0205                   300.4564819473162
0.0055                    0.0215                   300.52435192018606
0.0055                    0.0225                   300.5783225847349
0.0055                    0.0235                   300.63249969276575
0.0055                    0.0245                   300.6737575995372
0.0055                    0.0255                   300.7101419860309
0.0055                    0.0265                   300.7450747937687
0.0055                    0.0275                   300.76890275682314
0.0055                    0.0285                   300.7921678994436
0.0055                    0.0295                   300.80396268619813
0.0055                    0.0305                   300.81260318330067
0.0055                    0.0315                   300.82039177744696
0.0065                    -0.0315                  300.07517450057935
0.0065                    -0.0305                  300.06659318327036
0.0065                    -0.0295                  300.05435644953025
0.0065                    -0.0285                  300.0302868326066
0.0065                    -0.0275                  300.00776477602795
0.0065                    -0.0265                  299.9672621853697
0.0065                    -0.0255                  299.92112820822933
0.0065                    -0.0245                  299.86384974956474
0.0065                    -0.0235                  299.7956505289488
0.0065                    -0.0225                  299.71188398840667
0.0065                    -0.0215                  299.5772352600397
0.0065                    -0.0205                  296.27791929442935
0.0065                    -0.0195                  294.17303204178097
0.0065                    -0.0185                  294.12856691364306
0.0065                    -0.0175                  294.0681016924111
0.0065                    -0.0165                  294.04825751266026
0.0065                    -0.0155                  293.9796758998733
0.0065                    -0.0145                  293.88870845921906
0.0065                    -0.0135                  293.8853821559901
0.0065                    -0.0125                  294.09918822875903
0.0065                    -0.0115                  294.6711209641041
0.0065                    -0.0105                  294.90298498604034
0.0065                    -0.0095                  294.1083866537504
0.0065                    -0.0085                  293.89728859250306
0.0065                    -0.0075                  293.9426962851706
0.0065                    -0.0065                  293.45877118110866
0.0065                    -0.0055                  293.3392980008998
0.0065                    -0.0045                  293.4185819917609
0.0065                    -0.0035                  293.5063048582647
0.0065                    -0.0025                  293.5466024871862
0.0065                    -0.0015                  293.6711831469691
0.0065                    -5.0E-4                  293.75684989076746
0.0065                    5.0E-4                   293.82214461927833
0.0065                    0.0015                   293.916889420909
0.0065                    0.0025                   293.9784926492889
0.0065                    0.0035                   293.9507929295317
0.0065                    0.0045                   294.0539829917012
0.0065                    0.0055                   294.1297989592008
0.0065                    0.0065                   294.15615259583313
0.0065                    0.0075                   294.282220194166
0.0065                    0.0085                   294.3354420065225
0.0065                    0.0095                   294.36897905562336
0.0065                    0.0105                   294.3768766278582
0.0065                    0.0115                   294.47987167642185