% Model:              模型结构导入comsolBench.mph
% Version:            COMSOL 6.2.0.339
% Date:               May 29 2026, 11:31
% Dimension:          2
% Nodes:              4096
% Expressions:        1
% Description:        温度
% Length unit:        m
% x                       y                        T (K)
5.0E-4                    -0.0315                  299.99832851998156
5.0E-4                    -0.0305                  299.97187044541363
5.0E-4                    -0.0295                  299.9453968934075
5.0E-4                    -0.0285                  299.9189233414013
5.0E-4                    -0.0275                  299.8738816643125
5.0E-4                    -0.0265                  299.78689931620966
5.0E-4                    -0.0255                  299.6999169681068
5.0E-4                    -0.0245                  299.61293462000395
5.0E-4                    -0.0235                  299.4955605381548
5.0E-4                    -0.0225                  299.3327551779731
5.0E-4                    -0.0215                  299.1699498177914
5.0E-4                    -0.0205                  298.98744729719755
5.0E-4                    -0.0195                  298.67269247119447
5.0E-4                    -0.0185                  298.367257408614
5.0E-4                    -0.0175                  298.0277783634224
5.0E-4                    -0.0165                  297.6780636715705
5.0E-4                    -0.0155                  297.2968939365338
5.0E-4                    -0.0145                  296.9181939105321
5.0E-4                    -0.0135                  296.53659136721956
5.0E-4                    -0.0125                  294.7990649345012
5.0E-4                    -0.0115                  293.26290767477855
5.0E-4                    -0.0105                  293.1403170087568
5.0E-4                    -0.0095                  293.1367971887721
5.0E-4                    -0.0085                  293.18771106888624
5.0E-4                    -0.0075                  296.46239137064833
5.0E-4                    -0.0065                  299.02172252521336
5.0E-4                    -0.0055                  299.72278312599894
5.0E-4                    -0.0045                  300.45659008621715
5.0E-4                    -0.0035                  301.3584906631886
5.0E-4                    -0.0025                  302.09955283278043
5.0E-4                    -0.0015                  302.1266558601053
5.0E-4                    -5.0E-4                  302.12954624764495
5.0E-4                    5.0E-4                   302.1366055309122
5.0E-4                    0.0015                   302.14930801482797
5.0E-4                    0.0025                   302.1673767729498
5.0E-4                    0.0035                   302.19041534621397
5.0E-4                    0.0045                   302.21871676355914
5.0E-4                    0.0055                   302.25092822213963
5.0E-4                    0.0065                   302.2888100591201
5.0E-4                    0.0075                   302.3266918961006
5.0E-4                    0.0085                   302.37052453777676
5.0E-4                    0.0095                   302.4162069963264
5.0E-4                    0.0105                   302.46188945487614
5.0E-4                    0.0115                   302.50894266811883
5.0E-4                    0.0125                   302.55742813617485
5.0E-4                    0.0135                   302.6058976621973
5.0E-4                    0.0145                   302.65436718821974
5.0E-4                    0.0155                   302.7031033153817
5.0E-4                    0.0165                   302.7487337967285
5.0E-4                    0.0175                   302.79322872353555
5.0E-4                    0.0185                   302.83772365034247
5.0E-4                    0.0195                   302.8817810651631
5.0E-4                    0.0205                   302.9195609651118
5.0E-4                    0.0215                   302.95453518443463
5.0E-4                    0.0225                   302.98950940375744
5.0E-4                    0.0235                   303.0238947243388
5.0E-4                    0.0245                   303.05031613476933
5.0E-4                    0.0255                   303.0725367555694
5.0E-4                    0.0265                   303.0947573763695
5.0E-4                    0.0275                   303.11697799716956
5.0E-4                    0.0285                   303.13047797987844
5.0E-4                    0.0295                   303.138378639674
5.0E-4                    0.0305                   303.1462792994696
5.0E-4                    0.0315                   303.1541799592651
0.0015                    -0.0315                  300.0136354236185
0.0015                    -0.0305                  299.99069123570087
0.0015                    -0.0295                  299.96426411600976
0.0015                    -0.0285                  299.93400766584796
0.0015                    -0.0275                  299.8796876555812
0.0015                    -0.0265                  299.8125808846893
0.0015                    -0.0255                  299.72559853658646
0.0015                    -0.0245                  299.62640398332195
0.0015                    -0.0235                  299.5151796406566
0.0015                    -0.0225                  299.37347629103886
0.0015                    -0.0215                  299.20122409561
0.0015                    -0.0205                  299.0077507292209
0.0015                    -0.0195                  298.7724421737369
0.0015                    -0.0185                  298.4953897928806
0.0015                    -0.0175                  298.23598837708795
0.0015                    -0.0165                  297.9323329712801
0.0015                    -0.0155                  297.6517801836811
0.0015                    -0.0145                  297.3503797726901
0.0015                    -0.0135                  297.1168333768561
0.0015                    -0.0125                  295.5066614102031
0.0015                    -0.0115                  293.52020389742
0.0015                    -0.0105                  293.1680326798644
0.0015                    -0.0095                  293.1388414595474
0.0015                    -0.0085                  293.1577852466591
0.0015                    -0.0075                  295.3511948671958
0.0015                    -0.0065                  296.82629168259746
0.0015                    -0.0055                  297.50889426994576
0.0015                    -0.0045                  298.8222793978782
0.0015                    -0.0035                  300.5618034462778
0.0015                    -0.0025                  302.0096812912994
0.0015                    -0.0015                  302.11695981047865
0.0015                    -5.0E-4                  302.11947137532786
0.0015                    5.0E-4                   302.1262168482208
0.0015                    0.0015                   302.1390432365584
0.0015                    0.0025                   302.1580486603917
0.0015                    0.0035                   302.18238875476703
0.0015                    0.0045                   302.2097596876706
0.0015                    0.0055                   302.2425099452042
0.0015                    0.0065                   302.2778090900336
0.0015                    0.0075                   302.3185975973468
0.0015                    0.0085                   302.3615029180397
0.0015                    0.0095                   302.40633124090147
0.0015                    0.0105                   302.45244787584437
0.0015                    0.0115                   302.50101775514054
0.0015                    0.0125                   302.5495625871579
0.0015                    0.0135                   302.5980321131803
0.0015                    0.0145                   302.64655524838287
0.0015                    0.0155                   302.69573832699615
0.0015                    0.0165                   302.74385437813856
0.0015                    0.0175                   302.7883493049456
0.0015                    0.0185                   302.8328442317526
0.0015                    0.0195                   302.8756089483559
0.0015                    0.0205                   302.9173643523483
0.0015                    0.0215                   302.95233857167113
0.0015                    0.0225                   302.98731279099394
0.0015                    0.0235                   303.01832220689664
0.0015                    0.0245                   303.0486894652056
0.0015                    0.0255                   303.0714788336528
0.0015                    0.0265                   303.0936994544529
0.0015                    0.0275                   303.1129624155965
0.0015                    0.0285                   303.1289103667598
0.0015                    0.0295                   303.13794316041
0.0015                    0.0305                   303.1458438202056
0.0015                    0.0315                   303.15061559009393
0.0025                    -0.0315                  300.02894232725544
0.0025                    -0.0305                  300.00599813933786
0.0025                    -0.0295                  299.98305395142023
0.0025                    -0.0285                  299.9385307474005
0.0025                    -0.0275                  299.8842107371338
0.0025                    -0.0265                  299.829890726867
0.0025                    -0.0255                  299.747087759505
0.0025                    -0.0245                  299.6358634168397
0.0025                    -0.0235                  299.5246390741743
0.0025                    -0.0225                  299.41341473150896
0.0025                    -0.0215                  299.2402926438864
0.0025                    -0.0205                  299.0668193155381
0.0025                    -0.0195                  298.8905008888775
0.0025                    -0.0185                  298.67916037620466
0.0025                    -0.0175                  298.4280752885653
0.0025                    -0.0165                  298.1967530240752
0.0025                    -0.0155                  297.9599870880876
0.0025                    -0.0145                  297.73326606891555
0.0025                    -0.0135                  297.523948661516
0.0025                    -0.0125                  295.9777811072264
0.0025                    -0.0115                  293.8288775430517
0.0025                    -0.0105                  293.2193689561929
0.0025                    -0.0095                  293.1439147324031
0.0025                    -0.0085                  293.1985880584484
0.0025                    -0.0075                  294.49195656397546
0.0025                    -0.0065                  296.0993137313379
0.0025                    -0.0055                  296.2592013151157
0.0025                    -0.0045                  297.0524162759696
0.0025                    -0.0035                  298.74860296926755
0.0025                    -0.0025                  301.00129939005575
0.0025                    -0.0015                  302.10092434188505
0.0025                    -5.0E-4                  302.09944894419584
0.0025                    5.0E-4                   302.10482913709626
0.0025                    0.0015                   302.11831118276206
0.0025                    0.0025                   302.1349317797211
0.0025                    0.0035                   302.1600971102624
0.0025                    0.0045                   302.18845793085455
0.0025                    0.0055                   302.225348271817
0.0025                    0.0065                   302.2618764308587
0.0025                    0.0075                   302.30767814929027
0.0025                    0.0085                   302.35347543905004
0.0025                    0.0095                   302.39645548547645
0.0025                    0.0105                   302.44452296286613
0.0025                    0.0115                   302.49309284216235
0.0025                    0.0125                   302.5416627214585
0.0025                    0.0135                   302.5901665641632
0.0025                    0.0145                   302.6391902599972
0.0025                    0.0155                   302.6883733386105
0.0025                    0.0165                   302.7375564172239
0.0025                    0.0175                   302.78346988635565
0.0025                    0.0185                   302.82687835149056
0.0025                    0.0195                   302.8694368315487
0.0025                    0.0205                   302.9119953116068
0.0025                    0.0215                   302.9501419589076
0.0025                    0.0225                   302.98238243114554
0.0025                    0.0235                   303.0127496894545
0.0025                    0.0245                   303.04311694776345
0.0025                    0.0255                   303.0704209117362
0.0025                    0.0265                   303.09244051407757
0.0025                    0.0275                   303.10838846524086
0.0025                    0.0285                   303.1243364164042
0.0025                    0.0295                   303.1375076811459
0.0025                    0.0305                   303.14242934008337
0.0025                    0.0315                   303.14697627639816
0.0035                    -0.0315                  300.04424923089243
0.0035                    -0.0305                  300.0226715483417
0.0035                    -0.0295                  300.00900773800964
0.0035                    -0.0285                  299.97152898853176
0.0035                    -0.0275                  299.9146395070406
0.0035                    -0.0265                  299.8577500255495
0.0035                    -0.0255                  299.79347045855644
0.0035                    -0.0245                  299.68947154877964
0.0035                    -0.0235                  299.5854726390028
0.0035                    -0.0225                  299.4759358804654
0.0035                    -0.0215                  299.35591636157426
0.0035                    -0.0205                  299.1824430332259
0.0035                    -0.0195                  299.0031137201406
0.0035                    -0.0185                  298.8168621493295
0.0035                    -0.0175                  298.6445328095275
0.0035                    -0.0165                  298.44972015115053
0.0035                    -0.0155                  298.26881230662843
0.0035                    -0.0145                  298.10519445743165
0.0035                    -0.0135                  297.8927705040272
0.0035                    -0.0125                  296.62517682388346
0.0035                    -0.0115                  294.2246289342919
0.0035                    -0.0105                  293.36060515203496
0.0035                    -0.0095                  293.16956325595913
0.0035                    -0.0085                  293.2613523491333
0.0035                    -0.0075                  293.9097246299442
0.0035                    -0.0065                  295.22720820691006
0.0035                    -0.0055                  295.79297900936297
0.0035                    -0.0045                  296.1520008641623
0.0035                    -0.0035                  297.33584029450117
0.0035                    -0.0025                  299.3071744998877
0.0035                    -0.0015                  301.3365132095214
0.0035                    -5.0E-4                  302.06734007893465
0.0035                    5.0E-4                   302.07124774773195
0.0035                    0.0015                   302.0825033573319
0.0035                    0.0025                   302.10446680976827
0.0035                    0.0035                   302.1330894989145
0.0035                    0.0045                   302.1592625684426
0.0035                    0.0055                   302.1957527224924
0.0035                    0.0065                   302.23134891173163
0.0035                    0.0075                   302.2751146278541
0.0035                    0.0085                   302.3211883472537
0.0035                    0.0095                   302.3697035106193
0.0035                    0.0105                   302.4208393636456
0.0035                    0.0115                   302.47259706174634
0.0035                    0.0125                   302.52435475984714
0.0035                    0.0135                   302.5781526166279
0.0035                    0.0145                   302.62831495771894
0.0035                    0.0155                   302.67847729881
0.0035                    0.0165                   302.728639639901
0.0035                    0.0175                   302.77775210624236
0.0035                    0.0185                   302.82004031959855
0.0035                    0.0195                   302.86232853295485
0.0035                    0.0205                   302.904616746311
0.0035                    0.0215                   302.9458570703569
0.0035                    0.0225                   302.9765026389049
0.0035                    0.0235                   303.00714820745293
0.0035                    0.0245                   303.0375444303213
0.0035                    0.0255                   303.06791168863026
0.0035                    0.0265                   303.08786656372195
0.0035                    0.0275                   303.1035595280604
0.0035                    0.0285                   303.1192235880138
0.0035                    0.0295                   303.1323404156352
0.0035                    0.0305                   303.13844458103495
0.0035                    0.0315                   303.1433369627024
0.0045                    -0.0315                  300.0680171244996
0.0045                    -0.0305                  300.0543533141676
0.0045                    -0.0295                  300.04068950383555
0.0045                    -0.0285                  300.014801785567
0.0045                    -0.0275                  299.9579123040758
0.0045                    -0.0265                  299.8986305051591
0.0045                    -0.0255                  299.83732219508767
0.0045                    -0.0245                  299.7581918994938
0.0045                    -0.0235                  299.65419298971693
0.0045                    -0.0225                  299.53876198182286
0.0045                    -0.0215                  299.41981774008354
0.0045                    -0.0205                  299.2980667509138
0.0045                    -0.0195                  299.1263453728433
0.0045                    -0.0185                  298.9779243132331
0.0045                    -0.0175                  298.8311711735566
0.0045                    -0.0165                  298.6800864049858
0.0045                    -0.0155                  298.55521215171086
0.0045                    -0.0145                  298.4671740490636
0.0045                    -0.0135                  298.02931818357314
0.0045                    -0.0125                  296.9738651047221
0.0045                    -0.0115                  294.54916285867125
0.0045                    -0.0105                  293.5866201521922
0.0045                    -0.0095                  293.2000618356449
0.0045                    -0.0085                  293.22936462324503
0.0045                    -0.0075                  293.5810441903001
0.0045                    -0.0065                  294.79246469623325
0.0045                    -0.0055                  295.48089781810995
0.0045                    -0.0045                  295.60355105227904
0.0045                    -0.0035                  296.29723684997987
0.0045                    -0.0025                  298.16720906303084
0.0045                    -0.0015                  300.6490580252213
0.0045                    -5.0E-4                  302.0180309467498
0.0045                    5.0E-4                   302.0267713520533
0.0045                    0.0015                   302.03992430305505
0.0045                    0.0025                   302.0617668267398
0.0045                    0.0035                   302.0902124189033
0.0045                    0.0045                   302.12100631089527
0.0045                    0.0055                   302.1652252033653
0.0045                    0.0065                   302.2008213926045
0.0045                    0.0075                   302.2425511064179
0.0045                    0.0085                   302.2905722650016
0.0045                    0.0095                   302.3403267103049
0.0045                    0.0105                   302.39090265842805
0.0045                    0.0115                   302.4426603565288
0.0045                    0.0125                   302.4957268403682
0.0045                    0.0135                   302.55381525275703
0.0045                    0.0145                   302.606063664418
0.0045                    0.0155                   302.656226005509
0.0045                    0.0165                   302.7063883466001
0.0045                    0.0175                   302.7599095586959
0.0045                    0.0185                   302.80717329007877
0.0045                    0.0195                   302.849461503435
0.0045                    0.0205                   302.89174971679125
0.0045                    0.0215                   302.93355246640533
0.0045                    0.0225                   302.96796945707575
0.0045                    0.0235                   302.9986150256238
0.0045                    0.0245                   303.02926059417183
0.0045                    0.0255                   303.0593659510447
0.0045                    0.0265                   303.0812385302973
0.0045                    0.0275                   303.0978680214759
0.0045                    0.0285                   303.1135320814294
0.0045                    0.0295                   303.1255218388733
0.0045                    0.0305                   303.131626004273
0.0045                    0.0315                   303.13767464384483
0.0055                    -0.0315                  300.11146239492086
0.0055                    -0.0305                  300.0909794628948
0.0055                    -0.0295                  300.0723712696615
0.0055                    -0.0285                  300.05807458260216
0.0055                    -0.0275                  300.0001697294334
0.0055                    -0.0265                  299.938861419362
0.0055                    -0.0255                  299.8775531092906
0.0055                    -0.0245                  299.81624479921925
0.0055                    -0.0235                  299.72053232491965
0.0055                    -0.0225                  299.60158808318033
0.0055                    -0.0215                  299.49523733797884
0.0055                    -0.0205                  299.39240516396904
0.0055                    -0.0195                  299.2809400081029
0.0055                    -0.0185                  299.14100252011417
0.0055                    -0.0175                  299.0198001509443
0.0055                    -0.0165                  298.8962577700618
0.0055                    -0.0155                  298.8030163677381
0.0055                    -0.0145                  298.7385345990871
0.0055                    -0.0135                  298.20244081072275
0.0055                    -0.0125                  297.08293481660434
0.0055                    -0.0115                  295.0413837528398
0.0055                    -0.0105                  293.78138875510916
0.0055                    -0.0095                  293.32253868018694
0.0055                    -0.0085                  293.23968816011234
0.0055                    -0.0075                  293.5713800415747
0.0055                    -0.0065                  294.2570488489132
0.0055                    -0.0055                  295.09729966391023
0.0055                    -0.0045                  295.320238812848
0.0055                    -0.0035                  295.7569901802683
0.0055                    -0.0025                  297.29991080649694
0.0055                    -0.0015                  299.9791381055435
0.0055                    -5.0E-4                  301.9614721404093
0.0055                    5.0E-4                   301.97073736873585
0.0055                    0.0015                   301.98448533664583
0.0055                    0.0025                   302.00859091204734
0.0055                    0.0035                   302.040885666364
0.0055                    0.0045                   302.0705268224769
0.0055                    0.0055                   302.11705313103573
0.0055                    0.0065                   302.1635794395947
0.0055                    0.0075                   302.21144101938387
0.0055                    0.0085                   302.26119546468715
0.0055                    0.0095                   302.31094990999054
0.0055                    0.0105                   302.3609659532105
0.0055                    0.0115                   302.41272365131124
0.0055                    0.0125                   302.47036125392924
0.0055                    0.0135                   302.5284496663181
0.0055                    0.0145                   302.58381237111706
0.0055                    0.0155                   302.6339747122081
0.0055                    0.0165                   302.6859084069418
0.0055                    0.0175                   302.7401069641967
0.0055                    0.0185                   302.7943055214516
0.0055                    0.0195                   302.8365944739152
0.0055                    0.0205                   302.8786272806766
0.0055                    0.0215                   302.9203626883792
0.0055                    0.0225                   302.95943627524656
0.0055                    0.0235                   302.99008184379466
0.0055                    0.0245                   303.02006847378664
0.0055                    0.0255                   303.0498261160743
0.0055                    0.0265                   303.07122567657007
0.0055                    0.0275                   303.0903749637279
0.0055                    0.0285                   303.1078405748449
0.0055                    0.0295                   303.1187032621113
0.0055                    0.0305                   303.1242344706212
0.0055                    0.0315                   303.12924417305294
0.0065                    -0.0315                  300.15544664624053
0.0065                    -0.0305                  300.13496371421456
0.0065                    -0.0295                  300.1144807821885
0.0065                    -0.0285                  300.0946946595412
0.0065                    -0.0275                  300.0473776629146
0.0065                    -0.0265                  299.9879072943115
0.0065                    -0.0255                  299.9284369257084
0.0065                    -0.0245                  299.86896655710535
0.0065                    -0.0235                  299.8028967805868
0.0065                    -0.0225                  299.7071410174142
0.0065                    -0.0215                  299.6043088434044
0.0065                    -0.0205                  299.50218354115555
0.0065                    -0.0195                  299.40278712785573
0.0065                    -0.0185                  299.29035761682405
0.0065                    -0.0175                  299.18766581670985
0.0065                    -0.0165                  299.0908915780263
0.0065                    -0.0155                  299.01040947434456
0.0065                    -0.0145                  298.95398371440854
0.0065                    -0.0135                  298.3321632019013
0.0065                    -0.0125                  297.2923093121004
0.0065                    -0.0115                  295.4057868817979
0.0065                    -0.0105                  294.0275764484895
0.0065                    -0.0095                  293.45662501768254
0.0065                    -0.0085                  293.2464793485824
0.0065                    -0.0075                  293.49334784295496
0.0065                    -0.0065                  294.0274236829614
0.0065                    -0.0055                  294.70374260005303
0.0065                    -0.0045                  295.0266557968988
0.0065                    -0.0035                  295.47110720535744
0.0065                    -0.0025                  296.62303163348497
0.0065                    -0.0015                  298.82560324882996
0.0065                    -5.0E-4                  300.9868188835685
0.0065                    5.0E-4                   301.8956231109695
0.0065                    0.0015                   301.91446636117485
0.0065                    0.0025                   301.9466148539715
0.0065                    0.0035                   301.98214650800446
0.0065                    0.0045                   302.02145127212407
0.0065                    0.0055                   302.0636121029713
0.0065                    0.0065                   302.1057729338186
0.0065                    0.0075                   302.159869458877
0.0065                    0.0085                   302.2181364036469
0.0065                    0.0095                   302.2764033484168
0.0065                    0.0105                   302.3313275549794
0.0065                    0.0115                   302.38690725510156