% Model:              模型结构导入comsolBench.mph
% Version:            COMSOL 6.2.0.339
% Date:               May 28 2026, 17:30
% Dimension:          2
% Nodes:              4096
% Expressions:        1
% Description:        温度
% Length unit:        m
% x                       y                        T (K)
5.0E-4                    -0.0315                  300.4937744595968
5.0E-4                    -0.0305                  300.48281732774683
5.0E-4                    -0.0295                  300.4718601958968
5.0E-4                    -0.0285                  300.45621605731793
5.0E-4                    -0.0275                  300.42575399903615
5.0E-4                    -0.0265                  300.39438497673973
5.0E-4                    -0.0255                  300.35382678218264
5.0E-4                    -0.0245                  300.3040073215159
5.0E-4                    -0.0235                  300.2506437434636
5.0E-4                    -0.0225                  300.18727565176664
5.0E-4                    -0.0215                  300.12028821589047
5.0E-4                    -0.0205                  300.05085001422077
5.0E-4                    -0.0195                  299.98195901464595
5.0E-4                    -0.0185                  299.9219659099184
5.0E-4                    -0.0175                  299.8849738708833
5.0E-4                    -0.0165                  298.94793094072804
5.0E-4                    -0.0155                  296.64398825769524
5.0E-4                    -0.0145                  295.0556665561403
5.0E-4                    -0.0135                  294.5156597857535
5.0E-4                    -0.0125                  294.3208341629918
5.0E-4                    -0.0115                  294.20575751324
5.0E-4                    -0.0105                  294.14063380149906
5.0E-4                    -0.0095                  294.1288351517451
5.0E-4                    -0.0085                  294.130828567989
5.0E-4                    -0.0075                  294.1403910261183
5.0E-4                    -0.0065                  294.1635802987276
5.0E-4                    -0.0055                  294.1926098374113
5.0E-4                    -0.0045                  294.22590418517797
5.0E-4                    -0.0035                  294.26340295318425
5.0E-4                    -0.0025                  294.3050709968462
5.0E-4                    -0.0015                  294.35537282707855
5.0E-4                    -5.0E-4                  294.41749579758346
5.0E-4                    5.0E-4                   294.48701885576384
5.0E-4                    0.0015                   294.55698599877593
5.0E-4                    0.0025                   294.6099517863702
5.0E-4                    0.0035                   294.6526527943421
5.0E-4                    0.0045                   294.6985057595782
5.0E-4                    0.0055                   294.3882601275129
5.0E-4                    0.0065                   293.18921043455435
5.0E-4                    0.0075                   293.1523804535433
5.0E-4                    0.0085                   293.15193916133495
5.0E-4                    0.0095                   293.28591767774054
5.0E-4                    0.0105                   295.6371534969976
5.0E-4                    0.0115                   296.0418487373158
5.0E-4                    0.0125                   295.9828022409009
5.0E-4                    0.0135                   295.910898798
5.0E-4                    0.0145                   295.84724963135466
5.0E-4                    0.0155                   295.7938034661949
5.0E-4                    0.0165                   295.7361858786187
5.0E-4                    0.0175                   295.7259835825457
5.0E-4                    0.0185                   296.0715648578265
5.0E-4                    0.0195                   296.90236149710944
5.0E-4                    0.0205                   297.7096951101823
5.0E-4                    0.0215                   297.785268954512
5.0E-4                    0.0225                   297.7985263658604
5.0E-4                    0.0235                   297.81991413743094
5.0E-4                    0.0245                   297.84478809948286
5.0E-4                    0.0255                   297.8707363157856
5.0E-4                    0.0265                   297.89577068628415
5.0E-4                    0.0275                   297.9166650758177
5.0E-4                    0.0285                   297.9362747631664
5.0E-4                    0.0295                   297.949120230433
5.0E-4                    0.0305                   297.9572945914621
5.0E-4                    0.0315                   297.9654369613652
0.0015                    -0.0315                  300.49532671240064
0.0015                    -0.0305                  300.4872755800132
0.0015                    -0.0295                  300.47631844816317
0.0015                    -0.0285                  300.4552115045331
0.0015                    -0.0275                  300.42933061026537
0.0015                    -0.0265                  300.39571157309683
0.0015                    -0.0255                  300.3552669174812
0.0015                    -0.0245                  300.30758978000443
0.0015                    -0.0235                  300.2502150313007
0.0015                    -0.0225                  300.1876196746749
0.0015                    -0.0215                  300.1183652462965
0.0015                    -0.0205                  300.0435425571986
0.0015                    -0.0195                  299.9687276595488
0.0015                    -0.0185                  299.8968333510069
0.0015                    -0.0175                  299.8416910618528
0.0015                    -0.0165                  297.7473111307857
0.0015                    -0.0155                  294.8973231877375
0.0015                    -0.0145                  294.2354314598617
0.0015                    -0.0135                  294.05187791723444
0.0015                    -0.0125                  293.9879674913982
0.0015                    -0.0115                  293.9661856195794
0.0015                    -0.0105                  293.954786121781
0.0015                    -0.0095                  293.9889948023879
0.0015                    -0.0085                  294.02077445494945
0.0015                    -0.0075                  294.07772522742323
0.0015                    -0.0065                  294.12638376668775
0.0015                    -0.0055                  294.1615801173092
0.0015                    -0.0045                  294.1914304810026
0.0015                    -0.0035                  294.21431853318677
0.0015                    -0.0025                  294.24136054981386
0.0015                    -0.0015                  294.27474363828657
0.0015                    -5.0E-4                  294.3098151438114
0.0015                    5.0E-4                   294.3532019574373
0.0015                    0.0015                   294.39875261951454
0.0015                    0.0025                   294.4365324388985
0.0015                    0.0035                   294.4728763578028
0.0015                    0.0045                   294.4840684166586
0.0015                    0.0055                   294.08149330573184
0.0015                    0.0065                   293.1814015527211
0.0015                    0.0075                   293.15692416631254
0.0015                    0.0085                   293.1521791166409
0.0015                    0.0095                   293.4482827112107
0.0015                    0.0105                   295.3094385095317
0.0015                    0.0115                   295.40653210452183
0.0015                    0.0125                   295.36337381605654
0.0015                    0.0135                   295.26686632409513
0.0015                    0.0145                   295.1639798139809
0.0015                    0.0155                   295.0371749425824
0.0015                    0.0165                   294.9122239608912
0.0015                    0.0175                   294.7868632923528
0.0015                    0.0185                   294.66902190483216
0.0015                    0.0195                   295.2478169257296
0.0015                    0.0205                   297.0673819658971
0.0015                    0.0215                   297.7645501549371
0.0015                    0.0225                   297.7860720369933
0.0015                    0.0235                   297.8113433299233
0.0015                    0.0245                   297.8396056391098
0.0015                    0.0255                   297.86806206189067
0.0015                    0.0265                   297.89300627814566
0.0015                    0.0275                   297.9164793187644
0.0015                    0.0285                   297.9341200428497
0.0015                    0.0295                   297.95045016013523
0.0015                    0.0305                   297.95852854778656
0.0015                    0.0315                   297.9649519323461
0.0025                    -0.0315                  300.49681843568794
0.0025                    -0.0305                  300.4889488918499
0.0025                    -0.0295                  300.47871370192496
0.0025                    -0.0285                  300.4583248603258
0.0025                    -0.0275                  300.4342080113766
0.0025                    -0.0265                  300.4010041699845
0.0025                    -0.0255                  300.3588778454166
0.0025                    -0.0245                  300.3106786453553
0.0025                    -0.0235                  300.25431270361105
0.0025                    -0.0225                  300.1887974657289
0.0025                    -0.0215                  300.1166011036782
0.0025                    -0.0205                  300.03582882218836
0.0025                    -0.0195                  299.944968777732
0.0025                    -0.0185                  299.8499440050791
0.0025                    -0.0175                  299.75642114862455
0.0025                    -0.0165                  296.6960149830362
0.0025                    -0.0155                  294.2853067986345
0.0025                    -0.0145                  293.9925161929695
0.0025                    -0.0135                  293.92826333032554
0.0025                    -0.0125                  293.8946282838833
0.0025                    -0.0115                  293.8721366082219
0.0025                    -0.0105                  293.8676837668394
0.0025                    -0.0095                  293.9055375749136
0.0025                    -0.0085                  293.96114836301416
0.0025                    -0.0075                  294.06132196128203
0.0025                    -0.0065                  294.17525467783565
0.0025                    -0.0055                  294.2499624603787
0.0025                    -0.0045                  294.28825625098096
0.0025                    -0.0035                  294.3064278498598
0.0025                    -0.0025                  294.298796577585
0.0025                    -0.0015                  294.30327755512604
0.0025                    -5.0E-4                  294.3216157789039
0.0025                    5.0E-4                   294.3478414191691
0.0025                    0.0015                   294.3698057711594
0.0025                    0.0025                   294.3860336456879
0.0025                    0.0035                   294.38524525536906
0.0025                    0.0045                   294.34339271018627
0.0025                    0.0055                   293.7787325537304
0.0025                    0.0065                   293.21846499334515
0.0025                    0.0075                   293.1593625885798
0.0025                    0.0085                   293.17453780437273
0.0025                    0.0095                   293.4843885683962
0.0025                    0.0105                   294.69138810773484
0.0025                    0.0115                   295.0669283689412
0.0025                    0.0125                   295.0765486727455
0.0025                    0.0135                   294.97382111365897
0.0025                    0.0145                   294.86378018856806
0.0025                    0.0155                   294.78372805961527
0.0025                    0.0165                   294.7202973660417
0.0025                    0.0175                   294.6760358173393
0.0025                    0.0185                   294.5841962953707
0.0025                    0.0195                   294.49739468139614
0.0025                    0.0205                   295.86101418872136
0.0025                    0.0215                   297.7267012406824
0.0025                    0.0225                   297.7650456284603
0.0025                    0.0235                   297.7974926112598
0.0025                    0.0245                   297.8285013342156
0.0025                    0.0255                   297.8598278032218
0.0025                    0.0265                   297.88725215882164
0.0025                    0.0275                   297.9142465951178
0.0025                    0.0285                   297.93191318580307
0.0025                    0.0295                   297.9499003668539
0.0025                    0.0305                   297.95804351876745
0.0025                    0.0315                   297.964466903327
0.0035                    -0.0315                  300.4992551238863
0.0035                    -0.0305                  300.4937112778355
0.0035                    -0.0295                  300.482909947733
0.0035                    -0.0285                  300.46480837837925
0.0035                    -0.0275                  300.43931004812856
0.0035                    -0.0265                  300.40810892051377
0.0035                    -0.0255                  300.3657521946102
0.0035                    -0.0245                  300.3173911984975
0.0035                    -0.0235                  300.2600864529045
0.0035                    -0.0225                  300.19256986904776
0.0035                    -0.0215                  300.1163903623549
0.0035                    -0.0205                  300.0310229940077
0.0035                    -0.0195                  299.9276219518071
0.0035                    -0.0185                  299.7978697519674
0.0035                    -0.0175                  299.6466991670394
0.0035                    -0.0165                  296.4418885017472
0.0035                    -0.0155                  294.17454751142714
0.0035                    -0.0145                  293.9543984798261
0.0035                    -0.0135                  293.911594180197
0.0035                    -0.0125                  293.8956403783899
0.0035                    -0.0115                  293.86836870247157
0.0035                    -0.0105                  293.83820355840703
0.0035                    -0.0095                  293.813249212662
0.0035                    -0.0085                  293.862196489813
0.0035                    -0.0075                  293.9285656351724
0.0035                    -0.0065                  294.10045251801927
0.0035                    -0.0055                  294.214416734465
0.0035                    -0.0045                  294.28962700973784
0.0035                    -0.0035                  294.3580512651524
0.0035                    -0.0025                  294.3492824236322
0.0035                    -0.0015                  294.32830081710773
0.0035                    -5.0E-4                  294.3167455639974
0.0035                    5.0E-4                   294.3086393672323
0.0035                    0.0015                   294.2059944585814
0.0035                    0.0025                   294.15540646327884
0.0035                    0.0035                   294.1094669801719
0.0035                    0.0045                   293.877216861027
0.0035                    0.0055                   293.5585612232578
0.0035                    0.0065                   293.2055090523841
0.0035                    0.0075                   293.1626780843562
0.0035                    0.0085                   293.1784473152893
0.0035                    0.0095                   293.3468941042262
0.0035                    0.0105                   293.9857168214271
0.0035                    0.0115                   294.4478613876879
0.0035                    0.0125                   294.60985839521106
0.0035                    0.0135                   294.670608057753
0.0035                    0.0145                   294.6061681583608
0.0035                    0.0155                   294.5544891204932
0.0035                    0.0165                   294.52246151885004
0.0035                    0.0175                   294.55179163404597
0.0035                    0.0185                   294.5337314516797
0.0035                    0.0195                   294.4753987949747
0.0035                    0.0205                   294.43722707694155
0.0035                    0.0215                   296.2707169123057
0.0035                    0.0225                   297.7396052573563
0.0035                    0.0235                   297.7768950678371
0.0035                    0.0245                   297.8153399305668
0.0035                    0.0255                   297.849434876459
0.0035                    0.0265                   297.8815826714173
0.0035                    0.0275                   297.9099592829806
0.0035                    0.0285                   297.93085052280026
0.0035                    0.0295                   297.9499842851779
0.0035                    0.0305                   297.95724316405665
0.0035                    0.0315                   297.9638756739119
0.0045                    -0.0315                  300.50462491394734
0.0045                    -0.0305                  300.49951259048464
0.0045                    -0.0295                  300.4866063655653
0.0045                    -0.0285                  300.4699684968247
0.0045                    -0.0275                  300.4458212808322
0.0045                    -0.0265                  300.4173751068695
0.0045                    -0.0255                  300.3781289396376
0.0045                    -0.0245                  300.3289628022521
0.0045                    -0.0235                  300.2691893638359
0.0045                    -0.0225                  300.20009455936673
0.0045                    -0.0215                  300.1226516003326
0.0045                    -0.0205                  300.03633025195495
0.0045                    -0.0195                  299.9255524529889
0.0045                    -0.0185                  299.76466599387004
0.0045                    -0.0175                  299.55608916262
0.0045                    -0.0165                  296.1164456205301
0.0045                    -0.0155                  294.00701870613324
0.0045                    -0.0145                  293.9708711776425
0.0045                    -0.0135                  294.00462612207195
0.0045                    -0.0125                  294.0043931556476
0.0045                    -0.0115                  294.0084833311264
0.0045                    -0.0105                  293.9175926711783
0.0045                    -0.0095                  293.8494201100144
0.0045                    -0.0085                  293.7812146612996
0.0045                    -0.0075                  293.8071808969056
0.0045                    -0.0065                  293.85934403860654
0.0045                    -0.0055                  293.9910758252363
0.0045                    -0.0045                  294.1375894208658
0.0045                    -0.0035                  294.19597190403175
0.0045                    -0.0025                  294.23695757170583
0.0045                    -0.0015                  294.2124862996676
0.0045                    -5.0E-4                  294.1086382509875
0.0045                    5.0E-4                   294.0011899765488
0.0045                    0.0015                   293.92590363072185
0.0045                    0.0025                   293.79710093883426
0.0045                    0.0035                   293.6444582297952
0.0045                    0.0045                   293.45011206632074
0.0045                    0.0055                   293.28802260618204
0.0045                    0.0065                   293.2011720251115
0.0045                    0.0075                   293.1822054897902
0.0045                    0.0085                   293.19373819609626
0.0045                    0.0095                   293.2480139040823
0.0045                    0.0105                   293.389733094246
0.0045                    0.0115                   293.5608061576104
0.0045                    0.0125                   293.64869218905426
0.0045                    0.0135                   293.7333451523752
0.0045                    0.0145                   293.9132789450425
0.0045                    0.0155                   294.0334036405044
0.0045                    0.0165                   294.1414855261096
0.0045                    0.0175                   294.2101880082145
0.0045                    0.0185                   294.22947038919654
0.0045                    0.0195                   294.2715220551817
0.0045                    0.0205                   294.23450278669077
0.0045                    0.0215                   295.2981428766066
0.0045                    0.0225                   297.6961069202762
0.0045                    0.0235                   297.75280660615294
0.0045                    0.0245                   297.7983561539212
0.0045                    0.0255                   297.839273718762
0.0045                    0.0265                   297.87494982892315
0.0045                    0.0275                   297.90614550612975
0.0045                    0.0285                   297.9294257547205
0.0045                    0.0295                   297.9497235072023
0.0045                    0.0305                   297.95690162849314
0.0045                    0.0315                   297.9651875349855
0.0055                    -0.0315                  300.50961974475456
0.0055                    -0.0305                  300.50518153177023
0.0055                    -0.0295                  300.4939979487855
0.0055                    -0.0285                  300.4785068384696
0.0055                    -0.0275                  300.45742936666187
0.0055                    -0.0265                  300.42803985424354
0.0055                    -0.0255                  300.3929113014136
0.0055                    -0.0245                  300.3472431246211
0.0055                    -0.0235                  300.2863734688753
0.0055                    -0.0225                  300.2077580784955
0.0055                    -0.0215                  300.1302252285827
0.0055                    -0.0205                  300.05542352185296
0.0055                    -0.0195                  299.496193492437
0.0055                    -0.0185                  298.77472641928085
0.0055                    -0.0175                  297.4398961332886
0.0055                    -0.0165                  294.6299719374119
0.0055                    -0.0155                  294.0047257043234
0.0055                    -0.0145                  294.0780543791382
0.0055                    -0.0135                  294.17732320545883
0.0055                    -0.0125                  294.23909381055137
0.0055                    -0.0115                  294.2009825668862
0.0055                    -0.0105                  294.07725216619457
0.0055                    -0.0095                  293.92845332654383
0.0055                    -0.0085                  293.83223382138675
0.0055                    -0.0075                  293.7399571626178
0.0055                    -0.0065                  293.72472406045574
0.0055                    -0.0055                  293.7501378086645
0.0055                    -0.0045                  293.82537194408064
0.0055                    -0.0035                  293.9053158583466
0.0055                    -0.0025                  293.9262340740411
0.0055                    -0.0015                  293.83583072301604
0.0055                    -5.0E-4                  293.74716306500346
0.0055                    5.0E-4                   293.61954341635425
0.0055                    0.0015                   293.4923235587483
0.0055                    0.0025                   293.40648293800484
0.0055                    0.0035                   293.31619630154785
0.0055                    0.0045                   293.24536817691455
0.0055                    0.0055                   293.21488915744374
0.0055                    0.0065                   293.221423590783
0.0055                    0.0075                   293.23799179153787
0.0055                    0.0085                   293.25513098881333
0.0055                    0.0095                   293.312194626197
0.0055                    0.0105                   293.7605362671609
0.0055                    0.0115                   293.7663699947944
0.0055                    0.0125                   293.7679691648681
0.0055                    0.0135                   293.74164678600516
0.0055                    0.0145                   293.70398123098835
0.0055                    0.0155                   293.8075651892254
0.0055                    0.0165                   293.80469187985403
0.0055                    0.0175                   293.84897383626344
0.0055                    0.0185                   293.966949075228
0.0055                    0.0195                   293.9940792564647
0.0055                    0.0205                   294.0335303332682
0.0055                    0.0215                   294.13446111614263
0.0055                    0.0225                   296.1072994735519
0.0055                    0.0235                   297.72768297709797
0.0055                    0.0245                   297.7808424632675
0.0055                    0.0255                   297.82878240381734
0.0055                    0.0265                   297.86987378093534
0.0055                    0.0275                   297.9034166374585
0.0055                    0.0285                   297.92813679945993
0.0055                    0.0295                   297.95070676022976
0.0055                    0.0305                   297.9590279147593
0.0055                    0.0315                   297.96731382125165
0.0065                    -0.0315                  300.5153905261903
0.0065                    -0.0305                  300.5114605777592
0.0065                    -0.0295                  300.50018996215044
0.0065                    -0.0285                  300.48666624383895
0.0065                    -0.0275                  300.46612857712455
0.0065                    -0.0265                  300.4416419949766
0.0065                    -0.0255                  300.4121649663606
0.0065                    -0.0245                  300.37560603599417
0.0065                    -0.0235                  300.2989743175451
0.0065                    -0.0225                  300.21049477499605
0.0065                    -0.0215                  299.61273939645565
0.0065                    -0.0205                  298.88204468998987
0.0065                    -0.0195                  297.75081293854697
0.0065                    -0.0185                  296.5359299610905
0.0065                    -0.0175                  294.8271341694742
0.0065                    -0.0165                  294.10188609246444
0.0065                    -0.0155                  294.11255059077956
0.0065                    -0.0145                  294.3170099763837
0.0065                    -0.0135                  294.50821014006175
0.0065                    -0.0125                  294.6178715731161
0.0065                    -0.0115                  294.74585349271115
0.0065                    -0.0105                  294.7554761781843
0.0065                    -0.0095                  294.5133647463591
0.0065                    -0.0085                  294.1495884189034
0.0065                    -0.0075                  293.8861505536345
0.0065                    -0.0065                  293.7744820930444
0.0065                    -0.0055                  293.65293251613457
0.0065                    -0.0045                  293.6149786611485
0.0065                    -0.0035                  293.6307826671666
0.0065                    -0.0025                  293.6091316590119
0.0065                    -0.0015                  293.5489342608722
0.0065                    -5.0E-4                  293.5112237455022
0.0065                    5.0E-4                   293.4655428615794
0.0065                    0.0015                   293.43572443130074
0.0065                    0.0025                   293.53064737896455
0.0065                    0.0035                   293.70823924706633
0.0065                    0.0045                   293.9484218037843
0.0065                    0.0055                   293.9755303297271
0.0065                    0.0065                   293.93608066210464
0.0065                    0.0075                   293.91773578928985
0.0065                    0.0085                   293.92250379092695
0.0065                    0.0095                   294.14180198108056
0.0065                    0.0105                   295.0027183146118
0.0065                    0.0115                   295.073756448625