% Model:              模型结构导入comsolBench.mph
% Version:            COMSOL 6.2.0.339
% Date:               May 29 2026, 11:28
% Dimension:          2
% Nodes:              4096
% Expressions:        1
% Description:        温度
% Length unit:        m
% x                       y                        T (K)
5.0E-4                    -0.0315                  302.76208959874594
5.0E-4                    -0.0305                  302.7577971707085
5.0E-4                    -0.0295                  302.7533971752018
5.0E-4                    -0.0285                  302.74899717969527
5.0E-4                    -0.0275                  302.7425811975258
5.0E-4                    -0.0265                  302.73068020154255
5.0E-4                    -0.0255                  302.7186505427544
5.0E-4                    -0.0245                  302.70662088396614
5.0E-4                    -0.0235                  302.69152545650456
5.0E-4                    -0.0225                  302.6711463542349
5.0E-4                    -0.0215                  302.65076725196525
5.0E-4                    -0.0205                  302.6288571307325
5.0E-4                    -0.0195                  302.60157605646594
5.0E-4                    -0.0185                  302.57355963507933
5.0E-4                    -0.0175                  302.54273435875547
5.0E-4                    -0.0165                  302.5111193782217
5.0E-4                    -0.0155                  302.4812082731812
5.0E-4                    -0.0145                  302.45626374280255
5.0E-4                    -0.0135                  302.43974451051264
5.0E-4                    -0.0125                  301.7067194064149
5.0E-4                    -0.0115                  300.775041980354
5.0E-4                    -0.0105                  300.27325893111356
5.0E-4                    -0.0095                  300.1132568716481
5.0E-4                    -0.0085                  297.14419028186
5.0E-4                    -0.0075                  293.1668369126235
5.0E-4                    -0.0065                  293.1535924483212
5.0E-4                    -0.0055                  293.15351432084356
5.0E-4                    -0.0045                  293.15373018828524
5.0E-4                    -0.0035                  293.15434224257615
5.0E-4                    -0.0025                  293.15507650508835
5.0E-4                    -0.0015                  293.1542899962045
5.0E-4                    -5.0E-4                  293.13366469630296
5.0E-4                    5.0E-4                   294.27876512525484
5.0E-4                    0.0015                   293.2137926677093
5.0E-4                    0.0025                   293.15996080443557
5.0E-4                    0.0035                   293.15537175500583
5.0E-4                    0.0045                   293.1550085536053
5.0E-4                    0.0055                   293.15481221554796
5.0E-4                    0.0065                   293.15506858842764
5.0E-4                    0.0075                   293.15987375796874
5.0E-4                    0.0085                   297.4517115403167
5.0E-4                    0.0095                   302.01766387150406
5.0E-4                    0.0105                   302.408397557303
5.0E-4                    0.0115                   302.6884813882664
5.0E-4                    0.0125                   303.6203645304973
5.0E-4                    0.0135                   305.25617809895493
5.0E-4                    0.0145                   306.3070671707135
5.0E-4                    0.0155                   306.3341339533266
5.0E-4                    0.0165                   306.3775961963098
5.0E-4                    0.0175                   306.4306674747988
5.0E-4                    0.0185                   306.48847012621184
5.0E-4                    0.0195                   306.5471946489199
5.0E-4                    0.0205                   306.6027552448951
5.0E-4                    0.0215                   306.65654026448897
5.0E-4                    0.0225                   306.7019265392404
5.0E-4                    0.0235                   306.746867029535
5.0E-4                    0.0245                   306.7856878986247
5.0E-4                    0.0255                   306.81446865878104
5.0E-4                    0.0265                   306.8432494189374
5.0E-4                    0.0275                   306.87203017909366
5.0E-4                    0.0285                   306.8875500517198
5.0E-4                    0.0295                   306.89744767542055
5.0E-4                    0.0305                   306.9073452991213
5.0E-4                    0.0315                   306.9172382061279
0.0015                    -0.0315                  302.75493845568167
0.0015                    -0.0305                  302.7541073340761
0.0015                    -0.0295                  302.7500300409768
0.0015                    -0.0285                  302.74529890624956
0.0015                    -0.0275                  302.737233459153
0.0015                    -0.0265                  302.7278083589833
0.0015                    -0.0255                  302.7157787001951
0.0015                    -0.0245                  302.7024497449969
0.0015                    -0.0235                  302.6876598601511
0.0015                    -0.0225                  302.66847548501954
0.0015                    -0.0215                  302.6472881691477
0.0015                    -0.0205                  302.6243628058938
0.0015                    -0.0195                  302.59980309633534
0.0015                    -0.0185                  302.5702047404402
0.0015                    -0.0175                  302.53965137869494
0.0015                    -0.0165                  302.5057008434275
0.0015                    -0.0155                  302.4708472678494
0.0015                    -0.0145                  302.44218307882153
0.0015                    -0.0135                  302.41957353561526
0.0015                    -0.0125                  300.69297926862475
0.0015                    -0.0115                  298.4667420848619
0.0015                    -0.0105                  297.75315542513783
0.0015                    -0.0095                  297.89433450058823
0.0015                    -0.0085                  294.3018549122757
0.0015                    -0.0075                  293.15165898211615
0.0015                    -0.0065                  293.15969992770295
0.0015                    -0.0055                  293.1605378268649
0.0015                    -0.0045                  293.16167166614775
0.0015                    -0.0035                  293.1633301204879
0.0015                    -0.0025                  293.16294092705243
0.0015                    -0.0015                  293.15980243923633
0.0015                    -5.0E-4                  293.9317071488309
0.0015                    5.0E-4                   295.10161159868903
0.0015                    0.0015                   294.14516408129265
0.0015                    0.0025                   293.23217089865875
0.0015                    0.0035                   293.1690584627832
0.0015                    0.0045                   293.16498469439347
0.0015                    0.0055                   293.16444878357174
0.0015                    0.0065                   293.1638535933984
0.0015                    0.0075                   293.15854163961086
0.0015                    0.0085                   293.9529563311885
0.0015                    0.0095                   298.09075655577976
0.0015                    0.0105                   299.12435604296445
0.0015                    0.0115                   298.96437100479994
0.0015                    0.0125                   300.10584780339167
0.0015                    0.0135                   303.6507193558399
0.0015                    0.0145                   306.277563410859
0.0015                    0.0155                   306.31323854131637
0.0015                    0.0165                   306.36265032813355
0.0015                    0.0175                   306.4211262004998
0.0015                    0.0185                   306.48428736218415
0.0015                    0.0195                   306.54451526582324
0.0015                    0.0205                   306.60196480452134
0.0015                    0.0215                   306.65410305887644
0.0015                    0.0225                   306.70395940725365
0.0015                    0.0235                   306.74667725151915
0.0015                    0.0245                   306.7833393718449
0.0015                    0.0255                   306.8168454930826
0.0015                    0.0265                   306.8456262532389
0.0015                    0.0275                   306.86922452617847
0.0015                    0.0285                   306.88771882417205
0.0015                    0.0295                   306.8994982214714
0.0015                    0.0305                   306.9093816950896
0.0015                    0.0315                   306.91530223578695
0.0025                    -0.0315                  302.74778731261733
0.0025                    -0.0305                  302.7469561910118
0.0025                    -0.0295                  302.7461250694062
0.0025                    -0.0285                  302.7399511678769
0.0025                    -0.0275                  302.73188572078027
0.0025                    -0.0265                  302.7238202736836
0.0025                    -0.0255                  302.7123592563794
0.0025                    -0.0245                  302.69756937153363
0.0025                    -0.0235                  302.6827794866878
0.0025                    -0.0225                  302.6657192075628
0.0025                    -0.0215                  302.64279384430887
0.0025                    -0.0205                  302.6193988953463
0.0025                    -0.0195                  302.59491973228313
0.0025                    -0.0185                  302.56469601420974
0.0025                    -0.0175                  302.5311588668733
0.0025                    -0.0165                  302.495359408465
0.0025                    -0.0155                  302.4545152733224
0.0025                    -0.0145                  302.41215014262485
0.0025                    -0.0135                  302.38077408675065
0.0025                    -0.0125                  299.9963088240331
0.0025                    -0.0115                  297.30732938903947
0.0025                    -0.0105                  296.67409467848813
0.0025                    -0.0095                  295.72454096934086
0.0025                    -0.0085                  293.6669102839059
0.0025                    -0.0075                  293.17792452512714
0.0025                    -0.0065                  293.16656664609
0.0025                    -0.0055                  293.1683957342912
0.0025                    -0.0045                  293.1691600897768
0.0025                    -0.0035                  293.1669476935382
0.0025                    -0.0025                  293.1754205410406
0.0025                    -0.0015                  293.7279629112058
0.0025                    -5.0E-4                  295.31023007791475
0.0025                    5.0E-4                   295.31717126297434
0.0025                    0.0015                   295.3295539445188
0.0025                    0.0025                   294.0544675203433
0.0025                    0.0035                   293.2433836971557
0.0025                    0.0045                   293.18289749681605
0.0025                    0.0055                   293.1749608648697
0.0025                    0.0065                   293.17369670754806
0.0025                    0.0075                   293.17340923696474
0.0025                    0.0085                   293.5195606887885
0.0025                    0.0095                   295.5394294098436
0.0025                    0.0105                   297.3569209659806
0.0025                    0.0115                   297.99179736987526
0.0025                    0.0125                   298.2559479800036
0.0025                    0.0135                   302.4598402859361
0.0025                    0.0145                   306.2224715425609
0.0025                    0.0155                   306.26913800568957
0.0025                    0.0165                   306.3358280044333
0.0025                    0.0175                   306.4054032059949
0.0025                    0.0185                   306.4757208611169
0.0025                    0.0195                   306.5383909747311
0.0025                    0.0205                   306.6014726582492
0.0025                    0.0215                   306.65293965029196
0.0025                    0.0225                   306.70440664233473
0.0025                    0.0235                   306.74385816737737
0.0025                    0.0245                   306.78052028770304
0.0025                    0.0255                   306.8171824080287
0.0025                    0.0265                   306.8475510349209
0.0025                    0.0275                   306.8660453329145
0.0025                    0.0285                   306.8845396309082
0.0025                    0.0295                   306.9015251840515
0.0025                    0.0305                   306.90744572474875
0.0025                    0.0315                   306.9133662654461
0.0035                    -0.0315                  302.740636169553
0.0035                    -0.0305                  302.7388148015517
0.0035                    -0.0295                  302.73425895888903
0.0035                    -0.0285                  302.72837814856564
0.0035                    -0.0275                  302.72090399797383
0.0035                    -0.0265                  302.71342984738214
0.0035                    -0.0255                  302.7034609584489
0.0035                    -0.0245                  302.6885449945594
0.0035                    -0.0235                  302.6736290306698
0.0035                    -0.0225                  302.65769214484465
0.0035                    -0.0215                  302.63642876862696
0.0035                    -0.0205                  302.61302966386677
0.0035                    -0.0195                  302.5868699957498
0.0035                    -0.0185                  302.5584569016045
0.0035                    -0.0175                  302.52216048936464
0.0035                    -0.0165                  302.48326072748944
0.0035                    -0.0155                  302.43462716144495
0.0035                    -0.0145                  302.3734584818927
0.0035                    -0.0135                  302.3021458038918
0.0035                    -0.0125                  299.32398384386136
0.0035                    -0.0115                  296.7102179785748
0.0035                    -0.0105                  295.7262953495118
0.0035                    -0.0095                  294.350555251541
0.0035                    -0.0085                  293.32123310733056
0.0035                    -0.0075                  293.18089780326454
0.0035                    -0.0065                  293.17308417575254
0.0035                    -0.0055                  293.17584861826487
0.0035                    -0.0045                  293.17770432720374
0.0035                    -0.0035                  293.19339424115657
0.0035                    -0.0025                  293.3797504462172
0.0035                    -0.0015                  294.52690975994585
0.0035                    -5.0E-4                  295.47388206508697
0.0035                    5.0E-4                   295.47121964412236
0.0035                    0.0015                   295.48914293884445
0.0035                    0.0025                   295.0662909299218
0.0035                    0.0035                   293.57207099909033
0.0035                    0.0045                   293.2415662344688
0.0035                    0.0055                   293.19422666806497
0.0035                    0.0065                   293.1829255845196
0.0035                    0.0075                   293.17813254576134
0.0035                    0.0085                   293.330603906924
0.0035                    0.0095                   294.11340742495906
0.0035                    0.0105                   295.40614262947986
0.0035                    0.0115                   296.8038341616434
0.0035                    0.0125                   297.50800061019913
0.0035                    0.0135                   301.6499220112612
0.0035                    0.0145                   306.11423366071017
0.0035                    0.0155                   306.20549511922883
0.0035                    0.0165                   306.2986212632076
0.0035                    0.0175                   306.3897593611333
0.0035                    0.0185                   306.4633948541441
0.0035                    0.0195                   306.5345032522904
0.0035                    0.0205                   306.5993258452703
0.0035                    0.0215                   306.65395222949434
0.0035                    0.0225                   306.7027579469253
0.0035                    0.0235                   306.745846472733
0.0035                    0.0245                   306.7814749712652
0.0035                    0.0255                   306.81710346979736
0.0035                    0.0265                   306.84536233734246
0.0035                    0.0275                   306.864361656714
0.0035                    0.0285                   306.88321163928424
0.0035                    0.0295                   306.899209988228
0.0035                    0.0305                   306.90541638361333
0.0035                    0.0315                   306.9114302951051
0.0045                    -0.0315                  302.7290284288533
0.0045                    -0.0305                  302.7249280261548
0.0045                    -0.0295                  302.72037218349215
0.0045                    -0.0285                  302.71533793143084
0.0045                    -0.0275                  302.70786378083903
0.0045                    -0.0265                  302.6989745815332
0.0045                    -0.0255                  302.68904978661845
0.0045                    -0.0245                  302.6772339277114
0.0045                    -0.0235                  302.6623006937136
0.0045                    -0.0225                  302.6458648168133
0.0045                    -0.0215                  302.6264213793572
0.0045                    -0.0205                  302.60551068431596
0.0045                    -0.0195                  302.5788563303871
0.0045                    -0.0185                  302.5506671504312
0.0045                    -0.0175                  302.51499712960015
0.0045                    -0.0165                  302.473913713031
0.0045                    -0.0155                  302.41982693341185
0.0045                    -0.0145                  302.34216544162956
0.0045                    -0.0135                  302.18223709748264
0.0045                    -0.0125                  298.3115431269527
0.0045                    -0.0115                  295.50966117556305
0.0045                    -0.0105                  294.3927265846615
0.0045                    -0.0095                  293.707901472703
0.0045                    -0.0085                  293.21578669020795
0.0045                    -0.0075                  293.17482284229334
0.0045                    -0.0065                  293.18118685696544
0.0045                    -0.0055                  293.1862518081014
0.0045                    -0.0045                  293.20546418843924
0.0045                    -0.0035                  293.3460853293093
0.0045                    -0.0025                  294.49375716376653
0.0045                    -0.0015                  295.62224708963936
0.0045                    -5.0E-4                  295.60381123268223
0.0045                    5.0E-4                   295.6038615908014
0.0045                    0.0015                   295.6239458439366
0.0045                    0.0025                   295.6672285191995
0.0045                    0.0035                   294.7085821851758
0.0045                    0.0045                   293.4792250927898
0.0045                    0.0055                   293.23588347733516
0.0045                    0.0065                   293.2028771445416
0.0045                    0.0075                   293.19028144056824
0.0045                    0.0085                   293.2017405300782
0.0045                    0.0095                   293.43409494958956
0.0045                    0.0105                   294.3719219517566
0.0045                    0.0115                   295.4403296329697
0.0045                    0.0125                   296.61196094531147
0.0045                    0.0135                   301.0317532871797
0.0045                    0.0145                   305.9576651562967
0.0045                    0.0155                   306.13231607841135
0.0045                    0.0165                   306.2642350391433
0.0045                    0.0175                   306.3696360968088
0.0045                    0.0185                   306.45833500123547
0.0045                    0.0195                   306.53364549021626
0.0045                    0.0205                   306.59711137208444
0.0045                    0.0215                   306.65298509103206
0.0045                    0.0225                   306.7006919254061
0.0045                    0.0235                   306.74798691924195
0.0045                    0.0245                   306.7827149594093
0.0045                    0.0255                   306.81626805290887
0.0045                    0.0265                   306.84265597409194
0.0045                    0.0275                   306.8633644633626
0.0045                    0.0285                   306.88245077427405
0.0045                    0.0295                   306.89681597814774
0.0045                    0.0305                   306.9030223735332
0.0045                    0.0315                   306.9092101188497
0.0055                    -0.0315                  302.707718348547
0.0055                    -0.0305                  302.7069659400827
0.0055                    -0.0295                  302.70621353161835
0.0055                    -0.0285                  302.7019295654327
0.0055                    -0.0275                  302.69419166396943
0.0055                    -0.0265                  302.68426686905457
0.0055                    -0.0255                  302.6743420741398
0.0055                    -0.0245                  302.66441727922495
0.0055                    -0.0235                  302.6503126880925
0.0055                    -0.0225                  302.6330916369285
0.0055                    -0.0215                  302.6143051177109
0.0055                    -0.0205                  302.5932422178691
0.0055                    -0.0195                  302.56931528654195
0.0055                    -0.0185                  302.54270050412447
0.0055                    -0.0175                  302.50927908531014
0.0055                    -0.0165                  302.47019712421366
0.0055                    -0.0155                  302.420185513417
0.0055                    -0.0145                  302.35375595224775
0.0055                    -0.0135                  299.63013717745525
0.0055                    -0.0125                  295.68285864178097
0.0055                    -0.0115                  294.4965696232997
0.0055                    -0.0105                  293.76148656651577
0.0055                    -0.0095                  293.3773187283654
0.0055                    -0.0085                  293.20801245422376
0.0055                    -0.0075                  293.18233463948644
0.0055                    -0.0065                  293.19437036494963
0.0055                    -0.0055                  293.2145811692955
0.0055                    -0.0045                  293.32881499472785
0.0055                    -0.0035                  294.54667630216716
0.0055                    -0.0025                  295.73037384282986
0.0055                    -0.0015                  295.7150318087745
0.0055                    -5.0E-4                  295.7082605549259
0.0055                    5.0E-4                   295.7108967301468
0.0055                    0.0015                   295.7289445385725
0.0055                    0.0025                   295.75544545390085
0.0055                    0.0035                   295.79022662651755
0.0055                    0.0045                   294.7050602749969
0.0055                    0.0055                   293.45323133756
0.0055                    0.0065                   293.2404783058415
0.0055                    0.0075                   293.2085358784439
0.0055                    0.0085                   293.18910337771166
0.0055                    0.0095                   293.19812707587954
0.0055                    0.0105                   293.6834108306875
0.0055                    0.0115                   294.26417449232895
0.0055                    0.0125                   295.2738683200354
0.0055                    0.0135                   299.30557561023056
0.0055                    0.0145                   305.81383136354043
0.0055                    0.0155                   306.0958582890937
0.0055                    0.0165                   306.25178195128524
0.0055                    0.0175                   306.36752972663237
0.0055                    0.0185                   306.45621913866034
0.0055                    0.0195                   306.5341888565254
0.0055                    0.0205                   306.60109437291874
0.0055                    0.0215                   306.6578787648731
0.0055                    0.0225                   306.7044982121548
0.0055                    0.0235                   306.7481366486047
0.0055                    0.0245                   306.78276482447734
0.0055                    0.0255                   306.81537159473453
0.0055                    0.0265                   306.8399496108415
0.0055                    0.0275                   306.8606581001121
0.0055                    0.0285                   306.8813665893827
0.0055                    0.0295                   306.89442196806755
0.0055                    0.0305                   306.8996873863706
0.0055                    0.0315                   306.9049109848541
0.0065                    -0.0315                  302.6864082682407
0.0065                    -0.0305                  302.6856558597764
0.0065                    -0.0295                  302.6849034513121
0.0065                    -0.0285                  302.68277273392886
0.0065                    -0.0275                  302.6763499093403
0.0065                    -0.0265                  302.66569407967194
0.0065                    -0.0255                  302.65503825000366
0.0065                    -0.0245                  302.6443824203353
0.0065                    -0.0235                  302.6331554721377
0.0065                    -0.0225                  302.6175644537453
0.0065                    -0.0215                  302.6016645034858
0.0065                    -0.0205                  302.5810150861645
0.0065                    -0.0195                  302.558841238157
0.0065                    -0.0185                  302.53379981322763
0.0065                    -0.0175                  302.5052418534446
0.0065                    -0.0165                  302.47164939867037
0.0065                    -0.0155                  302.4324133436429
0.0065                    -0.0145                  300.17268423075103
0.0065                    -0.0135                  296.1549225713059
0.0065                    -0.0125                  294.4853149700989
0.0065                    -0.0115                  293.858932474879
0.0065                    -0.0105                  293.43543253872264
0.0065                    -0.0095                  293.236654455158
0.0065                    -0.0085                  293.1984714059319
0.0065                    -0.0075                  293.19782316649236
0.0065                    -0.0065                  293.22317012059193
0.0065                    -0.0055                  293.3339143318601
0.0065                    -0.0045                  294.5334503145034
0.0065                    -0.0035                  295.81881530233466
0.0065                    -0.0025                  295.8050394084878
0.0065                    -0.0015                  295.797037559351
0.0065                    -5.0E-4                  295.7961782656753
0.0065                    5.0E-4                   295.8017256202547
0.0065                    0.0015                   295.8151553379125
0.0065                    0.0025                   295.8344805817333
0.0065                    0.0035                   295.85968566177485
0.0065                    0.0045                   295.88837802161714
0.0065                    0.0055                   294.73206917176606
0.0065                    0.0065                   293.4559152733841
0.0065                    0.0075                   293.2544919617593
0.0065                    0.0085                   293.20987854201746
0.0065                    0.0095                   293.2164960671544
0.0065                    0.0105                   293.3180519327562