% Model:              模型结构导入comsolBench.mph
% Version:            COMSOL 6.2.0.339
% Date:               May 29 2026, 11:23
% Dimension:          2
% Nodes:              4096
% Expressions:        1
% Description:        温度
% Length unit:        m
% x                       y                        T (K)
5.0E-4                    -0.0315                  302.89557444397553
5.0E-4                    -0.0305                  302.88425179192933
5.0E-4                    -0.0295                  302.8728206978204
5.0E-4                    -0.0285                  302.8613896037115
5.0E-4                    -0.0275                  302.84299944054203
5.0E-4                    -0.0265                  302.80937082111126
5.0E-4                    -0.0255                  302.77524891101416
5.0E-4                    -0.0245                  302.741127000917
5.0E-4                    -0.0235                  302.7019951591928
5.0E-4                    -0.0225                  302.64663906647843
5.0E-4                    -0.0215                  302.5886527503522
5.0E-4                    -0.0205                  302.530666434226
5.0E-4                    -0.0195                  302.46988461577166
5.0E-4                    -0.0185                  302.3897335877794
5.0E-4                    -0.0175                  302.30551362969226
5.0E-4                    -0.0165                  302.2212936716051
5.0E-4                    -0.0155                  302.13667310057826
5.0E-4                    -0.0145                  302.0310994158596
5.0E-4                    -0.0135                  301.9208466836555
5.0E-4                    -0.0125                  301.8105939514514
5.0E-4                    -0.0115                  301.6960408192177
5.0E-4                    -0.0105                  301.5714664865045
5.0E-4                    -0.0095                  301.4463942845208
5.0E-4                    -0.0085                  301.3190447435069
5.0E-4                    -0.0075                  301.19268097134477
5.0E-4                    -0.0065                  301.068335844809
5.0E-4                    -0.0055                  300.954774334422
5.0E-4                    -0.0045                  300.85178098789765
5.0E-4                    -0.0035                  300.7677510870156
5.0E-4                    -0.0025                  300.7074623651035
5.0E-4                    -0.0015                  300.6726414473591
5.0E-4                    -5.0E-4                  299.6582464107399
5.0E-4                    5.0E-4                   298.59513466264605
5.0E-4                    0.0015                   297.2142340284187
5.0E-4                    0.0025                   296.68954076095065
5.0E-4                    0.0035                   296.66488726222724
5.0E-4                    0.0045                   296.71441837900863
5.0E-4                    0.0055                   296.7525404947388
5.0E-4                    0.0065                   296.7960084396502
5.0E-4                    0.0075                   296.8407282728564
5.0E-4                    0.0085                   296.8769696000513
5.0E-4                    0.0095                   296.92269318798833
5.0E-4                    0.0105                   296.9758499733707
5.0E-4                    0.0115                   297.0333769436661
5.0E-4                    0.0125                   297.10155787893757
5.0E-4                    0.0135                   297.17083658240705
5.0E-4                    0.0145                   297.1581796050456
5.0E-4                    0.0155                   295.9340599937706
5.0E-4                    0.0165                   293.1944052062082
5.0E-4                    0.0175                   293.1520942958257
5.0E-4                    0.0185                   293.1519849278942
5.0E-4                    0.0195                   293.1517800679505
5.0E-4                    0.0205                   293.1500594824809
5.0E-4                    0.0215                   293.14769239943615
5.0E-4                    0.0225                   293.1753969636236
5.0E-4                    0.0235                   294.4800519929478
5.0E-4                    0.0245                   296.4356117775055
5.0E-4                    0.0255                   296.627291160376
5.0E-4                    0.0265                   296.7841775920632
5.0E-4                    0.0275                   296.92284853828744
5.0E-4                    0.0285                   297.00753491792136
5.0E-4                    0.0295                   297.07960821282893
5.0E-4                    0.0305                   297.10984653732885
5.0E-4                    0.0315                   297.1340305431936
0.0015                    -0.0315                  302.89546858268284
0.0015                    -0.0305                  302.8869524717357
0.0015                    -0.0295                  302.8758467038149
0.0015                    -0.0285                  302.863903493977
0.0015                    -0.0275                  302.839904814452
0.0015                    -0.0265                  302.81354369260634
0.0015                    -0.0255                  302.7794217825093
0.0015                    -0.0245                  302.7433474299684
0.0015                    -0.0235                  302.6986868461589
0.0015                    -0.0225                  302.6518012581988
0.0015                    -0.0215                  302.59381494207264
0.0015                    -0.0205                  302.5343055398704
0.0015                    -0.0195                  302.4683632672625
0.0015                    -0.0185                  302.3938401534052
0.0015                    -0.0175                  302.3096201953181
0.0015                    -0.0165                  302.2248118290848
0.0015                    -0.0155                  302.1380924034588
0.0015                    -0.0145                  302.0346136661907
0.0015                    -0.0135                  301.92466283618165
0.0015                    -0.0125                  301.81441010397754
0.0015                    -0.0115                  301.6932571502164
0.0015                    -0.0105                  301.57016042652896
0.0015                    -0.0095                  301.4450609603268
0.0015                    -0.0085                  301.31385706887403
0.0015                    -0.0075                  301.18317312406043
0.0015                    -0.0065                  301.0605546641507
0.0015                    -0.0055                  300.93566045099095
0.0015                    -0.0045                  300.82926593216473
0.0015                    -0.0035                  300.738798463119
0.0015                    -0.0025                  300.6753623933254
0.0015                    -0.0015                  300.6380877623702
0.0015                    -5.0E-4                  299.6581591317807
0.0015                    5.0E-4                   296.62315024549457
0.0015                    0.0015                   295.5784945967301
0.0015                    0.0025                   295.4981841879545
0.0015                    0.0035                   295.5224905878338
0.0015                    0.0045                   295.67999885112624
0.0015                    0.0055                   295.8622379583844
0.0015                    0.0065                   295.9819260304506
0.0015                    0.0075                   296.0930003944697
0.0015                    0.0085                   296.18191989534375
0.0015                    0.0095                   296.23001326312266
0.0015                    0.0105                   296.29197624064426
0.0015                    0.0115                   296.357418084368
0.0015                    0.0125                   296.41846877837344
0.0015                    0.0135                   296.4767218798529
0.0015                    0.0145                   296.33541984604017
0.0015                    0.0155                   294.8394173649094
0.0015                    0.0165                   293.18007152015525
0.0015                    0.0175                   293.15516621942425
0.0015                    0.0185                   293.1556993105997
0.0015                    0.0195                   293.15535903890407
0.0015                    0.0205                   293.1535166175008
0.0015                    0.0215                   293.1544179638208
0.0015                    0.0225                   293.2581831720868
0.0015                    0.0235                   294.9646730873697
0.0015                    0.0245                   296.6663681432136
0.0015                    0.0255                   296.764959473229
0.0015                    0.0265                   296.8748611095042
0.0015                    0.0275                   296.96778837990456
0.0015                    0.0285                   297.04388178549095
0.0015                    0.0295                   297.09521941995143
0.0015                    0.0305                   297.1336816263961
0.0015                    0.0315                   297.1567990983703
0.0025                    -0.0315                  302.89536272139014
0.0025                    -0.0305                  302.88684661044294
0.0025                    -0.0295                  302.87833049949586
0.0025                    -0.0285                  302.86080886788693
0.0025                    -0.0275                  302.83681018836194
0.0025                    -0.0265                  302.81281150883694
0.0025                    -0.0255                  302.78359465400433
0.0025                    -0.0245                  302.74003911693455
0.0025                    -0.0235                  302.6953785331251
0.0025                    -0.0225                  302.6507179493156
0.0025                    -0.0215                  302.59872646396923
0.0025                    -0.0205                  302.5327841913612
0.0025                    -0.0195                  302.4668419187533
0.0025                    -0.0185                  302.3979467190311
0.0025                    -0.0175                  302.31295055759125
0.0025                    -0.0165                  302.22780136790516
0.0025                    -0.0155                  302.1379586757656
0.0025                    -0.0145                  302.0344799384975
0.0025                    -0.0135                  301.9284789887078
0.0025                    -0.0125                  301.812669525591
0.0025                    -0.0115                  301.690473481215
0.0025                    -0.0105                  301.56827743683914
0.0025                    -0.0095                  301.43892349489124
0.0025                    -0.0085                  301.3038085075855
0.0025                    -0.0075                  301.16860415286396
0.0025                    -0.0065                  301.0281703074264
0.0025                    -0.0055                  300.9032686150364
0.0025                    -0.0045                  300.7796542867942
0.0025                    -0.0035                  300.68082013231776
0.0025                    -0.0025                  300.6097827468111
0.0025                    -0.0015                  300.5762840178731
0.0025                    -5.0E-4                  296.968193382729
0.0025                    5.0E-4                   295.07566283771666
0.0025                    0.0015                   295.0034818614994
0.0025                    0.0025                   295.0783628290962
0.0025                    0.0035                   295.14494657149896
0.0025                    0.0045                   295.1964875657187
0.0025                    0.0055                   295.3287500887825
0.0025                    0.0065                   295.4508951058252
0.0025                    0.0075                   295.53657067204244
0.0025                    0.0085                   295.61786407626295
0.0025                    0.0095                   295.6800676710733
0.0025                    0.0105                   295.7349024419123
0.0025                    0.0115                   295.80811222484317
0.0025                    0.0125                   295.87703153270394
0.0025                    0.0135                   295.96835205301795
0.0025                    0.0145                   295.6819808728138
0.0025                    0.0155                   294.1133714035276
0.0025                    0.0165                   293.1646518805644
0.0025                    0.0175                   293.15731681443737
0.0025                    0.0185                   293.1593442499699
0.0025                    0.0195                   293.1586720185679
0.0025                    0.0205                   293.1583111983791
0.0025                    0.0215                   293.17051959145584
0.0025                    0.0225                   293.52347581458463
0.0025                    0.0235                   295.3177011819856
0.0025                    0.0245                   296.8341515534691
0.0025                    0.0255                   296.89493975967656
0.0025                    0.0265                   296.96621126216326
0.0025                    0.0275                   297.0343660274559
0.0025                    0.0285                   297.0917140340266
0.0025                    0.0295                   297.13689896063636
0.0025                    0.0305                   297.16530370931713
0.0025                    0.0315                   297.179567653547
0.0035                    -0.0315                  302.89525686009745
0.0035                    -0.0305                  302.8867072522414
0.0035                    -0.0295                  302.87803086899385
0.0035                    -0.0285                  302.8632946019038
0.0035                    -0.0275                  302.83876358339137
0.0035                    -0.0265                  302.814232564879
0.0035                    -0.0255                  302.7852659393414
0.0035                    -0.0245                  302.7423726601161
0.0035                    -0.0235                  302.69794560599485
0.0035                    -0.0225                  302.6535185518735
0.0035                    -0.0215                  302.60276082368256
0.0035                    -0.0205                  302.5376575114126
0.0035                    -0.0195                  302.47205747950653
0.0035                    -0.0185                  302.4023533317954
0.0035                    -0.0175                  302.31860129052177
0.0035                    -0.0165                  302.2313348229689
0.0035                    -0.0155                  302.1378249480725
0.0035                    -0.0145                  302.0350735282517
0.0035                    -0.0135                  301.9325616314066
0.0035                    -0.0125                  301.81235889234296
0.0035                    -0.0115                  301.6914782181
0.0035                    -0.0105                  301.5661042465629
0.0035                    -0.0095                  301.42531184114887
0.0035                    -0.0085                  301.285213427502
0.0035                    -0.0075                  301.14851817816515
0.0035                    -0.0065                  301.00578261243925
0.0035                    -0.0055                  300.852905808806
0.0035                    -0.0045                  300.7118990248056
0.0035                    -0.0035                  300.5898571589137
0.0035                    -0.0025                  300.4968919400378
0.0035                    -0.0015                  297.4991228134413
0.0035                    -5.0E-4                  294.8860218985277
0.0035                    5.0E-4                   294.9197697578907
0.0035                    0.0015                   295.06494154994147
0.0035                    0.0025                   295.1494936465658
0.0035                    0.0035                   295.1591951110217
0.0035                    0.0045                   295.2330325059127
0.0035                    0.0055                   295.21613320713584
0.0035                    0.0065                   295.2776917633501
0.0035                    0.0075                   295.3385028375726
0.0035                    0.0085                   295.35602361181725
0.0035                    0.0095                   295.4535529793531
0.0035                    0.0105                   295.5223192778198
0.0035                    0.0115                   295.5102179837671
0.0035                    0.0125                   295.5865620762846
0.0035                    0.0135                   295.45430099783573
0.0035                    0.0145                   294.7152825678634
0.0035                    0.0155                   293.7093474346592
0.0035                    0.0165                   293.2266840854629
0.0035                    0.0175                   293.1555375504034
0.0035                    0.0185                   293.1632729768267
0.0035                    0.0195                   293.1622569579006
0.0035                    0.0205                   293.1625044261911
0.0035                    0.0215                   293.21907808927534
0.0035                    0.0225                   293.7035465821965
0.0035                    0.0235                   295.59656287617213
0.0035                    0.0245                   296.9671366480461
0.0035                    0.0255                   297.0086065438938
0.0035                    0.0265                   297.0557020979269
0.0035                    0.0275                   297.11018759751016
0.0035                    0.0285                   297.1473259797838
0.0035                    0.0295                   297.1799103191081
0.0035                    0.0305                   297.21202462951663
0.0035                    0.0315                   297.22198128715297
0.0045                    -0.0315                  302.8950470191827
0.0045                    -0.0305                  302.8862889748406
0.0045                    -0.0295                  302.8776125915931
0.0045                    -0.0285                  302.8674350874792
0.0045                    -0.0275                  302.8429040689668
0.0045                    -0.0265                  302.8161625735617
0.0045                    -0.0255                  302.78422806605784
0.0045                    -0.0245                  302.74854349781435
0.0045                    -0.0235                  302.704116443693
0.0045                    -0.0225                  302.65968938957184
0.0045                    -0.0215                  302.60461995182396
0.0045                    -0.0205                  302.5451248111277
0.0045                    -0.0195                  302.4795247792216
0.0045                    -0.0185                  302.40606546435663
0.0045                    -0.0175                  302.32794289657136
0.0045                    -0.0165                  302.24043933492396
0.0045                    -0.0155                  302.14738401882215
0.0045                    -0.0145                  302.0451130268117
0.0045                    -0.0135                  301.94007838761314
0.0045                    -0.0125                  301.8167206342509
0.0045                    -0.0115                  301.6950557693759
0.0045                    -0.0105                  301.55925558104855
0.0045                    -0.0095                  301.4197380727161
0.0045                    -0.0085                  301.27557810974105
0.0045                    -0.0075                  301.12146289747875
0.0045                    -0.0065                  300.9649545976751
0.0045                    -0.0055                  300.7990707897318
0.0045                    -0.0045                  300.6240799153899
0.0045                    -0.0035                  300.4544926473884
0.0045                    -0.0025                  297.4660155876055
0.0045                    -0.0015                  294.7006780802699
0.0045                    -5.0E-4                  294.7433417875118
0.0045                    5.0E-4                   294.8775199462793
0.0045                    0.0015                   294.9639336820742
0.0045                    0.0025                   294.9973674179488
0.0045                    0.0035                   294.99549149038387
0.0045                    0.0045                   294.9558099480547
0.0045                    0.0055                   294.94844504842285
0.0045                    0.0065                   294.9029974508336
0.0045                    0.0075                   294.8685261204274
0.0045                    0.0085                   294.95115664773937
0.0045                    0.0095                   294.9827506200457
0.0045                    0.0105                   294.99138204733123
0.0045                    0.0115                   295.01181465384434
0.0045                    0.0125                   294.8828881880639
0.0045                    0.0135                   294.65936918916793
0.0045                    0.0145                   294.1071548612513
0.0045                    0.0155                   293.3634817819518
0.0045                    0.0165                   293.19340504090735
0.0045                    0.0175                   293.16171275546617
0.0045                    0.0185                   293.1666079461244
0.0045                    0.0195                   293.16567074175157
0.0045                    0.0205                   293.1792854063352
0.0045                    0.0215                   293.2600831403845
0.0045                    0.0225                   293.89652578012965
0.0045                    0.0235                   295.84979466020894
0.0045                    0.0245                   297.07964733305926
0.0045                    0.0255                   297.1088126236277
0.0045                    0.0265                   297.1437109017925
0.0045                    0.0275                   297.1790877460275
0.0045                    0.0285                   297.21369436301353
0.0045                    0.0295                   297.24314727178694
0.0045                    0.0305                   297.2622771836618
0.0045                    0.0315                   297.2729842853939
0.0055                    -0.0315                  302.89592259793335
0.0055                    -0.0305                  302.88653565279094
0.0055                    -0.0295                  302.8771943141923
0.0055                    -0.0285                  302.8685179309448
0.0055                    -0.0275                  302.8470445545422
0.0055                    -0.0265                  302.81512470027826
0.0055                    -0.0255                  302.7831901927744
0.0055                    -0.0245                  302.7512556852705
0.0055                    -0.0235                  302.7102872813913
0.0055                    -0.0225                  302.66191551242173
0.0055                    -0.0215                  302.60647907996537
0.0055                    -0.0205                  302.55104264750895
0.0055                    -0.0195                  302.4869920789367
0.0055                    -0.0185                  302.40977759691793
0.0055                    -0.0175                  302.33246143225017
0.0055                    -0.0165                  302.24822277974636
0.0055                    -0.0155                  302.15720938884976
0.0055                    -0.0145                  302.05272447614493
0.0055                    -0.0135                  301.9470450045519
0.0055                    -0.0125                  301.8231932466901
0.0055                    -0.0115                  301.6952205070509
0.0055                    -0.0105                  301.55767528414754
0.0055                    -0.0095                  301.41216386223124
0.0055                    -0.0085                  301.26188805727827
0.0055                    -0.0075                  301.100507255482
0.0055                    -0.0065                  300.93004677694483
0.0055                    -0.0055                  300.74226489667865
0.0055                    -0.0045                  300.5263639623016
0.0055                    -0.0035                  297.3305115413236
0.0055                    -0.0025                  294.63880749059734
0.0055                    -0.0015                  294.3664561493957
0.0055                    -5.0E-4                  294.3569232717897
0.0055                    5.0E-4                   294.4617046884879
0.0055                    0.0015                   294.54008711050176
0.0055                    0.0025                   294.48025651272417
0.0055                    0.0035                   294.43265914015
0.0055                    0.0045                   294.40638642572617
0.0055                    0.0055                   294.3396721100325
0.0055                    0.0065                   294.2902893299637
0.0055                    0.0075                   294.2578510863941
0.0055                    0.0085                   294.22867873688654
0.0055                    0.0095                   294.2353922208864
0.0055                    0.0105                   294.24261226261115
0.0055                    0.0115                   294.2284696634078
0.0055                    0.0125                   294.1499713008402
0.0055                    0.0135                   293.98023911239227
0.0055                    0.0145                   293.53059825708397
0.0055                    0.0155                   293.3259182304981
0.0055                    0.0165                   293.17043379327544
0.0055                    0.0175                   293.1669637335105
0.0055                    0.0185                   293.17025761887
0.0055                    0.0195                   293.1727468332115
0.0055                    0.0205                   293.1983573673366
0.0055                    0.0215                   293.3433144796427
0.0055                    0.0225                   294.13959803951354
0.0055                    0.0235                   296.0658017621075
0.0055                    0.0245                   297.176269395388
0.0055                    0.0255                   297.1971826765648
0.0055                    0.0265                   297.2243893997911
0.0055                    0.0275                   297.25107776579955
0.0055                    0.0285                   297.27878108586634
0.0055                    0.0295                   297.3023248808671
0.0055                    0.0305                   297.31324078702943
0.0055                    0.0315                   297.32398463025356
0.0065                    -0.0315                  302.8967981766841
0.0065                    -0.0305                  302.88741123154165
0.0065                    -0.0295                  302.8780242863992
0.0065                    -0.0285                  302.8686373412567
0.0065                    -0.0275                  302.8467079125045
0.0065                    -0.0265                  302.81408682699475
0.0065                    -0.0255                  302.78215231949093
0.0065                    -0.0245                  302.75021781198706
0.0065                    -0.0235                  302.7164581190895
0.0065                    -0.0225                  302.66377464056313
0.0065                    -0.0215                  302.6083382081067
0.0065                    -0.0205                  302.5529017756503
0.0065                    -0.0195                  302.4919802908294
0.0065                    -0.0185                  302.417874165064
0.0065                    -0.0175                  302.3437680392986
0.0065                    -0.0165                  302.26043001952974
0.0065                    -0.0155                  302.16806068195154
0.0065                    -0.0145                  302.0654300831654
0.0065                    -0.0135                  301.95639799775427
0.0065                    -0.0125                  301.8351487654829
0.0065                    -0.0115                  301.7019926630111
0.0065                    -0.0105                  301.56029119230647
0.0065                    -0.0095                  301.40740404860304
0.0065                    -0.0085                  301.2455503982
0.0065                    -0.0075                  301.0793471322401
0.0065                    -0.0065                  300.9070876775055
0.0065                    -0.0055                  300.7127186571561
0.0065                    -0.0045                  297.2449931228947
0.0065                    -0.0035                  294.2038025101306
0.0065                    -0.0025                  294.03991909223515
0.0065                    -0.0015                  293.9839271781797
0.0065                    -5.0E-4                  293.96306719865004
0.0065                    5.0E-4                   293.90936839682917
0.0065                    0.0015                   293.8656380201065
0.0065                    0.0025                   293.8085979637181
0.0065                    0.0035                   293.7822086535702
0.0065                    0.0045                   293.67616715299994
0.0065                    0.0055                   293.6299635570582
0.0065                    0.0065                   293.57849845799063
0.0065                    0.0075                   293.5322347459441
0.0065                    0.0085                   293.5548373717432
0.0065                    0.0095                   293.571631798735
0.0065                    0.0105                   293.577969698167
0.0065                    0.0115                   293.5898732330464