% Model:              模型结构导入comsolBench.mph
% Version:            COMSOL 6.2.0.339
% Date:               May 28 2026, 17:46
% Dimension:          2
% Nodes:              4096
% Expressions:        1
% Description:        温度
% Length unit:        m
% x                       y                        T (K)
5.0E-4                    -0.0315                  310.3068320586336
5.0E-4                    -0.0305                  310.2973477601273
5.0E-4                    -0.0295                  310.2878598762924
5.0E-4                    -0.0285                  310.27837199245755
5.0E-4                    -0.0275                  310.2640488182633
5.0E-4                    -0.0265                  310.2364059135564
5.0E-4                    -0.0255                  310.20854602845554
5.0E-4                    -0.0245                  310.18068614335465
5.0E-4                    -0.0235                  310.1497745894633
5.0E-4                    -0.0225                  310.10626612145757
5.0E-4                    -0.0215                  310.06069138538874
5.0E-4                    -0.0205                  310.01511664931996
5.0E-4                    -0.0195                  309.9669515434801
5.0E-4                    -0.0185                  309.9094805117533
5.0E-4                    -0.0175                  309.8505213402061
5.0E-4                    -0.0165                  309.79156216865886
5.0E-4                    -0.0155                  309.72765534788897
5.0E-4                    -0.0145                  309.6634999459483
5.0E-4                    -0.0135                  309.59900573316787
5.0E-4                    -0.0125                  309.53705496423055
5.0E-4                    -0.0115                  309.477314086916
5.0E-4                    -0.0105                  309.42497396384374
5.0E-4                    -0.0095                  309.3828197709015
5.0E-4                    -0.0085                  309.3554590690685
5.0E-4                    -0.0075                  308.34390640229776
5.0E-4                    -0.0065                  306.0635403844729
5.0E-4                    -0.0055                  303.6319976981905
5.0E-4                    -0.0045                  302.5558428996021
5.0E-4                    -0.0035                  302.39941822727184
5.0E-4                    -0.0025                  302.3575585370864
5.0E-4                    -0.0015                  302.25118054245786
5.0E-4                    -5.0E-4                  302.1162627100765
5.0E-4                    5.0E-4                   302.0316069937377
5.0E-4                    0.0015                   302.0499548005298
5.0E-4                    0.0025                   302.0816395797639
5.0E-4                    0.0035                   299.89158906641626
5.0E-4                    0.0045                   293.21555822334125
5.0E-4                    0.0055                   293.1560100417618
5.0E-4                    0.0065                   293.1546364732734
5.0E-4                    0.0075                   293.1544620416475
5.0E-4                    0.0085                   293.1546889927011
5.0E-4                    0.0095                   293.1556187722708
5.0E-4                    0.0105                   293.15736831522344
5.0E-4                    0.0115                   293.6395133399476
5.0E-4                    0.0125                   301.9466946043161
5.0E-4                    0.0135                   303.6241873219962
5.0E-4                    0.0145                   305.2139980186435
5.0E-4                    0.0155                   306.33672167718083
5.0E-4                    0.0165                   306.35359832494487
5.0E-4                    0.0175                   306.3779563564186
5.0E-4                    0.0185                   306.405912526498
5.0E-4                    0.0195                   306.43474973472206
5.0E-4                    0.0205                   306.4629598344949
5.0E-4                    0.0215                   306.4900617798515
5.0E-4                    0.0225                   306.51449908250095
5.0E-4                    0.0235                   306.5367438453599
5.0E-4                    0.0245                   306.55824070595986
5.0E-4                    0.0255                   306.5745362874385
5.0E-4                    0.0265                   306.58908624023593
5.0E-4                    0.0275                   306.60363619303337
5.0E-4                    0.0285                   306.61502772531816
5.0E-4                    0.0295                   306.6201616055266
5.0E-4                    0.0305                   306.62529548573514
5.0E-4                    0.0315                   306.6304025703447
0.0015                    -0.0315                  310.3045214513006
0.0015                    -0.0305                  310.2983868805519
0.0015                    -0.0295                  310.28890975270286
0.0015                    -0.0285                  310.27910968049116
0.0015                    -0.0275                  310.2603818660822
0.0015                    -0.0265                  310.2380688479773
0.0015                    -0.0255                  310.2102089628764
0.0015                    -0.0245                  310.1808159225837
0.0015                    -0.0235                  310.14584957366174
0.0015                    -0.0225                  310.1072430017296
0.0015                    -0.0215                  310.06166826566084
0.0015                    -0.0205                  310.01553565307574
0.0015                    -0.0195                  309.96257293305666
0.0015                    -0.0185                  309.9079363443307
0.0015                    -0.0175                  309.8489771727835
0.0015                    -0.0165                  309.7868731932811
0.0015                    -0.0155                  309.7227636718108
0.0015                    -0.0145                  309.6585871243908
0.0015                    -0.0135                  309.5936489331924
0.0015                    -0.0125                  309.5301428750054
0.0015                    -0.0115                  309.46768743833024
0.0015                    -0.0105                  309.4096864373183
0.0015                    -0.0095                  309.36292232132274
0.0015                    -0.0085                  309.3263410959365
0.0015                    -0.0075                  306.9969507931826
0.0015                    -0.0065                  301.4598275118006
0.0015                    -0.0055                  298.96311528598574
0.0015                    -0.0045                  298.8566300876016
0.0015                    -0.0035                  299.1623252802349
0.0015                    -0.0025                  299.4085994441202
0.0015                    -0.0015                  299.7202477462984
0.0015                    -5.0E-4                  299.8691134082794
0.0015                    5.0E-4                   299.93611633700635
0.0015                    0.0015                   300.1753299200752
0.0015                    0.0025                   300.2151496197745
0.0015                    0.0035                   295.988425022945
0.0015                    0.0045                   293.2446410406984
0.0015                    0.0055                   293.166074311968
0.0015                    0.0065                   293.1639495604725
0.0015                    0.0075                   293.16345400096947
0.0015                    0.0085                   293.1642220347164
0.0015                    0.0095                   293.1669515370454
0.0015                    0.0105                   293.15974311239717
0.0015                    0.0115                   294.35514826066344
0.0015                    0.0125                   299.4430427019189
0.0015                    0.0135                   300.3834150769535
0.0015                    0.0145                   303.45975190515975
0.0015                    0.0155                   306.319514446927
0.0015                    0.0165                   306.34163359755723
0.0015                    0.0175                   306.3694449688767
0.0015                    0.0185                   306.3997196279904
0.0015                    0.0195                   306.4308460235587
0.0015                    0.0205                   306.4601752945271
0.0015                    0.0215                   306.486640454507
0.0015                    0.0225                   306.5115862917211
0.0015                    0.0235                   306.5345588447293
0.0015                    0.0245                   306.5535210936159
0.0015                    0.0255                   306.57199007300386
0.0015                    0.0265                   306.5867796684942
0.0015                    0.0275                   306.6003347066653
0.0015                    0.0285                   306.6106318170272
0.0015                    0.0295                   306.6183921562498
0.0015                    0.0305                   306.62344564966156
0.0015                    0.0315                   306.625166273078
0.0025                    -0.0315                  310.3022108439677
0.0025                    -0.0305                  310.296076273219
0.0025                    -0.0295                  310.2899417024702
0.0025                    -0.0285                  310.2754427283101
0.0025                    -0.0275                  310.2567149139011
0.0025                    -0.0265                  310.2379870994921
0.0025                    -0.0255                  310.2118572557041
0.0025                    -0.0245                  310.1768909067821
0.0025                    -0.0235                  310.1419245578602
0.0025                    -0.0225                  310.1069582089383
0.0025                    -0.0215                  310.06264514593295
0.0025                    -0.0205                  310.01115704265226
0.0025                    -0.0195                  309.95819432263323
0.0025                    -0.0185                  309.90523160261415
0.0025                    -0.0175                  309.8460752171934
0.0025                    -0.0165                  309.7819656957231
0.0025                    -0.0155                  309.7165121282188
0.0025                    -0.0145                  309.6474788846891
0.0025                    -0.0135                  309.57957253763595
0.0025                    -0.0125                  309.5119401475996
0.0025                    -0.0115                  309.4453380173858
0.0025                    -0.0105                  309.38425533001714
0.0025                    -0.0095                  309.3279884653622
0.0025                    -0.0085                  309.2726103088053
0.0025                    -0.0075                  302.2238538887177
0.0025                    -0.0065                  297.2122687674856
0.0025                    -0.0055                  297.1358505033722
0.0025                    -0.0045                  297.32947499644945
0.0025                    -0.0035                  297.6402226750713
0.0025                    -0.0025                  298.00705218236567
0.0025                    -0.0015                  298.3357545217358
0.0025                    -5.0E-4                  298.63116075227265
0.0025                    5.0E-4                   298.80531109950573
0.0025                    0.0015                   298.2720921064848
0.0025                    0.0025                   296.6020683600439
0.0025                    0.0035                   293.932470029411
0.0025                    0.0045                   293.22204635904814
0.0025                    0.0055                   293.1778537113804
0.0025                    0.0065                   293.1740545626475
0.0025                    0.0075                   293.17367107569555
0.0025                    0.0085                   293.17503636622473
0.0025                    0.0095                   293.17728982218057
0.0025                    0.0105                   293.16940103757236
0.0025                    0.0115                   294.02775772176625
0.0025                    0.0125                   297.0602249668947
0.0025                    0.0135                   298.64679262849444
0.0025                    0.0145                   302.16019500301684
0.0025                    0.0155                   306.28650688822626
0.0025                    0.0165                   306.31869328961267
0.0025                    0.0175                   306.3533582128895
0.0025                    0.0185                   306.3896485022158
0.0025                    0.0195                   306.42285293012134
0.0025                    0.0205                   306.45257781335215
0.0025                    0.0215                   306.4803264283543
0.0025                    0.0225                   306.5061669184421
0.0025                    0.0235                   306.52938113121877
0.0025                    0.0245                   306.5487927814239
0.0025                    0.0255                   306.5672704606599
0.0025                    0.0265                   306.5844730967525
0.0025                    0.0275                   306.5955615121922
0.0025                    0.0285                   306.60585862255414
0.0025                    0.0295                   306.6158536686805
0.0025                    0.0305                   306.61820935239484
0.0025                    0.0315                   306.6199299758113
0.0035                    -0.0315                  310.2999002366348
0.0035                    -0.0305                  310.29371231112947
0.0035                    -0.0295                  310.2866470515288
0.0035                    -0.0285                  310.2731226927201
0.0035                    -0.0275                  310.2542050315794
0.0035                    -0.0265                  310.23528737043864
0.0035                    -0.0255                  310.2091685295468
0.0035                    -0.0245                  310.17393662007635
0.0035                    -0.0235                  310.13870471060574
0.0035                    -0.0225                  310.1034728011353
0.0035                    -0.0215                  310.06002635632126
0.0035                    -0.0205                  310.00728781625503
0.0035                    -0.0195                  309.9545492761888
0.0035                    -0.0185                  309.90181073612257
0.0035                    -0.0175                  309.83737395996417
0.0035                    -0.0165                  309.7712850218125
0.0035                    -0.0155                  309.7055155452626
0.0035                    -0.0145                  309.634114497977
0.0035                    -0.0135                  309.56250023753336
0.0035                    -0.0125                  309.4895627554706
0.0035                    -0.0115                  309.41546080263277
0.0035                    -0.0105                  309.34343819345673
0.0035                    -0.0095                  309.2802117956378
0.0035                    -0.0085                  303.1701916689679
0.0035                    -0.0075                  296.88571689057676
0.0035                    -0.0065                  296.80124555820754
0.0035                    -0.0055                  297.23466614806046
0.0035                    -0.0045                  297.39594215394993
0.0035                    -0.0035                  297.2135193746215
0.0035                    -0.0025                  297.2375884487854
0.0035                    -0.0015                  297.16713680181465
0.0035                    -5.0E-4                  296.6491594885582
0.0035                    5.0E-4                   295.77903835394244
0.0035                    0.0015                   294.8827141632667
0.0035                    0.0025                   294.12506611698575
0.0035                    0.0035                   293.42795098633394
0.0035                    0.0045                   293.21535431532755
0.0035                    0.0055                   293.19019260259773
0.0035                    0.0065                   293.18475209025786
0.0035                    0.0075                   293.18637924325657
0.0035                    0.0085                   293.1887218733699
0.0035                    0.0095                   293.1840315025289
0.0035                    0.0105                   293.24609659507377
0.0035                    0.0115                   293.81212316151806
0.0035                    0.0125                   295.3870416656038
0.0035                    0.0135                   296.99560749077074
0.0035                    0.0145                   301.30447048473377
0.0035                    0.0155                   306.23212443286724
0.0035                    0.0165                   306.28627057241215
0.0035                    0.0175                   306.33478466020904
0.0035                    0.0185                   306.37657982621533
0.0035                    0.0195                   306.41164759980126
0.0035                    0.0205                   306.44368804286614
0.0035                    0.0215                   306.47279880396155
0.0035                    0.0225                   306.49685457987283
0.0035                    0.0235                   306.5203895262059
0.0035                    0.0245                   306.5398011764111
0.0035                    0.0255                   306.5592128266162
0.0035                    0.0265                   306.57641030835384
0.0035                    0.0275                   306.5877426271022
0.0035                    0.0285                   306.59737415438553
0.0035                    0.0295                   306.60697961724236
0.0035                    0.0305                   306.6115503149723
0.0035                    0.0315                   306.6146936785446
0.0045                    -0.0315                  310.29666315276387
0.0045                    -0.0305                  310.28959789316315
0.0045                    -0.0295                  310.28253263356237
0.0045                    -0.0285                  310.2715619732802
0.0045                    -0.0275                  310.2526443121395
0.0045                    -0.0265                  310.2308325835485
0.0045                    -0.0255                  310.2066973990357
0.0045                    -0.0245                  310.17332006975164
0.0045                    -0.0235                  310.1380881602811
0.0045                    -0.0225                  310.1006059344749
0.0045                    -0.0215                  310.0563227433723
0.0045                    -0.0205                  310.00494134354125
0.0045                    -0.0195                  309.952202803475
0.0045                    -0.0185                  309.8933793576707
0.0045                    -0.0175                  309.8295413929743
0.0045                    -0.0165                  309.761492238758
0.0045                    -0.0155                  309.6915110306901
0.0045                    -0.0145                  309.6160018765941
0.0045                    -0.0135                  309.5397600227236
0.0045                    -0.0125                  309.461715772537
0.0045                    -0.0115                  309.37990841043336
0.0045                    -0.0105                  309.2944233892307
0.0045                    -0.0095                  309.1891758827312
0.0045                    -0.0085                  299.01186226999135
0.0045                    -0.0075                  296.3479883335352
0.0045                    -0.0065                  296.7543914191202
0.0045                    -0.0055                  296.741739984801
0.0045                    -0.0045                  296.3353321639736
0.0045                    -0.0035                  296.1179959046717
0.0045                    -0.0025                  295.52694465441516
0.0045                    -0.0015                  294.90834087563843
0.0045                    -5.0E-4                  294.31584614316006
0.0045                    5.0E-4                   293.8314607525242
0.0045                    0.0015                   293.5779452549648
0.0045                    0.0025                   293.3383370415192
0.0045                    0.0035                   293.2443461736306
0.0045                    0.0045                   293.2124325855083
0.0045                    0.0055                   293.20038306861784
0.0045                    0.0065                   293.1996441310274
0.0045                    0.0075                   293.20816560613406
0.0045                    0.0085                   293.2098399270397
0.0045                    0.0095                   293.19653430977934
0.0045                    0.0105                   293.2155324149617
0.0045                    0.0115                   293.3252170958854
0.0045                    0.0125                   294.2537174870989
0.0045                    0.0135                   295.4557398227535
0.0045                    0.0145                   299.3135945289547
0.0045                    0.0155                   306.15609336964826
0.0045                    0.0165                   306.2571992932095
0.0045                    0.0175                   306.31704155475427
0.0045                    0.0185                   306.36246314979314
0.0045                    0.0195                   306.40037394207644
0.0045                    0.0205                   306.4326024778243
0.0045                    0.0215                   306.4615273805145
0.0045                    0.0225                   306.48641292753246
0.0045                    0.0235                   306.5107018149262
0.0045                    0.0245                   306.53022183628707
0.0045                    0.0255                   306.5474432523244
0.0045                    0.0265                   306.5643482245761
0.0045                    0.0275                   306.5763531487937
0.0045                    0.0285                   306.5883580730113
0.0045                    0.0295                   306.5979052630309
0.0045                    0.0305                   306.60247596076084
0.0045                    0.0315                   306.60659967983725
0.0055                    -0.0315                  310.2916621077739
0.0055                    -0.0305                  310.28512580181234
0.0055                    -0.0295                  310.27841821559605
0.0055                    -0.0285                  310.27000125384035
0.0055                    -0.0275                  310.24937842545216
0.0055                    -0.0265                  310.22524324093945
0.0055                    -0.0255                  310.2011080564267
0.0055                    -0.0245                  310.17270351942693
0.0055                    -0.0235                  310.134975421834
0.0055                    -0.0225                  310.0961386714657
0.0055                    -0.0215                  310.05178040415655
0.0055                    -0.0205                  310.00129087522396
0.0055                    -0.0195                  309.94573082272404
0.0055                    -0.0185                  309.88488348018177
0.0055                    -0.0175                  309.8210674616164
0.0055                    -0.0165                  309.75086504610874
0.0055                    -0.0155                  309.6725417437078
0.0055                    -0.0145                  309.59489453083495
0.0055                    -0.0135                  309.51481023741894
0.0055                    -0.0125                  309.4316224755441
0.0055                    -0.0115                  309.34323694933727
0.0055                    -0.0105                  309.2462008276733
0.0055                    -0.0095                  301.44107963521185
0.0055                    -0.0085                  296.14415365882036
0.0055                    -0.0075                  295.8625261246534
0.0055                    -0.0065                  295.67214177825883
0.0055                    -0.0055                  295.34142709582574
0.0055                    -0.0045                  294.90089741138877
0.0055                    -0.0035                  294.12604170714513
0.0055                    -0.0025                  293.82904625619807
0.0055                    -0.0015                  293.61971297646824
0.0055                    -5.0E-4                  293.4989322998577
0.0055                    5.0E-4                   293.3370998606369
0.0055                    0.0015                   293.2875936166796
0.0055                    0.0025                   293.25263207879084
0.0055                    0.0035                   293.22480678626425
0.0055                    0.0045                   293.22295464858945
0.0055                    0.0055                   293.227726776037
0.0055                    0.0065                   293.30918916020397
0.0055                    0.0075                   293.371139596827
0.0055                    0.0085                   293.3453008269994
0.0055                    0.0095                   293.2185749864047
0.0055                    0.0105                   293.18567020930965
0.0055                    0.0115                   293.2352144324538
0.0055                    0.0125                   293.4961143852306
0.0055                    0.0135                   294.18209079823015
0.0055                    0.0145                   295.2711739862155
0.0055                    0.0155                   300.98408694482333
0.0055                    0.0165                   306.24819181962937
0.0055                    0.0175                   306.30576044981007
0.0055                    0.0185                   306.3512786417385
0.0055                    0.0195                   306.3884400409073
0.0055                    0.0205                   306.42051924478244
0.0055                    0.0215                   306.44876220267594
0.0055                    0.0225                   306.47331104674595
0.0055                    0.0235                   306.4967193899679
0.0055                    0.0245                   306.5165642194779
0.0055                    0.0255                   306.5353803037654
0.0055                    0.0265                   306.5522861407985
0.0055                    0.0275                   306.5642910650161
0.0055                    0.0285                   306.57590446950826
0.0055                    0.0295                   306.58593842722934
0.0055                    0.0305                   306.5895062237453
0.0055                    0.0315                   306.5922731760374
0.0065                    -0.0315                  310.2866309455071
0.0065                    -0.0305                  310.28009463954555
0.0065                    -0.0295                  310.273558333584
0.0065                    -0.0285                  310.26684637970106
0.0065                    -0.0275                  310.2445132690142
0.0065                    -0.0265                  310.2206055696223
0.0065                    -0.0255                  310.19669787023037
0.0065                    -0.0245                  310.1696509330069
0.0065                    -0.0235                  310.1313542664012
0.0065                    -0.0225                  310.0920893556061
0.0065                    -0.0215                  310.0478625709846
0.0065                    -0.0205                  309.9983550006915
0.0065                    -0.0195                  309.94197725203526
0.0065                    -0.0185                  309.8810231550942
0.0065                    -0.0175                  309.8108897977363
0.0065                    -0.0165                  309.737452862761
0.0065                    -0.0155                  309.6558680053222
0.0065                    -0.0145                  309.5702357349284
0.0065                    -0.0135                  309.48508860085246
0.0065                    -0.0125                  309.40108199334185
0.0065                    -0.0115                  309.31035231011595
0.0065                    -0.0105                  302.0870878418233
0.0065                    -0.0095                  295.68476203719916
0.0065                    -0.0085                  294.9754241757807
0.0065                    -0.0075                  294.64303524628036
0.0065                    -0.0065                  294.3298272965939
0.0065                    -0.0055                  294.0040747362094
0.0065                    -0.0045                  293.7348960555105
0.0065                    -0.0035                  293.6194385778988
0.0065                    -0.0025                  293.57235136033285
0.0065                    -0.0015                  293.4849509000413
0.0065                    -5.0E-4                  293.45914131598556
0.0065                    5.0E-4                   293.4704992576994
0.0065                    0.0015                   293.5104209148129
0.0065                    0.0025                   293.54330532629933
0.0065                    0.0035                   293.561830863075
0.0065                    0.0045                   293.84598676155434
0.0065                    0.0055                   294.852658163003
0.0065                    0.0065                   295.2740376253671
0.0065                    0.0075                   295.28139797427684
0.0065                    0.0085                   295.1599910230672
0.0065                    0.0095                   294.9774901658808
0.0065                    0.0105                   293.82147339081416
0.0065                    0.0115                   293.2620505825516