% Model:              模型结构导入comsolBench.mph
% Version:            COMSOL 6.2.0.339
% Date:               May 29 2026, 11:24
% Dimension:          2
% Nodes:              4096
% Expressions:        1
% Description:        温度
% Length unit:        m
% x                       y                        T (K)
5.0E-4                    -0.0315                  301.1940617049361
5.0E-4                    -0.0305                  301.1871418235746
5.0E-4                    -0.0295                  301.18015259669096
5.0E-4                    -0.0285                  301.1731633698073
5.0E-4                    -0.0275                  301.16179158649516
5.0E-4                    -0.0265                  301.1423335720247
5.0E-4                    -0.0255                  301.12247939804456
5.0E-4                    -0.0245                  301.10262522406435
5.0E-4                    -0.0235                  301.07949554764065
5.0E-4                    -0.0225                  301.0477771794251
5.0E-4                    -0.0215                  301.01500161798924
5.0E-4                    -0.0205                  300.9822260565533
5.0E-4                    -0.0195                  300.94777270187967
5.0E-4                    -0.0185                  300.90498634738833
5.0E-4                    -0.0175                  300.8607606447249
5.0E-4                    -0.0165                  300.81653494206137
5.0E-4                    -0.0155                  300.77128877713733
5.0E-4                    -0.0145                  300.7210989589521
5.0E-4                    -0.0135                  300.6705535920195
5.0E-4                    -0.0125                  300.6200082250869
5.0E-4                    -0.0115                  300.5691209597875
5.0E-4                    -0.0105                  300.522338151993
5.0E-4                    -0.0095                  300.4755553441984
5.0E-4                    -0.0085                  300.43152218043844
5.0E-4                    -0.0075                  300.3934520678997
5.0E-4                    -0.0065                  300.360129578188
5.0E-4                    -0.0055                  300.3349140664423
5.0E-4                    -0.0045                  300.3181996453677
5.0E-4                    -0.0035                  300.3105740585452
5.0E-4                    -0.0025                  300.3078874162547
5.0E-4                    -0.0015                  299.5506906777223
5.0E-4                    -5.0E-4                  298.82715363144314
5.0E-4                    5.0E-4                   298.1613405075302
5.0E-4                    0.0015                   297.86185242563005
5.0E-4                    0.0025                   297.9011667971547
5.0E-4                    0.0035                   297.95333756870684
5.0E-4                    0.0045                   298.00987501475566
5.0E-4                    0.0055                   298.04732253831276
5.0E-4                    0.0065                   297.98140140789315
5.0E-4                    0.0075                   296.22748270994504
5.0E-4                    0.0085                   293.18196550676214
5.0E-4                    0.0095                   293.15246971644143
5.0E-4                    0.0105                   293.1522527843167
5.0E-4                    0.0115                   293.15235300455225
5.0E-4                    0.0125                   293.15262677971924
5.0E-4                    0.0135                   293.1532724193745
5.0E-4                    0.0145                   293.1543739151505
5.0E-4                    0.0155                   293.1571884640691
5.0E-4                    0.0165                   293.2175948020563
5.0E-4                    0.0175                   293.8461296071459
5.0E-4                    0.0185                   293.68586313665605
5.0E-4                    0.0195                   293.2617354082963
5.0E-4                    0.0205                   293.1667617241896
5.0E-4                    0.0215                   293.15881750546464
5.0E-4                    0.0225                   293.16064637801355
5.0E-4                    0.0235                   293.17069337998396
5.0E-4                    0.0245                   296.36296868232114
5.0E-4                    0.0255                   299.4140620752146
5.0E-4                    0.0265                   300.31416999148763
5.0E-4                    0.0275                   301.1666706132523
5.0E-4                    0.0285                   301.17456439676783
5.0E-4                    0.0295                   301.18310304778237
5.0E-4                    0.0305                   301.19026422216183
5.0E-4                    0.0315                   301.19373233163844
0.0015                    -0.0315                  301.1896107775443
0.0015                    -0.0305                  301.18579333482785
0.0015                    -0.0295                  301.1790121445105
0.0015                    -0.0285                  301.17162008274585
0.0015                    -0.0275                  301.1568902553105
0.0015                    -0.0265                  301.1415374072648
0.0015                    -0.0255                  301.12168323328467
0.0015                    -0.0245                  301.1013141637382
0.0015                    -0.0235                  301.0742583411859
0.0015                    -0.0225                  301.04633014772463
0.0015                    -0.0215                  301.01355458628876
0.0015                    -0.0205                  300.98077902485284
0.0015                    -0.0195                  300.9425981169972
0.0015                    -0.0185                  300.90236940620787
0.0015                    -0.0175                  300.85814370354433
0.0015                    -0.0165                  300.81361381513557
0.0015                    -0.0155                  300.7649504215632
0.0015                    -0.0145                  300.71476599628863
0.0015                    -0.0135                  300.6642136576324
0.0015                    -0.0125                  300.6135753277189
0.0015                    -0.0115                  300.56189784891217
0.0015                    -0.0105                  300.51356353014114
0.0015                    -0.0095                  300.46735910536876
0.0015                    -0.0085                  300.4213984477521
0.0015                    -0.0075                  300.38402277604985
0.0015                    -0.0065                  300.35039826913277
0.0015                    -0.0055                  300.3231240632881
0.0015                    -0.0045                  300.30520463796813
0.0015                    -0.0035                  300.3011997832058
0.0015                    -0.0025                  299.15511866360487
0.0015                    -0.0015                  297.3434204193279
0.0015                    -5.0E-4                  296.36382900199334
0.0015                    5.0E-4                   296.13802727304903
0.0015                    0.0015                   296.2812084565513
0.0015                    0.0025                   296.5051918692715
0.0015                    0.0035                   296.7522694029725
0.0015                    0.0045                   296.8473180531686
0.0015                    0.0055                   296.85223550775106
0.0015                    0.0065                   296.6850618173113
0.0015                    0.0075                   294.62425059644926
0.0015                    0.0085                   293.16153781097614
0.0015                    0.0095                   293.1564655625942
0.0015                    0.0105                   293.15667217435475
0.0015                    0.0115                   293.15705997932207
0.0015                    0.0125                   293.1578711946736
0.0015                    0.0135                   293.1599730247825
0.0015                    0.0145                   293.16438313847414
0.0015                    0.0155                   293.18655813482025
0.0015                    0.0165                   293.5056928964759
0.0015                    0.0175                   293.91858696944144
0.0015                    0.0185                   293.95749151061347
0.0015                    0.0195                   293.5236737450949
0.0015                    0.0205                   293.2370213329742
0.0015                    0.0215                   293.1793942110471
0.0015                    0.0225                   293.17386755203273
0.0015                    0.0235                   293.22028776472985
0.0015                    0.0245                   293.7373654286377
0.0015                    0.0255                   297.0421896839743
0.0015                    0.0265                   298.9570150776564
0.0015                    0.0275                   301.15616515578586
0.0015                    0.0285                   301.1680909808126
0.0015                    0.0295                   301.18011225770704
0.0015                    0.0305                   301.1889626878208
0.0015                    0.0315                   301.1924769387458
0.0025                    -0.0315                  301.18515985015244
0.0025                    -0.0305                  301.181342407436
0.0025                    -0.0295                  301.1775249647196
0.0025                    -0.0285                  301.16671875156123
0.0025                    -0.0275                  301.1519889241259
0.0025                    -0.0265                  301.1372590966905
0.0025                    -0.0255                  301.1208870685248
0.0025                    -0.0245                  301.0960769572834
0.0025                    -0.0235                  301.06902113473114
0.0025                    -0.0225                  301.04196531217883
0.0025                    -0.0215                  301.0121075545882
0.0025                    -0.0205                  300.9763447680222
0.0025                    -0.0195                  300.93742353211474
0.0025                    -0.0185                  300.8985022962072
0.0025                    -0.0175                  300.8555267623638
0.0025                    -0.0165                  300.8072754595614
0.0025                    -0.0155                  300.75861206598904
0.0025                    -0.0145                  300.70844413215605
0.0025                    -0.0135                  300.6578739290058
0.0025                    -0.0125                  300.6065942845608
0.0025                    -0.0115                  300.5540595759663
0.0025                    -0.0105                  300.5010448798064
0.0025                    -0.0095                  300.45233117666413
0.0025                    -0.0085                  300.40361747352176
0.0025                    -0.0075                  300.3615339863113
0.0025                    -0.0065                  300.3251824285122
0.0025                    -0.0055                  300.2948331241023
0.0025                    -0.0045                  300.27423631017354
0.0025                    -0.0035                  299.4059203604379
0.0025                    -0.0025                  296.76996616067044
0.0025                    -0.0015                  295.71659495977224
0.0025                    -5.0E-4                  295.4853356687589
0.0025                    5.0E-4                   295.47910430417676
0.0025                    0.0015                   295.5444430403941
0.0025                    0.0025                   295.68647049601833
0.0025                    0.0035                   295.8994649368224
0.0025                    0.0045                   296.0539736992639
0.0025                    0.0055                   296.06677088965955
0.0025                    0.0065                   295.6371572979206
0.0025                    0.0075                   293.7772080384217
0.0025                    0.0085                   293.17865639272316
0.0025                    0.0095                   293.1602462047226
0.0025                    0.0105                   293.16127034622525
0.0025                    0.0115                   293.16205196361216
0.0025                    0.0125                   293.16431903676687
0.0025                    0.0135                   293.1693612273806
0.0025                    0.0145                   293.179574430983
0.0025                    0.0155                   293.5024921367814
0.0025                    0.0165                   293.97355896447084
0.0025                    0.0175                   293.97346269027656
0.0025                    0.0185                   294.02060098886136
0.0025                    0.0195                   293.72356917411634
0.0025                    0.0205                   293.3448261735522
0.0025                    0.0215                   293.2112007543442
0.0025                    0.0225                   293.19116075037067
0.0025                    0.0235                   293.2197368642967
0.0025                    0.0245                   293.52906147891605
0.0025                    0.0255                   294.76826451184934
0.0025                    0.0265                   298.0187012904814
0.0025                    0.0275                   301.1350315047064
0.0025                    0.0285                   301.16026237279834
0.0025                    0.0295                   301.1760215829953
0.0025                    0.0305                   301.1859438686006
0.0025                    0.0315                   301.19002479972454
0.0035                    -0.0315                  301.1807089227606
0.0035                    -0.0305                  301.1766783376508
0.0035                    -0.0295                  301.17047766909235
0.0035                    -0.0285                  301.160171268934
0.0035                    -0.0275                  301.14557290474573
0.0035                    -0.0265                  301.1309745405574
0.0035                    -0.0255                  301.1141671345367
0.0035                    -0.0245                  301.09006482786987
0.0035                    -0.0235                  301.06315099824553
0.0035                    -0.0225                  301.03623716862114
0.0035                    -0.0215                  301.0085657034837
0.0035                    -0.0205                  300.9701940641737
0.0035                    -0.0195                  300.93111396359257
0.0035                    -0.0185                  300.8920338630114
0.0035                    -0.0175                  300.84723229128014
0.0035                    -0.0165                  300.79805463577605
0.0035                    -0.0155                  300.74895317271785
0.0035                    -0.0145                  300.69825724616487
0.0035                    -0.0135                  300.64417857343557
0.0035                    -0.0125                  300.5875402281283
0.0035                    -0.0115                  300.5333628738231
0.0035                    -0.0105                  300.4760983866105
0.0035                    -0.0095                  300.42648744182543
0.0035                    -0.0085                  300.37843989287524
0.0035                    -0.0075                  300.330471627374
0.0035                    -0.0065                  300.28915769541527
0.0035                    -0.0055                  300.2528998710185
0.0035                    -0.0045                  300.2119144103092
0.0035                    -0.0035                  297.4596485256559
0.0035                    -0.0025                  295.4996666016119
0.0035                    -0.0015                  295.2744558740422
0.0035                    -5.0E-4                  295.2804885861
0.0035                    5.0E-4                   295.34706397145686
0.0035                    0.0015                   295.43826228782723
0.0035                    0.0025                   295.54577055135013
0.0035                    0.0035                   295.6853423054496
0.0035                    0.0045                   295.7069365888766
0.0035                    0.0055                   295.4356525353887
0.0035                    0.0065                   294.3707659113109
0.0035                    0.0075                   293.35789823000425
0.0035                    0.0085                   293.1644054369631
0.0035                    0.0095                   293.1649833902703
0.0035                    0.0105                   293.16611274250744
0.0035                    0.0115                   293.16754890829355
0.0035                    0.0125                   293.1720065776634
0.0035                    0.0135                   293.17998692377233
0.0035                    0.0145                   293.38120716466074
0.0035                    0.0155                   293.9838946916857
0.0035                    0.0165                   293.9994861341837
0.0035                    0.0175                   294.0084810005784
0.0035                    0.0185                   294.0189816874019
0.0035                    0.0195                   293.8151465027257
0.0035                    0.0205                   293.43962549525236
0.0035                    0.0215                   293.2617385875085
0.0035                    0.0225                   293.2130649037403
0.0035                    0.0235                   293.22603599714085
0.0035                    0.0245                   293.3600400756819
0.0035                    0.0255                   294.01830202181173
0.0035                    0.0265                   296.8717555766908
0.0035                    0.0275                   301.11668636772146
0.0035                    0.0285                   301.1534219841065
0.0035                    0.0295                   301.171732477392
0.0035                    0.0305                   301.18358853563814
0.0035                    0.0315                   301.18801831461144
0.0045                    -0.0315                  301.17396909357416
0.0045                    -0.0305                  301.16776842501577
0.0045                    -0.0295                  301.1615677564573
0.0045                    -0.0285                  301.15301925185054
0.0045                    -0.0275                  301.1384208876622
0.0045                    -0.0265                  301.12249246753305
0.0045                    -0.0255                  301.1026814801028
0.0045                    -0.0245                  301.08287049267244
0.0045                    -0.0235                  301.05626819968273
0.0045                    -0.0225                  301.0293543700584
0.0045                    -0.0215                  300.99687546220366
0.0045                    -0.0205                  300.9610849484234
0.0045                    -0.0195                  300.9220048478422
0.0045                    -0.0185                  300.88260582703947
0.0045                    -0.0175                  300.8358941278103
0.0045                    -0.0165                  300.78587204835696
0.0045                    -0.0155                  300.7362139998145
0.0045                    -0.0145                  300.6837595893356
0.0045                    -0.0135                  300.62579333054805
0.0045                    -0.0125                  300.5684899252604
0.0045                    -0.0115                  300.51062932276625
0.0045                    -0.0105                  300.45130315816687
0.0045                    -0.0095                  300.3933348115189
0.0045                    -0.0085                  300.33918935775466
0.0045                    -0.0075                  300.28885774817303
0.0045                    -0.0065                  300.24207118381344
0.0045                    -0.0055                  300.20044585318044
0.0045                    -0.0045                  298.1006095222217
0.0045                    -0.0035                  295.5145114571838
0.0045                    -0.0025                  295.1166174349383
0.0045                    -0.0015                  295.2419644274004
0.0045                    -5.0E-4                  295.3441663244759
0.0045                    5.0E-4                   295.3932780224123
0.0045                    0.0015                   295.4169864215869
0.0045                    0.0025                   295.38459107771774
0.0045                    0.0035                   295.34035728360925
0.0045                    0.0045                   295.07426986487866
0.0045                    0.0055                   294.4240759118146
0.0045                    0.0065                   293.76024543969066
0.0045                    0.0075                   293.2260933060348
0.0045                    0.0085                   293.16823253675153
0.0045                    0.0095                   293.16980022877834
0.0045                    0.0105                   293.1716007757034
0.0045                    0.0115                   293.17484567223573
0.0045                    0.0125                   293.18196306368515
0.0045                    0.0135                   293.2314493129039
0.0045                    0.0145                   293.6503746037213
0.0045                    0.0155                   294.0130541181542
0.0045                    0.0165                   294.0234955323922
0.0045                    0.0175                   294.03347157657953
0.0045                    0.0185                   294.040876118229
0.0045                    0.0195                   293.9451570512341
0.0045                    0.0205                   293.5464061253319
0.0045                    0.0215                   293.3313889345888
0.0045                    0.0225                   293.24248830569854
0.0045                    0.0235                   293.2235560226549
0.0045                    0.0245                   293.3239953899642
0.0045                    0.0255                   293.6953169082791
0.0045                    0.0265                   294.8925756982267
0.0045                    0.0275                   299.13014002274826
0.0045                    0.0285                   301.1540386739179
0.0045                    0.0295                   301.16990857991607
0.0045                    0.0305                   301.18200148280937
0.0045                    0.0315                   301.1864767637528
0.0055                    -0.0315                  301.16182865585137
0.0055                    -0.0305                  301.1576950944704
0.0055                    -0.0295                  301.15265784382234
0.0055                    -0.0285                  301.14586723476714
0.0055                    -0.0275                  301.13081780052937
0.0055                    -0.0265                  301.11100681309915
0.0055                    -0.0255                  301.0911958256688
0.0055                    -0.0245                  301.07138483823854
0.0055                    -0.0235                  301.04938540112
0.0055                    -0.0225                  301.01933377054297
0.0055                    -0.0215                  300.9851852209236
0.0055                    -0.0205                  300.9510366713043
0.0055                    -0.0195                  300.91289573209184
0.0055                    -0.0185                  300.87022999497174
0.0055                    -0.0175                  300.82368668868827
0.0055                    -0.0165                  300.7745338848872
0.0055                    -0.0155                  300.7229510292172
0.0055                    -0.0145                  300.66512259517066
0.0055                    -0.0135                  300.60726455120914
0.0055                    -0.0125                  300.5427532930929
0.0055                    -0.0115                  300.4785372495809
0.0055                    -0.0105                  300.4161323202503
0.0055                    -0.0095                  300.35168704451786
0.0055                    -0.0085                  300.29279534396767
0.0055                    -0.0075                  300.23909553500107
0.0055                    -0.0065                  300.18874707505364
0.0055                    -0.0055                  300.1135024489428
0.0055                    -0.0045                  296.43813996458374
0.0055                    -0.0035                  295.0219683534956
0.0055                    -0.0025                  295.1664004979367
0.0055                    -0.0015                  295.3270345049136
0.0055                    -5.0E-4                  295.41506701456456
0.0055                    5.0E-4                   295.39939183050797
0.0055                    0.0015                   295.31999502852136
0.0055                    0.0025                   295.14629167534304
0.0055                    0.0035                   294.73665174447876
0.0055                    0.0045                   294.31643855494497
0.0055                    0.0055                   293.776856247912
0.0055                    0.0065                   293.37897363629173
0.0055                    0.0075                   293.2019355303994
0.0055                    0.0085                   293.1718001500401
0.0055                    0.0095                   293.1756226908548
0.0055                    0.0105                   293.17776309754487
0.0055                    0.0115                   293.1839929504498
0.0055                    0.0125                   293.2086188345287
0.0055                    0.0135                   293.4906271575076
0.0055                    0.0145                   294.01285130801466
0.0055                    0.0155                   294.03107282342336
0.0055                    0.0165                   294.0439283715673
0.0055                    0.0175                   294.05460120101475
0.0055                    0.0185                   294.0639658589449
0.0055                    0.0195                   294.0365529213652
0.0055                    0.0205                   293.6670178192902
0.0055                    0.0215                   293.3908522065712
0.0055                    0.0225                   293.2732460820798
0.0055                    0.0235                   293.2496894713835
0.0055                    0.0245                   293.31140738616995
0.0055                    0.0255                   293.533987833052
0.0055                    0.0265                   294.2531385609255
0.0055                    0.0275                   297.82120787283844
0.0055                    0.0285                   301.14962186942915
0.0055                    0.0295                   301.1679923562657
0.0055                    0.0305                   301.1803086287713
0.0055                    0.0315                   301.18566833902423
0.0065                    -0.0315                  301.1494967623179
0.0065                    -0.0305                  301.14536320093686
0.0065                    -0.0295                  301.14122963955583
0.0065                    -0.0285                  301.13709607817486
0.0065                    -0.0275                  301.1191162619857
0.0065                    -0.0265                  301.0991887550921
0.0065                    -0.0255                  301.0792612481986
0.0065                    -0.0245                  301.059333741305
0.0065                    -0.0235                  301.03930698673065
0.0065                    -0.0225                  301.0074192935804
0.0065                    -0.0215                  300.97349497964353
0.0065                    -0.0205                  300.93934643002416
0.0065                    -0.0195                  300.90378661634145
0.0065                    -0.0185                  300.857854162904
0.0065                    -0.0175                  300.8113108566205
0.0065                    -0.0165                  300.7617314597915
0.0065                    -0.0155                  300.70392824937363
0.0065                    -0.0145                  300.6461224557848
0.0065                    -0.0135                  300.58292826857905
0.0065                    -0.0125                  300.5144593874772
0.0065                    -0.0115                  300.445071557617
0.0065                    -0.0105                  300.3728060450702
0.0065                    -0.0095                  300.30233088748207
0.0065                    -0.0085                  300.2361553723514
0.0065                    -0.0075                  300.1783198737991
0.0065                    -0.0065                  300.1354338569746
0.0065                    -0.0055                  296.86229012090934
0.0065                    -0.0045                  294.9322837296707
0.0065                    -0.0035                  294.95408350683255
0.0065                    -0.0025                  295.1191471740835
0.0065                    -0.0015                  295.1561874037529
0.0065                    -5.0E-4                  295.0436134582901
0.0065                    5.0E-4                   294.83888335056986
0.0065                    0.0015                   294.62386815111677
0.0065                    0.0025                   294.29375503532145
0.0065                    0.0035                   293.91215716825496
0.0065                    0.0045                   293.60816746797263
0.0065                    0.0055                   293.3818599419237
0.0065                    0.0065                   293.2105394744161
0.0065                    0.0075                   293.1807739962423
0.0065                    0.0085                   293.1789541025923
0.0065                    0.0095                   293.182051120044
0.0065                    0.0105                   293.1871928324986