% Model:              模型结构导入comsolBench.mph
% Version:            COMSOL 6.2.0.339
% Date:               May 28 2026, 17:45
% Dimension:          2
% Nodes:              4096
% Expressions:        1
% Description:        温度
% Length unit:        m
% x                       y                        T (K)
5.0E-4                    -0.0315                  309.259626860055
5.0E-4                    -0.0305                  309.2541520523085
5.0E-4                    -0.0295                  309.2486053519532
5.0E-4                    -0.0285                  309.2430586515979
5.0E-4                    -0.0275                  309.2341016001662
5.0E-4                    -0.0265                  309.21861275380394
5.0E-4                    -0.0255                  309.2030060025933
5.0E-4                    -0.0245                  309.1873992513827
5.0E-4                    -0.0235                  309.1691628015188
5.0E-4                    -0.0225                  309.14428501906855
5.0E-4                    -0.0215                  309.1188156479036
5.0E-4                    -0.0205                  309.0933462767385
5.0E-4                    -0.0195                  309.06628675899276
5.0E-4                    -0.0185                  309.0333959484695
5.0E-4                    -0.0175                  308.99956721005094
5.0E-4                    -0.0165                  308.9657384716324
5.0E-4                    -0.0155                  308.9309801410786
5.0E-4                    -0.0145                  308.8922826792458
5.0E-4                    -0.0135                  308.85328893596886
5.0E-4                    -0.0125                  308.81429519269193
5.0E-4                    -0.0115                  308.77514757866504
5.0E-4                    -0.0105                  308.73447944336897
5.0E-4                    -0.0095                  308.695209078411
5.0E-4                    -0.0085                  308.6559387134529
5.0E-4                    -0.0075                  308.6171109345863
5.0E-4                    -0.0065                  308.58098519669767
5.0E-4                    -0.0055                  308.5455765447041
5.0E-4                    -0.0045                  308.5112296899573
5.0E-4                    -0.0035                  308.48151124915216
5.0E-4                    -0.0025                  308.4524430464817
5.0E-4                    -0.0015                  308.42793104400744
5.0E-4                    -5.0E-4                  308.4055795067217
5.0E-4                    5.0E-4                   308.3874284621801
5.0E-4                    0.0015                   308.37422219975264
5.0E-4                    0.0025                   308.366612457346
5.0E-4                    0.0035                   307.84522586768935
5.0E-4                    0.0045                   306.6589013170417
5.0E-4                    0.0055                   305.97622120644974
5.0E-4                    0.0065                   305.38848213657957
5.0E-4                    0.0075                   304.5794812803547
5.0E-4                    0.0085                   303.723825696609
5.0E-4                    0.0095                   303.3692988188251
5.0E-4                    0.0105                   303.07260196271415
5.0E-4                    0.0115                   298.9150491315431
5.0E-4                    0.0125                   293.1949581103816
5.0E-4                    0.0135                   293.15203422370996
5.0E-4                    0.0145                   293.151862465744
5.0E-4                    0.0155                   293.1519579327173
5.0E-4                    0.0165                   293.15230547479433
5.0E-4                    0.0175                   293.15333471466266
5.0E-4                    0.0185                   293.1560874402094
5.0E-4                    0.0195                   295.3173777223503
5.0E-4                    0.0205                   301.099563510657
5.0E-4                    0.0215                   301.18923119360977
5.0E-4                    0.0225                   301.26044956518933
5.0E-4                    0.0235                   301.32118521751477
5.0E-4                    0.0245                   301.3737072720734
5.0E-4                    0.0255                   301.4219193781473
5.0E-4                    0.0265                   301.46163312102556
5.0E-4                    0.0275                   301.49609990225736
5.0E-4                    0.0285                   301.52808513079674
5.0E-4                    0.0295                   301.54323937707
5.0E-4                    0.0305                   301.55597201060345
5.0E-4                    0.0315                   301.56869281413947
0.0015                    -0.0315                  309.2539098528848
0.0015                    -0.0305                  309.25150714208525
0.0015                    -0.0295                  309.24617611955637
0.0015                    -0.0285                  309.2403227442618
0.0015                    -0.0275                  309.22882561570276
0.0015                    -0.0265                  309.21631716055845
0.0015                    -0.0255                  309.2007104093479
0.0015                    -0.0245                  309.1842735547736
0.0015                    -0.0235                  309.1633818820464
0.0015                    -0.0225                  309.1412239436314
0.0015                    -0.0215                  309.11575457246636
0.0015                    -0.0205                  309.09003505741214
0.0015                    -0.0195                  309.0600612824911
0.0015                    -0.0185                  309.0290599285496
0.0015                    -0.0175                  308.9952311901311
0.0015                    -0.0165                  308.9614024517125
0.0015                    -0.0155                  308.9233806965002
0.0015                    -0.0145                  308.8849826666977
0.0015                    -0.0135                  308.84598892342075
0.0015                    -0.0125                  308.8069951801439
0.0015                    -0.0115                  308.76563826633856
0.0015                    -0.0105                  308.72389686802575
0.0015                    -0.0095                  308.6846265030677
0.0015                    -0.0085                  308.6453561381096
0.0015                    -0.0075                  308.607690870613
0.0015                    -0.0065                  308.5704573611695
0.0015                    -0.0055                  308.5350487091759
0.0015                    -0.0045                  308.5032555506627
0.0015                    -0.0035                  308.47259602627554
0.0015                    -0.0025                  308.445891727177
0.0015                    -0.0015                  308.4205242598717
0.0015                    -5.0E-4                  308.3972981136845
0.0015                    5.0E-4                   308.3777067940473
0.0015                    0.0015                   308.36345851616034
0.0015                    0.0025                   308.3538300250632
0.0015                    0.0035                   307.89248518376064
0.0015                    0.0045                   306.9318217694492
0.0015                    0.0055                   305.1160927942008
0.0015                    0.0065                   303.4509781984096
0.0015                    0.0075                   301.77576877453123
0.0015                    0.0085                   300.8598194850784
0.0015                    0.0095                   300.3062447200874
0.0015                    0.0105                   299.5434135458705
0.0015                    0.0115                   295.81019113717787
0.0015                    0.0125                   293.1870085564257
0.0015                    0.0135                   293.1556677424232
0.0015                    0.0145                   293.15553557278963
0.0015                    0.0155                   293.1557250748683
0.0015                    0.0165                   293.1571085835151
0.0015                    0.0175                   293.1600113372992
0.0015                    0.0185                   293.2496935942771
0.0015                    0.0195                   296.3929190074133
0.0015                    0.0205                   301.13885546672606
0.0015                    0.0215                   301.2019155360711
0.0015                    0.0225                   301.2637204309208
0.0015                    0.0235                   301.3216391203213
0.0015                    0.0245                   301.3756962722248
0.0015                    0.0255                   301.42175391698686
0.0015                    0.0265                   301.46534399187806
0.0015                    0.0275                   301.49981077310986
0.0015                    0.0285                   301.5275105226877
0.0015                    0.0295                   301.5489224403179
0.0015                    0.0305                   301.561619583859
0.0015                    0.0315                   301.57297904958045
0.0025                    -0.0315                  309.2481928457146
0.0025                    -0.0305                  309.24579013491507
0.0025                    -0.0295                  309.24338742411544
0.0025                    -0.0285                  309.23504675979837
0.0025                    -0.0275                  309.2235496312393
0.0025                    -0.0265                  309.21205250268025
0.0025                    -0.0255                  309.1984148161024
0.0025                    -0.0245                  309.17849263530115
0.0025                    -0.0235                  309.15760096257395
0.0025                    -0.0225                  309.13670928984675
0.0025                    -0.0215                  309.1126934970293
0.0025                    -0.0205                  309.0838095809106
0.0025                    -0.0195                  309.0538358059896
0.0025                    -0.0185                  309.02386203106863
0.0025                    -0.0175                  308.9908951702112
0.0025                    -0.0165                  308.9538830145494
0.0025                    -0.0155                  308.9157812519218
0.0025                    -0.0145                  308.87767948929434
0.0025                    -0.0135                  308.83868891087263
0.0025                    -0.0125                  308.79805671352597
0.0025                    -0.0115                  308.7561289540122
0.0025                    -0.0105                  308.7142011944983
0.0025                    -0.0095                  308.6740439277244
0.0025                    -0.0085                  308.6357672202962
0.0025                    -0.0075                  308.5982708066397
0.0025                    -0.0065                  308.5607743929831
0.0025                    -0.0055                  308.5264342258695
0.0025                    -0.0045                  308.49121849815157
0.0025                    -0.0035                  308.4572203936461
0.0025                    -0.0025                  308.4285636087507
0.0025                    -0.0015                  308.4017001365239
0.0025                    -5.0E-4                  308.3788428726264
0.0025                    5.0E-4                   308.3587498897717
0.0025                    0.0015                   308.342074836651
0.0025                    0.0025                   308.32996346673957
0.0025                    0.0035                   307.43968400003655
0.0025                    0.0045                   304.97087342299585
0.0025                    0.0055                   302.0048678022262
0.0025                    0.0065                   299.82881551784135
0.0025                    0.0075                   299.23120364638567
0.0025                    0.0085                   298.7107768799996
0.0025                    0.0095                   298.54305811904237
0.0025                    0.0105                   297.6573748610002
0.0025                    0.0115                   294.01299326761665
0.0025                    0.0125                   293.18634307947576
0.0025                    0.0135                   293.1590187364666
0.0025                    0.0145                   293.1593974180481
0.0025                    0.0155                   293.16057490231026
0.0025                    0.0165                   293.1620982330488
0.0025                    0.0175                   293.1836380251724
0.0025                    0.0185                   293.7438670100381
0.0025                    0.0195                   297.37841347466644
0.0025                    0.0205                   301.16252017451893
0.0025                    0.0215                   301.21030565200914
0.0025                    0.0225                   301.2662741367196
0.0025                    0.0235                   301.32379903857964
0.0025                    0.0245                   301.37692967807385
0.0025                    0.0255                   301.4223710169665
0.0025                    0.0265                   301.4662441515077
0.0025                    0.0275                   301.4995088674717
0.0025                    0.0285                   301.5269359145786
0.0025                    0.0295                   301.55462462422383
0.0025                    0.0305                   301.5659058192999
0.0025                    0.0315                   301.5772652850214
0.0035                    -0.0315                  309.2424758385444
0.0035                    -0.0305                  309.23984061319186
0.0035                    -0.0295                  309.23415155207795
0.0035                    -0.0285                  309.22603965660875
0.0035                    -0.0275                  309.2149535522209
0.0035                    -0.0265                  309.203867447833
0.0035                    -0.0255                  309.19033572706246
0.0035                    -0.0245                  309.1702757737271
0.0035                    -0.0235                  309.149680733394
0.0035                    -0.0225                  309.129085693061
0.0035                    -0.0215                  309.1056718458134
0.0035                    -0.0205                  309.07588834601773
0.0035                    -0.0195                  309.0461048462221
0.0035                    -0.0185                  309.01632134642637
0.0035                    -0.0175                  308.98331449908414
0.0035                    -0.0165                  308.946283569971
0.0035                    -0.0155                  308.90818180734345
0.0035                    -0.0145                  308.870080044716
0.0035                    -0.0135                  308.83047516071343
0.0035                    -0.0125                  308.7885474011996
0.0035                    -0.0115                  308.74661964168575
0.0035                    -0.0105                  308.7046918821719
0.0035                    -0.0095                  308.66351981292513
0.0035                    -0.0085                  308.6210128639749
0.0035                    -0.0075                  308.5785059150247
0.0035                    -0.0065                  308.5359989660745
0.0035                    -0.0055                  308.50007141204105
0.0035                    -0.0045                  308.4648354126107
0.0035                    -0.0035                  308.43405668892365
0.0035                    -0.0025                  308.40646710005353
0.0035                    -0.0015                  308.379794498297
0.0035                    -5.0E-4                  308.35280534613037
0.0035                    5.0E-4                   308.33072883413496
0.0035                    0.0015                   308.31166170943044
0.0035                    0.0025                   308.2931293860963
0.0035                    0.0035                   305.25823503311824
0.0035                    0.0045                   301.0162401981429
0.0035                    0.0055                   298.89942010475727
0.0035                    0.0065                   298.21302260022674
0.0035                    0.0075                   298.0146692099448
0.0035                    0.0085                   297.9324077534431
0.0035                    0.0095                   297.3206347176626
0.0035                    0.0105                   295.1983133356185
0.0035                    0.0115                   293.66162320337577
0.0035                    0.0125                   293.1606036507227
0.0035                    0.0135                   293.1630696960282
0.0035                    0.0145                   293.1634637660106
0.0035                    0.0155                   293.16543829681996
0.0035                    0.0165                   293.1692466089479
0.0035                    0.0175                   293.3045287278002
0.0035                    0.0185                   294.35138582180656
0.0035                    0.0195                   298.9293953417332
0.0035                    0.0205                   301.15731804056287
0.0035                    0.0215                   301.207755356387
0.0035                    0.0225                   301.26598599056604
0.0035                    0.0235                   301.32331107575067
0.0035                    0.0245                   301.3776209824126
0.0035                    0.0255                   301.42603080374994
0.0035                    0.0265                   301.47083223566597
0.0035                    0.0275                   301.50962732242436
0.0035                    0.0285                   301.53793662835074
0.0035                    0.0295                   301.5608372124739
0.0035                    0.0305                   301.57102310395396
0.0035                    0.0315                   301.5815515204623
0.0045                    -0.0315                  309.2336861311549
0.0045                    -0.0305                  309.22799707004106
0.0045                    -0.0295                  309.22230800892714
0.0045                    -0.0285                  309.21555264800304
0.0045                    -0.0275                  309.20446654361507
0.0045                    -0.0265                  309.192053527634
0.0045                    -0.0255                  309.1763116762969
0.0045                    -0.0245                  309.1588419155123
0.0045                    -0.0235                  309.1382468751792
0.0045                    -0.0225                  309.117194692987
0.0045                    -0.0215                  309.09115573208123
0.0045                    -0.0205                  309.0629215369596
0.0045                    -0.0195                  309.03313803716395
0.0045                    -0.0185                  309.0024151841471
0.0045                    -0.0175                  308.9671411443031
0.0045                    -0.0165                  308.9303794522858
0.0045                    -0.0155                  308.8933627433134
0.0045                    -0.0145                  308.8550851379708
0.0045                    -0.0135                  308.8107242439137
0.0045                    -0.0125                  308.76768715447537
0.0045                    -0.0115                  308.72482380855797
0.0045                    -0.0105                  308.6819604626405
0.0045                    -0.0095                  308.6336105718692
0.0045                    -0.0085                  308.5912441519049
0.0045                    -0.0075                  308.5487372029547
0.0045                    -0.0065                  308.50745310841495
0.0045                    -0.0055                  308.4729899681051
0.0045                    -0.0045                  308.4384825730713
0.0045                    -0.0035                  308.40655061010347
0.0045                    -0.0025                  308.3741851084206
0.0045                    -0.0015                  308.34814110155986
0.0045                    -5.0E-4                  308.32128167859133
0.0045                    5.0E-4                   308.2940214194362
0.0045                    0.0015                   308.2696670535508
0.0045                    0.0025                   306.3166268250062
0.0045                    0.0035                   301.0594966473239
0.0045                    0.0045                   298.53950417614163
0.0045                    0.0055                   297.66200904272006
0.0045                    0.0065                   297.4737408841461
0.0045                    0.0075                   297.4507227002418
0.0045                    0.0085                   296.77157526597176
0.0045                    0.0095                   295.52111457387826
0.0045                    0.0105                   294.2692948633421
0.0045                    0.0115                   293.20931674102144
0.0045                    0.0125                   293.1610256879984
0.0045                    0.0135                   293.16735613186387
0.0045                    0.0145                   293.1703286902879
0.0045                    0.0155                   293.17521002666086
0.0045                    0.0165                   293.24014894755044
0.0045                    0.0175                   293.61064305636194
0.0045                    0.0185                   295.8268144410345
0.0045                    0.0195                   301.0562162914457
0.0045                    0.0205                   301.1296391181032
0.0045                    0.0215                   301.1941625296411
0.0045                    0.0225                   301.259337642519
0.0045                    0.0235                   301.3212182897008
0.0045                    0.0245                   301.37909911288546
0.0045                    0.0255                   301.4325241705946
0.0045                    0.0265                   301.474867692057
0.0045                    0.0275                   301.51591409647494
0.0045                    0.0285                   301.54932474052197
0.0045                    0.0295                   301.56704980072396
0.0045                    0.0305                   301.577235692204
0.0045                    0.0315                   301.59018202049685
0.0055                    -0.0315                  309.2174297631376
0.0055                    -0.0305                  309.21434769859167
0.0055                    -0.0295                  309.2104644657763
0.0055                    -0.0285                  309.2047754046624
0.0055                    -0.0275                  309.19377132820557
0.0055                    -0.0265                  309.17802947686846
0.0055                    -0.0255                  309.1622876255313
0.0055                    -0.0245                  309.1465457741941
0.0055                    -0.0235                  309.12681301696443
0.0055                    -0.0225                  309.10227097197776
0.0055                    -0.0215                  309.07623201107197
0.0055                    -0.0205                  309.0499547279015
0.0055                    -0.0195                  309.0201712281058
0.0055                    -0.0185                  308.98572782319593
0.0055                    -0.0175                  308.950453783352
0.0055                    -0.0165                  308.91446111445975
0.0055                    -0.0155                  308.87656773070876
0.0055                    -0.0145                  308.83299626101564
0.0055                    -0.0135                  308.78863703355944
0.0055                    -0.0125                  308.74363610010744
0.0055                    -0.0115                  308.700740033515
0.0055                    -0.0105                  308.65358920256097
0.0055                    -0.0095                  308.60365484505934
0.0055                    -0.0085                  308.5613041541021
0.0055                    -0.0075                  308.51895346314495
0.0055                    -0.0065                  308.4803583250869
0.0055                    -0.0055                  308.43732523826725
0.0055                    -0.0045                  308.3974205083613
0.0055                    -0.0035                  308.36781018533657
0.0055                    -0.0025                  308.33949111611946
0.0055                    -0.0015                  308.3118921611156
0.0055                    -5.0E-4                  308.2845372469849
0.0055                    5.0E-4                   308.25297993672046
0.0055                    0.0015                   308.2011123238896
0.0055                    0.0025                   303.0725193416311
0.0055                    0.0035                   298.40844605584795
0.0055                    0.0045                   297.381084847554
0.0055                    0.0055                   297.28234874939506
0.0055                    0.0065                   297.123373767
0.0055                    0.0075                   296.4968868991001
0.0055                    0.0085                   295.66456898944307
0.0055                    0.0095                   294.61707383339854
0.0055                    0.0105                   293.39904119757045
0.0055                    0.0115                   293.20149304172276
0.0055                    0.0125                   293.1639199852967
0.0055                    0.0135                   293.1725779189703
0.0055                    0.0145                   293.1787464339872
0.0055                    0.0155                   293.21715733632027
0.0055                    0.0165                   293.38267071587927
0.0055                    0.0175                   294.27458515994175
0.0055                    0.0185                   298.3816522694508
0.0055                    0.0195                   301.0197520539574
0.0055                    0.0205                   301.0983651113058
0.0055                    0.0215                   301.17695568224195
0.0055                    0.0225                   301.2517147189001
0.0055                    0.0235                   301.32056008101404
0.0055                    0.0245                   301.3779158058491
0.0055                    0.0255                   301.4403771773454
0.0055                    0.0265                   301.48086712992347
0.0055                    0.0275                   301.52031226807486
0.0055                    0.0285                   301.56071285269326
0.0055                    0.0295                   301.576115897462
0.0055                    0.0305                   301.59136993721063
0.0055                    0.0315                   301.6066239769592
0.0065                    -0.0315                  309.20095136337824
0.0065                    -0.0305                  309.19786929883236
0.0065                    -0.0295                  309.1947872342864
0.0065                    -0.0285                  309.19170516974054
0.0065                    -0.0275                  309.17920369633134
0.0065                    -0.0265                  309.1635135447442
0.0065                    -0.0255                  309.1478233931571
0.0065                    -0.0245                  309.13213324157
0.0065                    -0.0235                  309.11302903686294
0.0065                    -0.0225                  309.0871144418283
0.0065                    -0.0215                  309.06119984679367
0.0065                    -0.0205                  309.0352693291568
0.0065                    -0.0195                  309.00430912682884
0.0065                    -0.0185                  308.9689026449179
0.0065                    -0.0175                  308.93349616300685
0.0065                    -0.0165                  308.8977716305122
0.0065                    -0.0155                  308.85447885375356
0.0065                    -0.0145                  308.81090738406044
0.0065                    -0.0135                  308.7665498232051
0.0065                    -0.0125                  308.72154888975314
0.0065                    -0.0115                  308.6731912923291
0.0065                    -0.0105                  308.62409650033504
0.0065                    -0.0095                  308.5746284350847
0.0065                    -0.0085                  308.5269614793906
0.0065                    -0.0075                  308.47856270186725
0.0065                    -0.0065                  308.4311100196903
0.0065                    -0.0055                  308.39216215374967
0.0065                    -0.0045                  308.35517239799753
0.0065                    -0.0035                  308.32141388465544
0.0065                    -0.0025                  308.2954484612654
0.0065                    -0.0015                  308.27092383598455
0.0065                    -5.0E-4                  308.2459671610514
0.0065                    5.0E-4                   308.21671860754304
0.0065                    0.0015                   303.67928467993596
0.0065                    0.0025                   298.37207824976554
0.0065                    0.0035                   296.9367927911163
0.0065                    0.0045                   296.78777274751553
0.0065                    0.0055                   296.79046712234003
0.0065                    0.0065                   296.1933064662338
0.0065                    0.0075                   295.46975722527634
0.0065                    0.0085                   294.53127977774733
0.0065                    0.0095                   293.7249740855149
0.0065                    0.0105                   293.3067170355384
0.0065                    0.0115                   293.1722305451974