% Model:              模型结构导入comsolBench.mph
% Version:            COMSOL 6.2.0.339
% Date:               May 29 2026, 11:30
% Dimension:          2
% Nodes:              4096
% Expressions:        1
% Description:        温度
% Length unit:        m
% x                       y                        T (K)
5.0E-4                    -0.0315                  300.2431337923363
5.0E-4                    -0.0305                  300.2324565677848
5.0E-4                    -0.0295                  300.2217793432333
5.0E-4                    -0.0285                  300.2111021186819
5.0E-4                    -0.0275                  300.18741866307846
5.0E-4                    -0.0265                  300.15968607689047
5.0E-4                    -0.0255                  300.1308825742043
5.0E-4                    -0.0245                  300.0939014778456
5.0E-4                    -0.0235                  300.05458374257194
5.0E-4                    -0.0225                  300.01029026052197
5.0E-4                    -0.0215                  299.96367807937554
5.0E-4                    -0.0205                  299.9158640798962
5.0E-4                    -0.0195                  299.8706343768502
5.0E-4                    -0.0185                  299.8366042304714
5.0E-4                    -0.0175                  298.2648125078257
5.0E-4                    -0.0165                  295.48057105728293
5.0E-4                    -0.0155                  293.1676851436056
5.0E-4                    -0.0145                  293.15469861942415
5.0E-4                    -0.0135                  293.1545648643659
5.0E-4                    -0.0125                  293.15478203756567
5.0E-4                    -0.0115                  293.1556018611486
5.0E-4                    -0.0105                  293.15797624298153
5.0E-4                    -0.0095                  293.17260096247026
5.0E-4                    -0.0085                  294.31142498865404
5.0E-4                    -0.0075                  293.1556475506067
5.0E-4                    -0.0065                  293.1563819685647
5.0E-4                    -0.0055                  293.155745527215
5.0E-4                    -0.0045                  293.1543512146841
5.0E-4                    -0.0035                  293.15391355491863
5.0E-4                    -0.0025                  293.15386079903067
5.0E-4                    -0.0015                  293.15447236427843
5.0E-4                    -5.0E-4                  293.1584223857735
5.0E-4                    5.0E-4                   298.73291054627066
5.0E-4                    0.0015                   303.03445472791765
5.0E-4                    0.0025                   303.4230104191411
5.0E-4                    0.0035                   304.0724909107309
5.0E-4                    0.0045                   305.40038321983576
5.0E-4                    0.0055                   306.21111523097835
5.0E-4                    0.0065                   306.2447862326704
5.0E-4                    0.0075                   306.30351208170737
5.0E-4                    0.0085                   306.37866882412555
5.0E-4                    0.0095                   306.4659597819079
5.0E-4                    0.0105                   306.5571727560357
5.0E-4                    0.0115                   306.65039464107485
5.0E-4                    0.0125                   306.74362620195996
5.0E-4                    0.0135                   306.834543825588
5.0E-4                    0.0145                   306.92383248085054
5.0E-4                    0.0155                   307.01242205020566
5.0E-4                    0.0165                   307.0932571065338
5.0E-4                    0.0175                   307.1704900653809
5.0E-4                    0.0185                   307.2477230242279
5.0E-4                    0.0195                   307.3221390027506
5.0E-4                    0.0205                   307.3830597466563
5.0E-4                    0.0215                   307.4412426234638
5.0E-4                    0.0225                   307.4994255002714
5.0E-4                    0.0235                   307.55546784405203
5.0E-4                    0.0245                   307.59631841162894
5.0E-4                    0.0255                   307.6321302352191
5.0E-4                    0.0265                   307.6679420588093
5.0E-4                    0.0275                   307.7037538823995
5.0E-4                    0.0285                   307.7231897169946
5.0E-4                    0.0295                   307.7354313948483
5.0E-4                    0.0305                   307.74767307270196
5.0E-4                    0.0315                   307.7599147505556
0.0015                    -0.0315                  300.243296066216
0.0015                    -0.0305                  300.23504110963336
0.0015                    -0.0295                  300.2243638850819
0.0015                    -0.0285                  300.2101026522016
0.0015                    -0.0275                  300.18765760082005
0.0015                    -0.0265                  300.1615463655158
0.0015                    -0.0255                  300.12851088346605
0.0015                    -0.0245                  300.0943933499864
0.0015                    -0.0235                  300.0522633757077
0.0015                    -0.0225                  300.00901159855357
0.0015                    -0.0215                  299.9601827786594
0.0015                    -0.0205                  299.9084072712009
0.0015                    -0.0195                  299.8568878204171
0.0015                    -0.0185                  299.8000641340442
0.0015                    -0.0175                  295.9121995670128
0.0015                    -0.0165                  293.70729133788916
0.0015                    -0.0155                  293.16450760128635
0.0015                    -0.0145                  293.16323107340827
0.0015                    -0.0135                  293.1635351642505
0.0015                    -0.0125                  293.16447367330153
0.0015                    -0.0115                  293.1677465190788
0.0015                    -0.0105                  293.1842007787226
0.0015                    -0.0095                  294.17463809940614
0.0015                    -0.0085                  295.1468232455795
0.0015                    -0.0075                  293.9388307196961
0.0015                    -0.0065                  293.14598473759594
0.0015                    -0.0055                  293.16479387280697
0.0015                    -0.0045                  293.1637797880028
0.0015                    -0.0035                  293.1618348744148
0.0015                    -0.0025                  293.16151416326363
0.0015                    -0.0015                  293.16211141218866
0.0015                    -5.0E-4                  293.18484300721764
0.0015                    5.0E-4                   295.6405299486245
0.0015                    0.0015                   300.0899700662763
0.0015                    0.0025                   300.0306429893438
0.0015                    0.0035                   300.98959084357466
0.0015                    0.0045                   303.9697079985249
0.0015                    0.0055                   306.172376951896
0.0015                    0.0065                   306.21653211174106
0.0015                    0.0075                   306.2806101849407
0.0015                    0.0085                   306.36583065510035
0.0015                    0.0095                   306.45720509065717
0.0015                    0.0105                   306.55177468927184
0.0015                    0.0115                   306.64565919460193
0.0015                    0.0125                   306.7391976804902
0.0015                    0.0135                   306.83273395482826
0.0015                    0.0145                   306.9220226100908
0.0015                    0.0155                   307.00840959167044
0.0015                    0.0165                   307.0941877432941
0.0015                    0.0175                   307.17172370970405
0.0015                    0.0185                   307.2481437679472
0.0015                    0.0195                   307.31864454180965
0.0015                    0.0205                   307.38669846595593
0.0015                    0.0215                   307.44488134276344
0.0015                    0.0225                   307.503064219571
0.0015                    0.0235                   307.5525187899895
0.0015                    0.0245                   307.60038710121484
0.0015                    0.0255                   307.636198924805
0.0015                    0.0265                   307.6720107483951
0.0015                    0.0275                   307.70166708992
0.0015                    0.0285                   307.72616866754765
0.0015                    0.0295                   307.73927627784064
0.0015                    0.0305                   307.75151795569434
0.0015                    0.0315                   307.76037508192314
0.0025                    -0.0315                  300.2433519407324
0.0025                    -0.0305                  300.23541618223965
0.0025                    -0.0295                  300.2269484269305
0.0025                    -0.0285                  300.2082687411181
0.0025                    -0.0275                  300.186247569186
0.0025                    -0.0265                  300.16104537473734
0.0025                    -0.0255                  300.12741800974254
0.0025                    -0.0245                  300.0924234751649
0.0025                    -0.0235                  300.0500166759374
0.0025                    -0.0225                  300.0045279184467
0.0025                    -0.0215                  299.95487005093145
0.0025                    -0.0205                  299.89934629712945
0.0025                    -0.0195                  299.8400157047357
0.0025                    -0.0185                  299.7580898110627
0.0025                    -0.0175                  294.5049818446641
0.0025                    -0.0165                  293.2498726144073
0.0025                    -0.0155                  293.17059842377245
0.0025                    -0.0145                  293.171880823474
0.0025                    -0.0135                  293.17270589717435
0.0025                    -0.0125                  293.1770370456573
0.0025                    -0.0115                  293.1994750924436
0.0025                    -0.0105                  294.0361166282946
0.0025                    -0.0095                  295.46510488408853
0.0025                    -0.0085                  295.4221147185702
0.0025                    -0.0075                  294.6915016413416
0.0025                    -0.0065                  293.3530775429652
0.0025                    -0.0055                  293.16015771892296
0.0025                    -0.0045                  293.1707202033221
0.0025                    -0.0035                  293.1710070277042
0.0025                    -0.0025                  293.16928863760677
0.0025                    -0.0015                  293.1682951598833
0.0025                    -5.0E-4                  293.18524382555006
0.0025                    5.0E-4                   293.97936735511786
0.0025                    0.0015                   297.0396680291494
0.0025                    0.0025                   298.8944236919713
0.0025                    0.0035                   299.0834536950222
0.0025                    0.0045                   302.82503136854484
0.0025                    0.0055                   306.0965212102624
0.0025                    0.0065                   306.155807391236
0.0025                    0.0075                   306.24194308260644
0.0025                    0.0085                   306.33570853086985
0.0025                    0.0095                   306.43811111809555
0.0025                    0.0105                   306.53687551880853
0.0025                    0.0115                   306.6363906704358
0.0025                    0.0125                   306.73252372858747
0.0025                    0.0135                   306.82750190038416
0.0025                    0.0145                   306.91861898151154
0.0025                    0.0155                   307.0043971331352
0.0025                    0.0165                   307.09017528475897
0.0025                    0.0175                   307.1729573540272
0.0025                    0.0185                   307.2446493070062
0.0025                    0.0195                   307.31515008086865
0.0025                    0.0205                   307.3856508547311
0.0025                    0.0215                   307.4485200620631
0.0025                    0.0225                   307.50100279819367
0.0025                    0.0235                   307.549569735927
0.0025                    0.0245                   307.5981366736604
0.0025                    0.0255                   307.64026761439084
0.0025                    0.0265                   307.67479331551425
0.0025                    0.0275                   307.69929489314194
0.0025                    0.0285                   307.72379647076957
0.0025                    0.0295                   307.743121160833
0.0025                    0.0305                   307.75216130083527
0.0025                    0.0315                   307.760743906404
0.0035                    -0.0315                  300.2434078152488
0.0035                    -0.0305                  300.2357105553166
0.0035                    -0.0295                  300.22880472283333
0.0035                    -0.0285                  300.20892247916606
0.0035                    -0.0275                  300.18734381939566
0.0035                    -0.0265                  300.15964393212755
0.0035                    -0.0255                  300.12718488391306
0.0035                    -0.0245                  300.08932591917
0.0035                    -0.0235                  300.0472969776058
0.0035                    -0.0225                  299.9994623092428
0.0035                    -0.0215                  299.94746681223256
0.0035                    -0.0205                  299.88903553325605
0.0035                    -0.0195                  299.82548171623216
0.0035                    -0.0185                  296.42506552987135
0.0035                    -0.0175                  293.55274458731014
0.0035                    -0.0165                  293.1986356169073
0.0035                    -0.0155                  293.18023575887645
0.0035                    -0.0145                  293.1813247576963
0.0035                    -0.0135                  293.18619700979036
0.0035                    -0.0125                  293.21939751786647
0.0035                    -0.0115                  293.93962699019943
0.0035                    -0.0105                  295.5882191696654
0.0035                    -0.0095                  295.6015898668954
0.0035                    -0.0085                  295.60196992384687
0.0035                    -0.0075                  295.61213355376884
0.0035                    -0.0065                  294.278514222004
0.0035                    -0.0055                  293.2044335787337
0.0035                    -0.0045                  293.1782679879194
0.0035                    -0.0035                  293.1793895452871
0.0035                    -0.0025                  293.17822337529094
0.0035                    -0.0015                  293.17478428596263
0.0035                    -5.0E-4                  293.1681535435456
0.0035                    5.0E-4                   293.57413343182066
0.0035                    0.0015                   294.76252320398413
0.0035                    0.0025                   296.99098631017813
0.0035                    0.0035                   298.36590431373054
0.0035                    0.0045                   301.9980529530513
0.0035                    0.0055                   305.95061140617975
0.0035                    0.0065                   306.0607915578956
0.0035                    0.0075                   306.1869587974388
0.0035                    0.0085                   306.30728045508636
0.0035                    0.0095                   306.4158815544072
0.0035                    0.0105                   306.52180154411553
0.0035                    0.0115                   306.6238863772152
0.0035                    0.0125                   306.72223875887363
0.0035                    0.0135                   306.81803323358145
0.0035                    0.0145                   306.9134768640452
0.0035                    0.0155                   306.99940419701505
0.0035                    0.0165                   307.08533152998496
0.0035                    0.0175                   307.17093363469405
0.0035                    0.0185                   307.2436070709326
0.0035                    0.0195                   307.3135812024346
0.0035                    0.0205                   307.3835553339366
0.0035                    0.0215                   307.45073384992185
0.0035                    0.0225                   307.4985844879306
0.0035                    0.0235                   307.5466206818645
0.0035                    0.0245                   307.5951876195978
0.0035                    0.0255                   307.64375455733125
0.0035                    0.0265                   307.67242111873617
0.0035                    0.0275                   307.69821665996096
0.0035                    0.0285                   307.7243003107213
0.0035                    0.0295                   307.7448149876781
0.0035                    0.0305                   307.7525301253161
0.0035                    0.0315                   307.7611127308848
0.0045                    -0.0315                  300.2450808269074
0.0045                    -0.0305                  300.23815874578304
0.0045                    -0.0295                  300.2312529132998
0.0045                    -0.0285                  300.21020024329204
0.0045                    -0.0275                  300.18844006960546
0.0045                    -0.0265                  300.15824248951776
0.0045                    -0.0255                  300.12581961287896
0.0045                    -0.0245                  300.08669781995786
0.0045                    -0.0235                  300.0446829732972
0.0045                    -0.0225                  299.99581313158694
0.0045                    -0.0215                  299.94195220662397
0.0045                    -0.0205                  299.88132436892147
0.0045                    -0.0195                  299.79407912213196
0.0045                    -0.0185                  294.45751438502265
0.0045                    -0.0175                  293.3302212955189
0.0045                    -0.0165                  293.1991313844623
0.0045                    -0.0155                  293.18898279344046
0.0045                    -0.0145                  293.1962830908004
0.0045                    -0.0135                  293.22817557462696
0.0045                    -0.0125                  293.4736120145405
0.0045                    -0.0115                  294.77492589643236
0.0045                    -0.0105                  295.73079063758075
0.0045                    -0.0095                  295.73504549528275
0.0045                    -0.0085                  295.7458005118289
0.0045                    -0.0075                  295.7689951186281
0.0045                    -0.0065                  295.32171055525464
0.0045                    -0.0055                  293.59086046326536
0.0045                    -0.0045                  293.230453151284
0.0045                    -0.0035                  293.1887390129517
0.0045                    -0.0025                  293.18762916962237
0.0045                    -0.0015                  293.1806723769253
0.0045                    -5.0E-4                  293.17525594815686
0.0045                    5.0E-4                   293.2962632009308
0.0045                    0.0015                   293.90673904376257
0.0045                    0.0025                   295.1091641242182
0.0045                    0.0035                   296.7286818932505
0.0045                    0.0045                   301.25443220260865
0.0045                    0.0055                   305.7448079566076
0.0045                    0.0065                   305.96512465826163
0.0045                    0.0075                   306.1355786807451
0.0045                    0.0085                   306.2691527182545
0.0045                    0.0095                   306.3914460243826
0.0045                    0.0105                   306.5045007033656
0.0045                    0.0115                   306.6088339167267
0.0045                    0.0125                   306.7125093668303
0.0045                    0.0135                   306.80954665052184
0.0045                    0.0145                   306.906354714514
0.0045                    0.0155                   306.99422732366645
0.0045                    0.0165                   307.07993255270054
0.0045                    0.0175                   307.16530994465325
0.0045                    0.0185                   307.2451759470006
0.0045                    0.0195                   307.3151500785026
0.0045                    0.0205                   307.3851242100046
0.0045                    0.0215                   307.44970305203617
0.0045                    0.0225                   307.5028449449369
0.0045                    0.0235                   307.55069558294565
0.0045                    0.0245                   307.59854622095446
0.0045                    0.0255                   307.6457398492379
0.0045                    0.0265                   307.67617236397354
0.0045                    0.0275                   307.70239714878795
0.0045                    0.0285                   307.7284807995482
0.0045                    0.0295                   307.7468969606828
0.0045                    0.0305                   307.7546072135319
0.0045                    0.0315                   307.76231746638103
0.0055                    -0.0315                  300.2495532719638
0.0055                    -0.0305                  300.24084222826923
0.0055                    -0.0295                  300.23341485479506
0.0055                    -0.0285                  300.21155496801407
0.0055                    -0.0275                  300.18899937413096
0.0055                    -0.0265                  300.15675809824313
0.0055                    -0.0255                  300.12432902231143
0.0055                    -0.0245                  300.08408903454597
0.0055                    -0.0235                  300.04031934212094
0.0055                    -0.0225                  299.9914900564579
0.0055                    -0.0215                  299.9369764121261
0.0055                    -0.0205                  299.8795726413317
0.0055                    -0.0195                  297.0941121555976
0.0055                    -0.0185                  293.78092475361876
0.0055                    -0.0175                  293.2193376737677
0.0055                    -0.0165                  293.2002831461848
0.0055                    -0.0155                  293.19981506590705
0.0055                    -0.0145                  293.22771996900525
0.0055                    -0.0135                  293.3399752904042
0.0055                    -0.0125                  294.2878427893375
0.0055                    -0.0115                  295.83771208564684
0.0055                    -0.0105                  295.8497185612442
0.0055                    -0.0095                  295.85804987375855
0.0055                    -0.0085                  295.87408123725305
0.0055                    -0.0075                  295.9047209594447
0.0055                    -0.0065                  295.9517993624293
0.0055                    -0.0055                  294.824454618568
0.0055                    -0.0045                  293.4636388389556
0.0055                    -0.0035                  293.21469742928224
0.0055                    -0.0025                  293.19930312029214
0.0055                    -0.0015                  293.19419470779843
0.0055                    -5.0E-4                  293.1762044543586
0.0055                    5.0E-4                   293.22456191307816
0.0055                    0.0015                   293.47414778690234
0.0055                    0.0025                   294.06472220526416
0.0055                    0.0035                   295.08332684059116
0.0055                    0.0045                   299.6084703452261
0.0055                    0.0055                   305.5495532638512
0.0055                    0.0065                   305.91067754619286
0.0055                    0.0075                   306.1054797104549
0.0055                    0.0085                   306.2478698706247
0.0055                    0.0095                   306.37248107869516
0.0055                    0.0105                   306.48668219533454
0.0055                    0.0115                   306.5924853093345
0.0055                    0.0125                   306.6969225027598
0.0055                    0.0135                   306.7973336412752
0.0055                    0.0145                   306.8977447797905
0.0055                    0.0155                   306.9889314707069
0.0055                    0.0165                   307.0743088626596
0.0055                    0.0175                   307.15968625461227
0.0055                    0.0185                   307.245063646565
0.0055                    0.0195                   307.3167189545706
0.0055                    0.0205                   307.38370918924545
0.0055                    0.0215                   307.44750569886753
0.0055                    0.0225                   307.5071054019432
0.0055                    0.0235                   307.55495603995195
0.0055                    0.0245                   307.60202424055103
0.0055                    0.0255                   307.64890414361
0.0055                    0.0265                   307.67872199124747
0.0055                    0.0275                   307.70613881550236
0.0055                    0.0285                   307.73266128837514
0.0055                    0.0295                   307.74897893368745
0.0055                    0.0305                   307.7572043237387
0.0055                    0.0315                   307.7663836867217
0.0065                    -0.0315                  300.2540257170202
0.0065                    -0.0305                  300.2453146733257
0.0065                    -0.0295                  300.23613662946394
0.0065                    -0.0285                  300.21156596993956
0.0065                    -0.0275                  300.1888547263447
0.0065                    -0.0265                  300.1587095598069
0.0065                    -0.0255                  300.1228182866023
0.0065                    -0.0245                  300.0806931051985
0.0065                    -0.0235                  300.0359506388991
0.0065                    -0.0225                  299.98725190235865
0.0065                    -0.0215                  299.9339936045548
0.0065                    -0.0205                  299.85937253457973
0.0065                    -0.0195                  295.08753801649794
0.0065                    -0.0185                  293.4403279878161
0.0065                    -0.0175                  293.222091805738
0.0065                    -0.0165                  293.2089619404628
0.0065                    -0.0155                  293.21456811628775
0.0065                    -0.0145                  293.28256215961346
0.0065                    -0.0135                  293.5974460530979
0.0065                    -0.0125                  295.0657013108224
0.0065                    -0.0115                  295.95010760223556
0.0065                    -0.0105                  295.9563343277293
0.0065                    -0.0095                  295.96908373961963
0.0065                    -0.0085                  295.98739613134273
0.0065                    -0.0075                  296.01527467681706
0.0065                    -0.0065                  296.0480170853504
0.0065                    -0.0055                  296.08552958150057
0.0065                    -0.0045                  294.78530053779264
0.0065                    -0.0035                  293.42522852903664
0.0065                    -0.0025                  293.2423975584058
0.0065                    -0.0015                  293.20838542568015
0.0065                    -5.0E-4                  293.199154063117
0.0065                    5.0E-4                   293.18159993373735
0.0065                    0.0015                   293.2828473608234
0.0065                    0.0025                   293.62174538090846
0.0065                    0.0035                   294.1437261507525
0.0065                    0.0045                   294.88444246537426
0.0065                    0.0055                   300.2644947081385
0.0065                    0.0065                   305.9434973609012
0.0065                    0.0075                   306.1074779212183
0.0065                    0.0085                   306.24142298972424
0.0065                    0.0095                   306.3590056211904
0.0065                    0.0105                   306.46843133275854