% Model:              模型结构导入comsolBench.mph
% Version:            COMSOL 6.2.0.339
% Date:               May 29 2026, 11:30
% Dimension:          2
% Nodes:              4096
% Expressions:        1
% Description:        温度
% Length unit:        m
% x                       y                        T (K)
5.0E-4                    -0.0315                  296.9347211406775
5.0E-4                    -0.0305                  296.93312048003406
5.0E-4                    -0.0295                  296.93151981939064
5.0E-4                    -0.0285                  296.93011712673217
5.0E-4                    -0.0275                  296.9293382866989
5.0E-4                    -0.0265                  296.9283031070645
5.0E-4                    -0.0255                  296.92789646828624
5.0E-4                    -0.0245                  296.92764055370424
5.0E-4                    -0.0235                  296.9281651031353
5.0E-4                    -0.0225                  296.9289121250317
5.0E-4                    -0.0215                  296.93022654650235
5.0E-4                    -0.0205                  296.9319487908791
5.0E-4                    -0.0195                  297.13231719579863
5.0E-4                    -0.0185                  296.8650287665363
5.0E-4                    -0.0175                  296.4787319164689
5.0E-4                    -0.0165                  295.3024364006766
5.0E-4                    -0.0155                  293.18172774051374
5.0E-4                    -0.0145                  293.1523844169055
5.0E-4                    -0.0135                  293.15223757958654
5.0E-4                    -0.0125                  293.15241706871063
5.0E-4                    -0.0115                  293.1523425893164
5.0E-4                    -0.0105                  293.15419411487414
5.0E-4                    -0.0095                  293.2789756259807
5.0E-4                    -0.0085                  293.4009417401613
5.0E-4                    -0.0075                  293.4000338510219
5.0E-4                    -0.0065                  293.2556144625417
5.0E-4                    -0.0055                  293.1532830179525
5.0E-4                    -0.0045                  293.15205757975883
5.0E-4                    -0.0035                  293.1519212466701
5.0E-4                    -0.0025                  293.1518430326336
5.0E-4                    -0.0015                  293.1519293593919
5.0E-4                    -5.0E-4                  293.17432360138184
5.0E-4                    5.0E-4                   294.6766798210632
5.0E-4                    0.0015                   295.4667875355293
5.0E-4                    0.0025                   295.43638970543327
5.0E-4                    0.0035                   295.3481367148013
5.0E-4                    0.0045                   295.41354869882736
5.0E-4                    0.0055                   295.8355464407832
5.0E-4                    0.0065                   296.46609027140016
5.0E-4                    0.0075                   297.7153426248273
5.0E-4                    0.0085                   297.87541491006186
5.0E-4                    0.0095                   298.2468150344324
5.0E-4                    0.0105                   298.817491120311
5.0E-4                    0.0115                   299.5125791029438
5.0E-4                    0.0125                   300.2422319382689
5.0E-4                    0.0135                   300.69953290481936
5.0E-4                    0.0145                   301.04723910626967
5.0E-4                    0.0155                   301.3384779098039
5.0E-4                    0.0165                   301.5750346606079
5.0E-4                    0.0175                   301.7714785776586
5.0E-4                    0.0185                   301.93061168932417
5.0E-4                    0.0195                   302.0755459887281
5.0E-4                    0.0205                   302.19077680174
5.0E-4                    0.0215                   302.29761723387355
5.0E-4                    0.0225                   302.38791345770926
5.0E-4                    0.0235                   302.4604465362717
5.0E-4                    0.0245                   302.5329796148342
5.0E-4                    0.0255                   302.5845811528994
5.0E-4                    0.0265                   302.6268792069003
5.0E-4                    0.0275                   302.66917726090117
5.0E-4                    0.0285                   302.7001556651871
5.0E-4                    0.0295                   302.71404977867917
5.0E-4                    0.0305                   302.72794389217125
5.0E-4                    0.0315                   302.7416492615244
0.0015                    -0.0315                  296.9258451331136
0.0015                    -0.0305                  296.92695817693436
0.0015                    -0.0295                  296.925357516291
0.0015                    -0.0285                  296.9244689310363
0.0015                    -0.0275                  296.92409593130907
0.0015                    -0.0265                  296.92344102440967
0.0015                    -0.0255                  296.92335158923106
0.0015                    -0.0245                  296.92298365807505
0.0015                    -0.0235                  296.92228237497113
0.0015                    -0.0225                  296.9232819880765
0.0015                    -0.0215                  296.9247441553189
0.0015                    -0.0205                  296.92592063216904
0.0015                    -0.0195                  296.74774308707686
0.0015                    -0.0185                  295.8945403032632
0.0015                    -0.0175                  295.33354182964047
0.0015                    -0.0165                  294.3949915159707
0.0015                    -0.0155                  293.1720765151127
0.0015                    -0.0145                  293.15642476720507
0.0015                    -0.0135                  293.156614088883
0.0015                    -0.0125                  293.15687337957877
0.0015                    -0.0115                  293.15668508964393
0.0015                    -0.0105                  293.18288692189435
0.0015                    -0.0095                  293.3444973391765
0.0015                    -0.0085                  293.45260058376255
0.0015                    -0.0075                  293.45064086774806
0.0015                    -0.0065                  293.3151942979549
0.0015                    -0.0055                  293.1735870304426
0.0015                    -0.0045                  293.1559224759768
0.0015                    -0.0035                  293.1555961222218
0.0015                    -0.0025                  293.1553613204362
0.0015                    -0.0015                  293.1556055219593
0.0015                    -5.0E-4                  293.1834173156622
0.0015                    5.0E-4                   294.15133941353895
0.0015                    0.0015                   294.9935376055938
0.0015                    0.0025                   294.89114506786433
0.0015                    0.0035                   294.70114681169747
0.0015                    0.0045                   294.4766372785954
0.0015                    0.0055                   294.3829953159949
0.0015                    0.0065                   294.3560517653947
0.0015                    0.0075                   294.52894057818537
0.0015                    0.0085                   294.70043926155375
0.0015                    0.0095                   295.20920711374424
0.0015                    0.0105                   295.3378396847233
0.0015                    0.0115                   296.01535183933447
0.0015                    0.0125                   298.30119305731864
0.0015                    0.0135                   300.7565515858443
0.0015                    0.0145                   301.09390529548045
0.0015                    0.0155                   301.38430993880115
0.0015                    0.0165                   301.60974561381505
0.0015                    0.0175                   301.7852513380616
0.0015                    0.0185                   301.9508248416636
0.0015                    0.0195                   302.082234240197
0.0015                    0.0205                   302.20683823884735
0.0015                    0.0215                   302.30784649312176
0.0015                    0.0225                   302.39488730159985
0.0015                    0.0235                   302.4724371142646
0.0015                    0.0245                   302.53494620416035
0.0015                    0.0255                   302.58992144485853
0.0015                    0.0265                   302.63552857783753
0.0015                    0.0275                   302.67020704454666
0.0015                    0.0285                   302.7029293936629
0.0015                    0.0295                   302.72040026210817
0.0015                    0.0305                   302.7337281431834
0.0015                    0.0315                   302.7444013578396
0.0025                    -0.0315                  296.91690113306686
0.0025                    -0.0305                  296.9182181543366
0.0025                    -0.0295                  296.9191952131913
0.0025                    -0.0285                  296.91653933538083
0.0025                    -0.0275                  296.91302181049997
0.0025                    -0.0265                  296.9112377689314
0.0025                    -0.0255                  296.9090554788004
0.0025                    -0.0245                  296.90986476485244
0.0025                    -0.0235                  296.9105943363206
0.0025                    -0.0225                  296.9127294924239
0.0025                    -0.0215                  296.91460174985957
0.0025                    -0.0205                  296.9162828034001
0.0025                    -0.0195                  296.1361175001063
0.0025                    -0.0185                  295.19730824702145
0.0025                    -0.0175                  294.9539343030105
0.0025                    -0.0165                  293.9216203819557
0.0025                    -0.0155                  293.1776828958697
0.0025                    -0.0145                  293.16068647211875
0.0025                    -0.0135                  293.1609609671651
0.0025                    -0.0125                  293.1608593559812
0.0025                    -0.0115                  293.16426974013916
0.0025                    -0.0105                  293.22925439440667
0.0025                    -0.0095                  293.41111519859624
0.0025                    -0.0085                  293.50036038719315
0.0025                    -0.0075                  293.4977210431465
0.0025                    -0.0065                  293.3658085123729
0.0025                    -0.0055                  293.1923901728591
0.0025                    -0.0045                  293.1625652238124
0.0025                    -0.0035                  293.1593692065384
0.0025                    -0.0025                  293.158963864545
0.0025                    -0.0015                  293.1594293901023
0.0025                    -5.0E-4                  293.1775744908897
0.0025                    5.0E-4                   293.6470603873667
0.0025                    0.0015                   294.5579475941198
0.0025                    0.0025                   294.53241057869604
0.0025                    0.0035                   294.3992522565394
0.0025                    0.0045                   294.3873672907606
0.0025                    0.0055                   294.37276848250673
0.0025                    0.0065                   294.33410801275414
0.0025                    0.0075                   294.3102185991314
0.0025                    0.0085                   294.3733410806641
0.0025                    0.0095                   294.57002643828133
0.0025                    0.0105                   294.7642106038433
0.0025                    0.0115                   294.8952790020714
0.0025                    0.0125                   295.09925242405006
0.0025                    0.0135                   297.1663788172952
0.0025                    0.0145                   299.4167527112438
0.0025                    0.0155                   301.48677258500754
0.0025                    0.0165                   301.6718806322737
0.0025                    0.0175                   301.8369019173392
0.0025                    0.0185                   301.98499665716895
0.0025                    0.0195                   302.1085057694542
0.0025                    0.0205                   302.2258326714102
0.0025                    0.0215                   302.3188459869051
0.0025                    0.0225                   302.4029545297507
0.0025                    0.0235                   302.48216123928637
0.0025                    0.0245                   302.5392707461778
0.0025                    0.0255                   302.59638025306924
0.0025                    0.0265                   302.64155558245943
0.0025                    0.0275                   302.67195617715316
0.0025                    0.0285                   302.70240099658366
0.0025                    0.0295                   302.7258070248424
0.0025                    0.0305                   302.73648023949863
0.0025                    0.0315                   302.74715345415484
0.0035                    -0.0315                  296.90795713302003
0.0035                    -0.0305                  296.9048919928805
0.0035                    -0.0295                  296.901792691212
0.0035                    -0.0285                  296.8995578865316
0.0035                    -0.0275                  296.8961809035265
0.0035                    -0.0265                  296.89509336030255
0.0035                    -0.0255                  296.89411886502387
0.0035                    -0.0245                  296.89326291412226
0.0035                    -0.0235                  296.893294332515
0.0035                    -0.0225                  296.89603836920094
0.0035                    -0.0215                  296.898886497541
0.0035                    -0.0205                  296.5190608161711
0.0035                    -0.0195                  295.36114193935964
0.0035                    -0.0185                  294.8868023053735
0.0035                    -0.0175                  294.52083572988886
0.0035                    -0.0165                  293.68044831060246
0.0035                    -0.0155                  293.2178830115097
0.0035                    -0.0145                  293.1646159435094
0.0035                    -0.0135                  293.16464022639053
0.0035                    -0.0125                  293.1658872971066
0.0035                    -0.0115                  293.1774398279685
0.0035                    -0.0105                  293.3304468614479
0.0035                    -0.0095                  293.5306316389591
0.0035                    -0.0085                  293.5382366093635
0.0035                    -0.0075                  293.5407855265957
0.0035                    -0.0065                  293.42889793322763
0.0035                    -0.0055                  293.23842711564475
0.0035                    -0.0045                  293.1739185473166
0.0035                    -0.0035                  293.16394507715194
0.0035                    -0.0025                  293.16236207632306
0.0035                    -0.0015                  293.16154815123514
0.0035                    -5.0E-4                  293.171091640132
0.0035                    5.0E-4                   293.6047840092082
0.0035                    0.0015                   294.1914767322259
0.0035                    0.0025                   294.49548098188455
0.0035                    0.0035                   294.4377386772182
0.0035                    0.0045                   294.44925997044237
0.0035                    0.0055                   294.445854072446
0.0035                    0.0065                   294.3930070178131
0.0035                    0.0075                   294.310706882374
0.0035                    0.0085                   294.3089951950516
0.0035                    0.0095                   294.572043578431
0.0035                    0.0105                   294.98473520170023
0.0035                    0.0115                   295.176094575984
0.0035                    0.0125                   295.0766487706375
0.0035                    0.0135                   295.2257928463278
0.0035                    0.0145                   296.1290270449162
0.0035                    0.0155                   299.2505582585071
0.0035                    0.0165                   301.7613696639214
0.0035                    0.0175                   301.8945491214137
0.0035                    0.0185                   302.0242785956789
0.0035                    0.0195                   302.1463820368103
0.0035                    0.0205                   302.25421645877117
0.0035                    0.0215                   302.3462022704183
0.0035                    0.0225                   302.4285720710452
0.0035                    0.0235                   302.49959996875907
0.0035                    0.0245                   302.55740211004945
0.0035                    0.0255                   302.61310460246324
0.0035                    0.0265                   302.65181525873777
0.0035                    0.0275                   302.6853098964601
0.0035                    0.0285                   302.71310812942113
0.0035                    0.0295                   302.7323229968795
0.0035                    0.0305                   302.7404135788055
0.0035                    0.0315                   302.7499055504701
0.0045                    -0.0315                  296.88783520001283
0.0045                    -0.0305                  296.88631854750713
0.0045                    -0.0295                  296.8833471678645
0.0045                    -0.0285                  296.8814350937062
0.0045                    -0.0275                  296.8783353040017
0.0045                    -0.0265                  296.8733027077807
0.0045                    -0.0255                  296.8693876963183
0.0045                    -0.0245                  296.8697176723309
0.0045                    -0.0235                  296.8706061802336
0.0045                    -0.0225                  296.874141936266
0.0045                    -0.0215                  296.87657681638655
0.0045                    -0.0205                  295.8204373986598
0.0045                    -0.0195                  294.87817391094177
0.0045                    -0.0185                  294.6095357985498
0.0045                    -0.0175                  294.20017715031963
0.0045                    -0.0165                  293.52720138281836
0.0045                    -0.0155                  293.1979807820687
0.0045                    -0.0145                  293.1646703797571
0.0045                    -0.0135                  293.1689802028403
0.0045                    -0.0125                  293.171679390616
0.0045                    -0.0115                  293.2085012216765
0.0045                    -0.0105                  293.3926234475375
0.0045                    -0.0095                  293.56717870488393
0.0045                    -0.0085                  293.571014349633
0.0045                    -0.0075                  293.5728102699224
0.0045                    -0.0065                  293.57056197156146
0.0045                    -0.0055                  293.3526682001718
0.0045                    -0.0045                  293.19162647157674
0.0045                    -0.0035                  293.1708460375697
0.0045                    -0.0025                  293.16627044570293
0.0045                    -0.0015                  293.1633275089025
0.0045                    -5.0E-4                  293.1961170062772
0.0045                    5.0E-4                   293.31937408491814
0.0045                    0.0015                   294.0498604999286
0.0045                    0.0025                   294.3835323176976
0.0045                    0.0035                   294.48105114915035
0.0045                    0.0045                   294.5323161978708
0.0045                    0.0055                   294.5374649908406
0.0045                    0.0065                   294.463780631727
0.0045                    0.0075                   294.34292317475155
0.0045                    0.0085                   294.26565429026823
0.0045                    0.0095                   294.52089688870876
0.0045                    0.0105                   295.16515112009085
0.0045                    0.0115                   295.4444401382646
0.0045                    0.0125                   295.43339241697015
0.0045                    0.0135                   295.2520295668362
0.0045                    0.0145                   295.2785589356778
0.0045                    0.0155                   296.4186473219347
0.0045                    0.0165                   299.6191486579912
0.0045                    0.0175                   301.9489590601154
0.0045                    0.0185                   302.07363390502405
0.0045                    0.0195                   302.1922700436972
0.0045                    0.0205                   302.29104895551245
0.0045                    0.0215                   302.37803451191
0.0045                    0.0225                   302.4532078520936
0.0045                    0.0235                   302.51686313312786
0.0045                    0.0245                   302.57527580173087
0.0045                    0.0255                   302.6220325994617
0.0045                    0.0265                   302.6624866450554
0.0045                    0.0275                   302.69524999531563
0.0045                    0.0285                   302.7209045053451
0.0045                    0.0295                   302.74043975862844
0.0045                    0.0305                   302.74853034055457
0.0045                    0.0315                   302.7566655855978
0.0055                    -0.0315                  296.86464932350594
0.0055                    -0.0305                  296.864734423419
0.0055                    -0.0295                  296.8620198209274
0.0055                    -0.0285                  296.8554442411238
0.0055                    -0.0275                  296.8494829987697
0.0055                    -0.0265                  296.8457055136586
0.0055                    -0.0255                  296.84074227386645
0.0055                    -0.0245                  296.8378462255234
0.0055                    -0.0235                  296.83905777787595
0.0055                    -0.0225                  296.84618682138824
0.0055                    -0.0215                  295.82286808704316
0.0055                    -0.0205                  294.8062528110228
0.0055                    -0.0195                  294.56753120940533
0.0055                    -0.0185                  294.47777058190707
0.0055                    -0.0175                  293.98486986439605
0.0055                    -0.0165                  293.36604892884276
0.0055                    -0.0155                  293.2044385892009
0.0055                    -0.0145                  293.17061163757995
0.0055                    -0.0135                  293.1738774939888
0.0055                    -0.0125                  293.1852582573646
0.0055                    -0.0115                  293.2607210606154
0.0055                    -0.0105                  293.4589858912826
0.0055                    -0.0095                  293.5979025975592
0.0055                    -0.0085                  293.60047015787853
0.0055                    -0.0075                  293.60192705073536
0.0055                    -0.0065                  293.601907248965
0.0055                    -0.0055                  293.4998385671025
0.0055                    -0.0045                  293.23057213896175
0.0055                    -0.0035                  293.1805160672108
0.0055                    -0.0025                  293.17190479705073
0.0055                    -0.0015                  293.1659109602608
0.0055                    -5.0E-4                  293.1885884292919
0.0055                    5.0E-4                   293.292153099888
0.0055                    0.0015                   293.75014459410164
0.0055                    0.0025                   294.3113357775895
0.0055                    0.0035                   294.4971730668757
0.0055                    0.0045                   294.5578615238427
0.0055                    0.0055                   294.5931171516924
0.0055                    0.0065                   294.5313408914095
0.0055                    0.0075                   294.3776324298209
0.0055                    0.0085                   294.2166314708491
0.0055                    0.0095                   294.40683638942824
0.0055                    0.0105                   295.31806067783316
0.0055                    0.0115                   295.5977639678086
0.0055                    0.0125                   295.63727038016566
0.0055                    0.0135                   295.41761510606557
0.0055                    0.0145                   295.2740140306628
0.0055                    0.0155                   295.5632775609696
0.0055                    0.0165                   296.9035603183539
0.0055                    0.0175                   300.20776109743446
0.0055                    0.0185                   301.7393105603208
0.0055                    0.0195                   302.2546227662898
0.0055                    0.0205                   302.3363678627685
0.0055                    0.0215                   302.41448506584567
0.0055                    0.0225                   302.4852702074491
0.0055                    0.0235                   302.5461384452158
0.0055                    0.0245                   302.5997866710192
0.0055                    0.0255                   302.64032962775525
0.0055                    0.0265                   302.67751493274403
0.0055                    0.0275                   302.7062296097614
0.0055                    0.0285                   302.73023987486175
0.0055                    0.0295                   302.7485927234131
0.0055                    0.0305                   302.756781820916
0.0055                    0.0315                   302.76497091841884
0.0065                    -0.0315                  296.841463446999
0.0065                    -0.0305                  296.83782792011675
0.0065                    -0.0295                  296.83286474870346
0.0065                    -0.0285                  296.826444173235
0.0065                    -0.0275                  296.82028879642485
0.0065                    -0.0265                  296.81127835000916
0.0065                    -0.0255                  296.802750968644
0.0065                    -0.0245                  296.79681302480014
0.0065                    -0.0235                  296.79577273066513
0.0065                    -0.0225                  295.92825957851016
0.0065                    -0.0215                  294.65196255687033
0.0065                    -0.0205                  294.42708972059694
0.0065                    -0.0195                  294.43272551502
0.0065                    -0.0185                  294.2864921025319
0.0065                    -0.0175                  293.7480300457045
0.0065                    -0.0165                  293.3273411018036
0.0065                    -0.0155                  293.18872810533367
0.0065                    -0.0145                  293.17615517350526
0.0065                    -0.0135                  293.17939561388783
0.0065                    -0.0125                  293.19886647885284
0.0065                    -0.0115                  293.38657165731337
0.0065                    -0.0105                  293.60228228321625
0.0065                    -0.0095                  293.6218598174448
0.0065                    -0.0085                  293.6269881198087
0.0065                    -0.0075                  293.6286916713563
0.0065                    -0.0065                  293.62744969911023
0.0065                    -0.0055                  293.62040562293595
0.0065                    -0.0045                  293.3815751059723
0.0065                    -0.0035                  293.20060976643936
0.0065                    -0.0025                  293.1782731840377
0.0065                    -0.0015                  293.17058595243253
0.0065                    -5.0E-4                  293.18249294083057
0.0065                    5.0E-4                   293.2720126646373
0.0065                    0.0015                   293.44272005000835
0.0065                    0.0025                   294.0374707543614
0.0065                    0.0035                   294.47161336643103
0.0065                    0.0045                   294.5512949095131
0.0065                    0.0055                   294.6109092598325
0.0065                    0.0065                   294.60310952363807
0.0065                    0.0075                   294.4314379293807
0.0065                    0.0085                   294.20070061618617
0.0065                    0.0095                   294.34590276639165
0.0065                    0.0105                   295.3232664301729
0.0065                    0.0115                   295.607751427919