% Model:              模型结构导入comsolBench.mph
% Version:            COMSOL 6.2.0.339
% Date:               May 29 2026, 11:26
% Dimension:          2
% Nodes:              4096
% Expressions:        1
% Description:        温度
% Length unit:        m
% x                       y                        T (K)
5.0E-4                    -0.0315                  300.91125432420245
5.0E-4                    -0.0305                  300.9082936663449
5.0E-4                    -0.0295                  300.90531057038544
5.0E-4                    -0.0285                  300.902327474426
5.0E-4                    -0.0275                  300.8975139021475
5.0E-4                    -0.0265                  300.8911989245805
5.0E-4                    -0.0255                  300.8848839470134
5.0E-4                    -0.0245                  300.8785689694464
5.0E-4                    -0.0235                  300.87007372812155
5.0E-4                    -0.0225                  300.86034986065806
5.0E-4                    -0.0215                  300.8506259931946
5.0E-4                    -0.0205                  300.8407825494661
5.0E-4                    -0.0195                  300.829190897323
5.0E-4                    -0.0185                  300.81685151596946
5.0E-4                    -0.0175                  300.8045121346159
5.0E-4                    -0.0165                  300.79229794004283
5.0E-4                    -0.0155                  300.78026031027764
5.0E-4                    -0.0145                  300.7684628182393
5.0E-4                    -0.0135                  300.7591126926988
5.0E-4                    -0.0125                  300.7515032678182
5.0E-4                    -0.0115                  300.7473751578689
5.0E-4                    -0.0105                  300.7463262981581
5.0E-4                    -0.0095                  300.7472292809857
5.0E-4                    -0.0085                  300.74867089803234
5.0E-4                    -0.0075                  300.4201746540449
5.0E-4                    -0.0065                  299.86194995210263
5.0E-4                    -0.0055                  299.240664897454
5.0E-4                    -0.0045                  298.9085081072486
5.0E-4                    -0.0035                  298.80926277697006
5.0E-4                    -0.0025                  298.75069610244407
5.0E-4                    -0.0015                  298.64191744385613
5.0E-4                    -5.0E-4                  296.2294721945383
5.0E-4                    5.0E-4                   293.1636497893554
5.0E-4                    0.0015                   293.1527485662204
5.0E-4                    0.0025                   293.1526646052623
5.0E-4                    0.0035                   293.15286460450784
5.0E-4                    0.0045                   293.1533512602298
5.0E-4                    0.0055                   293.1543912308759
5.0E-4                    0.0065                   293.15581177621357
5.0E-4                    0.0075                   293.542015878118
5.0E-4                    0.0085                   295.16125137950473
5.0E-4                    0.0095                   294.808888473695
5.0E-4                    0.0105                   293.2506899878272
5.0E-4                    0.0115                   293.15537085494174
5.0E-4                    0.0125                   293.15548349365645
5.0E-4                    0.0135                   293.15600465381135
5.0E-4                    0.0145                   293.15607085043035
5.0E-4                    0.0155                   293.1650206833422
5.0E-4                    0.0165                   296.6113457691936
5.0E-4                    0.0175                   298.8010833297434
5.0E-4                    0.0185                   299.76019069656195
5.0E-4                    0.0195                   300.7276957796186
5.0E-4                    0.0205                   300.74860612483195
5.0E-4                    0.0215                   300.7809123954566
5.0E-4                    0.0225                   300.8166238122078
5.0E-4                    0.0235                   300.8520115057431
5.0E-4                    0.0245                   300.8847889217959
5.0E-4                    0.0255                   300.91527457179194
5.0E-4                    0.0265                   300.9407491691433
5.0E-4                    0.0275                   300.9626759648033
5.0E-4                    0.0285                   300.9826467742916
5.0E-4                    0.0295                   300.9929641823965
5.0E-4                    0.0305                   301.00074763420724
5.0E-4                    0.0315                   301.00826116789943
0.0015                    -0.0315                  300.90252454234144
0.0015                    -0.0305                  300.9030716646959
0.0015                    -0.0295                  300.900155883042
0.0015                    -0.0285                  300.8967080467403
0.0015                    -0.0275                  300.891606647515
0.0015                    -0.0265                  300.88573710699717
0.0015                    -0.0255                  300.8794221294301
0.0015                    -0.0245                  300.8719846947879
0.0015                    -0.0235                  300.86370516871546
0.0015                    -0.0225                  300.853981301252
0.0015                    -0.0215                  300.8442574337886
0.0015                    -0.0205                  300.83344185044405
0.0015                    -0.0195                  300.8224266257242
0.0015                    -0.0185                  300.8100872443706
0.0015                    -0.0175                  300.7978018304931
0.0015                    -0.0165                  300.7855669369362
0.0015                    -0.0155                  300.7734902616246
0.0015                    -0.0145                  300.76223588369874
0.0015                    -0.0135                  300.75168894315
0.0015                    -0.0125                  300.7453077760541
0.0015                    -0.0115                  300.74057859131676
0.0015                    -0.0105                  300.73916904245914
0.0015                    -0.0095                  300.7419462093832
0.0015                    -0.0085                  300.2113187850995
0.0015                    -0.0075                  298.8378572724336
0.0015                    -0.0065                  297.737606740366
0.0015                    -0.0055                  297.202674578709
0.0015                    -0.0045                  297.0963015239451
0.0015                    -0.0035                  297.02360962036784
0.0015                    -0.0025                  296.97911080756273
0.0015                    -0.0015                  296.7201978753259
0.0015                    -5.0E-4                  294.13102559772756
0.0015                    5.0E-4                   293.144627810901
0.0015                    0.0015                   293.15812504586563
0.0015                    0.0025                   293.15798626192725
0.0015                    0.0035                   293.1586036365037
0.0015                    0.0045                   293.1606091728548
0.0015                    0.0055                   293.16415623772355
0.0015                    0.0065                   293.17239362596706
0.0015                    0.0075                   294.13327829427175
0.0015                    0.0085                   295.34465545215363
0.0015                    0.0095                   295.35739934247414
0.0015                    0.0105                   294.0016453328543
0.0015                    0.0115                   293.2052386135314
0.0015                    0.0125                   293.16530949357957
0.0015                    0.0135                   293.16724096296497
0.0015                    0.0145                   293.16707127214244
0.0015                    0.0155                   293.20220116382944
0.0015                    0.0165                   294.01252525791926
0.0015                    0.0175                   296.7142278535659
0.0015                    0.0185                   298.521526269151
0.0015                    0.0195                   300.70091863382873
0.0015                    0.0205                   300.73388335133455
0.0015                    0.0215                   300.7723883171716
0.0015                    0.0225                   300.8119921699241
0.0015                    0.0235                   300.8493146117459
0.0015                    0.0245                   300.88358965335357
0.0015                    0.0255                   300.91258831668983
0.0015                    0.0265                   300.9390939553212
0.0015                    0.0275                   300.9634172449312
0.0015                    0.0285                   300.97957147416116
0.0015                    0.0295                   300.9944739094301
0.0015                    0.0305                   301.0020271693927
0.0015                    0.0315                   301.00700145485183
0.0025                    -0.0315                  300.89379476048055
0.0025                    -0.0305                  300.89434188283496
0.0025                    -0.0295                  300.8948890051894
0.0025                    -0.0285                  300.89054208116323
0.0025                    -0.0275                  300.88544068193795
0.0025                    -0.0265                  300.8802752894138
0.0025                    -0.0255                  300.87339530297083
0.0025                    -0.0245                  300.8651345094324
0.0025                    -0.0235                  300.8568737158939
0.0025                    -0.0225                  300.84761274184586
0.0025                    -0.0215                  300.8369855012817
0.0025                    -0.0205                  300.826101151422
0.0025                    -0.0195                  300.8152168015623
0.0025                    -0.0185                  300.80334762350134
0.0025                    -0.0175                  300.7911127299445
0.0025                    -0.0165                  300.77661140028135
0.0025                    -0.0155                  300.7622212530673
0.0025                    -0.0145                  300.7492202514143
0.0025                    -0.0135                  300.7357474433331
0.0025                    -0.0125                  300.7286313281482
0.0025                    -0.0115                  300.7234078347075
0.0025                    -0.0105                  300.7235131012276
0.0025                    -0.0095                  300.32897473024417
0.0025                    -0.0085                  298.70748734148634
0.0025                    -0.0075                  297.1139217439241
0.0025                    -0.0065                  296.36236833330366
0.0025                    -0.0055                  296.15235347063003
0.0025                    -0.0045                  296.1426997316457
0.0025                    -0.0035                  296.19811236326063
0.0025                    -0.0025                  296.05857116148377
0.0025                    -0.0015                  294.9214688729848
0.0025                    -5.0E-4                  293.5311148953354
0.0025                    5.0E-4                   293.16604830796007
0.0025                    0.0015                   293.1634840682062
0.0025                    0.0025                   293.1637759241396
0.0025                    0.0035                   293.1656954348532
0.0025                    0.0045                   293.16968886380954
0.0025                    0.0055                   293.1851011603999
0.0025                    0.0065                   293.73090841268663
0.0025                    0.0075                   295.47512303474764
0.0025                    0.0085                   295.4793826114606
0.0025                    0.0095                   295.4830565719114
0.0025                    0.0105                   294.9362454628837
0.0025                    0.0115                   293.46412217676806
0.0025                    0.0125                   293.19739203431806
0.0025                    0.0135                   293.1775716514511
0.0025                    0.0145                   293.17665106156545
0.0025                    0.0155                   293.1803249072307
0.0025                    0.0165                   293.57973112443386
0.0025                    0.0175                   294.76086859284226
0.0025                    0.0185                   297.7388964956141
0.0025                    0.0195                   300.6425533390955
0.0025                    0.0205                   300.7089640090365
0.0025                    0.0215                   300.76032458288796
0.0025                    0.0225                   300.8048275760576
0.0025                    0.0235                   300.8450771865743
0.0025                    0.0245                   300.8792999066908
0.0025                    0.0255                   300.9099650728747
0.0025                    0.0265                   300.93643207307144
0.0025                    0.0275                   300.9618007385988
0.0025                    0.0285                   300.978273852445
0.0025                    0.0295                   300.9933875612856
0.0025                    0.0305                   301.0007674563451
0.0025                    0.0315                   301.0057417418043
0.0035                    -0.0315                  300.8850649786196
0.0035                    -0.0305                  300.88450855490987
0.0035                    -0.0295                  300.88033208129656
0.0035                    -0.0285                  300.87648666517
0.0035                    -0.0275                  300.872849151364
0.0035                    -0.0265                  300.86913252717034
0.0035                    -0.0255                  300.8619490994916
0.0035                    -0.0245                  300.85439314625023
0.0035                    -0.0235                  300.8468371930089
0.0035                    -0.0225                  300.83766928856045
0.0035                    -0.0215                  300.82577120174574
0.0035                    -0.0205                  300.81387311493097
0.0035                    -0.0195                  300.8019750281162
0.0035                    -0.0185                  300.78881618540703
0.0035                    -0.0175                  300.77426108527874
0.0035                    -0.0165                  300.7594472043359
0.0035                    -0.0155                  300.7449786758415
0.0035                    -0.0145                  300.7304021052313
0.0035                    -0.0135                  300.7145590750865
0.0035                    -0.0125                  300.70170227288577
0.0035                    -0.0115                  300.69667403438154
0.0035                    -0.0105                  300.69915865020516
0.0035                    -0.0095                  299.3288369307859
0.0035                    -0.0085                  297.1122897258588
0.0035                    -0.0075                  296.1003013217334
0.0035                    -0.0065                  295.7529570060941
0.0035                    -0.0055                  295.7631512925551
0.0035                    -0.0045                  295.9221538331863
0.0035                    -0.0035                  295.6901719870973
0.0035                    -0.0025                  295.07549960929816
0.0035                    -0.0015                  294.0165790565892
0.0035                    -5.0E-4                  293.23502156830637
0.0035                    5.0E-4                   293.1678787410318
0.0035                    0.0015                   293.1690427345387
0.0035                    0.0025                   293.1706304960611
0.0035                    0.0035                   293.1740962221011
0.0035                    0.0045                   293.18254289226303
0.0035                    0.0055                   293.35644673206326
0.0035                    0.0065                   294.5369478993977
0.0035                    0.0075                   295.60139742453026
0.0035                    0.0085                   295.59479873716816
0.0035                    0.0095                   295.590989475508
0.0035                    0.0105                   295.5626643005469
0.0035                    0.0115                   294.3385083158381
0.0035                    0.0125                   293.2661151782794
0.0035                    0.0135                   293.1938005509893
0.0035                    0.0145                   293.1857088892477
0.0035                    0.0155                   293.1817937418043
0.0035                    0.0165                   293.33167607708594
0.0035                    0.0175                   293.9310415987422
0.0035                    0.0185                   296.6604721597265
0.0035                    0.0195                   300.58994400576125
0.0035                    0.0205                   300.6921703481639
0.0035                    0.0215                   300.75067841672785
0.0035                    0.0225                   300.7978275012222
0.0035                    0.0235                   300.83873355228747
0.0035                    0.0245                   300.8744992422126
0.0035                    0.0255                   300.9073626310467
0.0035                    0.0265                   300.9336551647577
0.0035                    0.0275                   300.9586360596903
0.0035                    0.0285                   300.9763179722796
0.0035                    0.0295                   300.99066646519003
0.0035                    0.0305                   300.9975926326771
0.0035                    0.0315                   301.00448202875674
0.0045                    -0.0315                  300.8715595241718
0.0045                    -0.0305                  300.8674048333071
0.0045                    -0.0295                  300.86322835969384
0.0045                    -0.0285                  300.85927124369516
0.0045                    -0.0275                  300.8556337298893
0.0045                    -0.0265                  300.8495409674041
0.0045                    -0.0255                  300.8426892567916
0.0045                    -0.0245                  300.83513330355026
0.0045                    -0.0235                  300.82671067073096
0.0045                    -0.0225                  300.8167913012186
0.0045                    -0.0215                  300.8076153664543
0.0045                    -0.0205                  300.7957172796395
0.0045                    -0.0195                  300.78270659746244
0.0045                    -0.0185                  300.76923876030673
0.0045                    -0.0175                  300.7565450573735
0.0045                    -0.0165                  300.74161333713243
0.0045                    -0.0155                  300.7231418862202
0.0045                    -0.0145                  300.7043342176781
0.0045                    -0.0135                  300.68405793053677
0.0045                    -0.0125                  300.6645177787166
0.0045                    -0.0115                  300.6537418900115
0.0045                    -0.0105                  300.03316419693596
0.0045                    -0.0095                  297.8644664180634
0.0045                    -0.0085                  296.17281149165757
0.0045                    -0.0075                  295.58441578238455
0.0045                    -0.0065                  295.55915989055336
0.0045                    -0.0055                  295.7212823860088
0.0045                    -0.0045                  295.36664352272476
0.0045                    -0.0035                  294.92574973853687
0.0045                    -0.0025                  294.00993411584005
0.0045                    -0.0015                  293.37077655531215
0.0045                    -5.0E-4                  293.2129805065154
0.0045                    5.0E-4                   293.174239309753
0.0045                    0.0015                   293.1755130484907
0.0045                    0.0025                   293.1802371557742
0.0045                    0.0035                   293.1924969532024
0.0045                    0.0045                   293.28239808554963
0.0045                    0.0055                   294.1607458462462
0.0045                    0.0065                   295.7056339955792
0.0045                    0.0075                   295.7081032727897
0.0045                    0.0085                   295.7029207980192
0.0045                    0.0095                   295.6986072527964
0.0045                    0.0105                   295.69070486081284
0.0045                    0.0115                   294.8321594362635
0.0045                    0.0125                   293.5686960979444
0.0045                    0.0135                   293.2501582743423
0.0045                    0.0145                   293.20041839965455
0.0045                    0.0155                   293.1931779530003
0.0045                    0.0165                   293.2705598214249
0.0045                    0.0175                   293.5374481048624
0.0045                    0.0185                   294.3028646536492
0.0045                    0.0195                   298.57716509956526
0.0045                    0.0205                   300.69206160009395
0.0045                    0.0215                   300.74392918912423
0.0045                    0.0225                   300.79124490148195
0.0045                    0.0235                   300.8321733966261
0.0045                    0.0245                   300.86902420180627
0.0045                    0.0255                   300.9026066292743
0.0045                    0.0265                   300.92963770774526
0.0045                    0.0275                   300.95539767304405
0.0045                    0.0285                   300.97355253910666
0.0045                    0.0295                   300.9898834366125
0.0045                    0.0305                   300.99630927384055
0.0045                    0.0315                   301.0026348394704
0.0055                    -0.0315                  300.84634314854645
0.0055                    -0.0305                  300.8467580158732
0.0055                    -0.0295                  300.84612463809106
0.0055                    -0.0285                  300.84205582222046
0.0055                    -0.0275                  300.83668828727417
0.0055                    -0.0265                  300.8299494076379
0.0055                    -0.0255                  300.82321052800154
0.0055                    -0.0245                  300.81585635080484
0.0055                    -0.0235                  300.80537832808653
0.0055                    -0.0225                  300.79528954535897
0.0055                    -0.0215                  300.7866002992523
0.0055                    -0.0205                  300.77670101319694
0.0055                    -0.0195                  300.7632766548155
0.0055                    -0.0185                  300.7496613352066
0.0055                    -0.0175                  300.7334272625941
0.0055                    -0.0165                  300.7164714179313
0.0055                    -0.0155                  300.69801325957076
0.0055                    -0.0145                  300.6755622499793
0.0055                    -0.0135                  300.6497065205958
0.0055                    -0.0125                  300.61503818343215
0.0055                    -0.0115                  300.57895931638734
0.0055                    -0.0105                  299.2152252094335
0.0055                    -0.0095                  296.59339527128344
0.0055                    -0.0085                  295.48607012548285
0.0055                    -0.0075                  295.4529960097493
0.0055                    -0.0065                  295.4531418103196
0.0055                    -0.0055                  295.4075538402584
0.0055                    -0.0045                  294.75237675298933
0.0055                    -0.0035                  294.1759224650216
0.0055                    -0.0025                  293.5593808546628
0.0055                    -0.0015                  293.1879340748894
0.0055                    -5.0E-4                  293.18372353257314
0.0055                    5.0E-4                   293.1820930179291
0.0055                    0.0015                   293.1885488139592
0.0055                    0.0025                   293.20340484869655
0.0055                    0.0035                   293.27770104832933
0.0055                    0.0045                   293.678062037506
0.0055                    0.0055                   295.21793319149845
0.0055                    0.0065                   295.8162171868001
0.0055                    0.0075                   295.8067733594538
0.0055                    0.0085                   295.80400532476625
0.0055                    0.0095                   295.8043671181408
0.0055                    0.0105                   295.81315620635644
0.0055                    0.0115                   295.2283281726395
0.0055                    0.0125                   293.9997192223523
0.0055                    0.0135                   293.3812621050034
0.0055                    0.0145                   293.23793722506474
0.0055                    0.0155                   293.209375528947
0.0055                    0.0165                   293.2315337124011
0.0055                    0.0175                   293.35907987525104
0.0055                    0.0185                   293.7841601442102
0.0055                    0.0195                   296.3850645817528
0.0055                    0.0205                   300.6853376839734
0.0055                    0.0215                   300.7403472941996
0.0055                    0.0225                   300.784485221526
0.0055                    0.0235                   300.82537817927187
0.0055                    0.0245                   300.861982931827
0.0055                    0.0255                   300.89734297517737
0.0055                    0.0265                   300.9262839032601
0.0055                    0.0275                   300.9515261880308
0.0055                    0.0285                   300.96996623541247
0.0055                    0.0295                   300.9877156469322
0.0055                    0.0305                   300.99523137029973
0.0055                    0.0315                   301.00149991087454
0.0065                    -0.0315                  300.82112677292105
0.0065                    -0.0305                  300.82154164024786
0.0065                    -0.0295                  300.82195650757467
0.0065                    -0.0285                  300.8193805889479
0.0065                    -0.0275                  300.81307398954607
0.0065                    -0.0265                  300.8063081915464
0.0065                    -0.0255                  300.7995423935467
0.0065                    -0.0245                  300.79191025986796
0.0065                    -0.0235                  300.7831595984513
0.0065                    -0.0225                  300.77376468881437
0.0065                    -0.0215                  300.7608531499425
0.0065                    -0.0205                  300.7485367934855
0.0065                    -0.0195                  300.7361158970116
0.0065                    -0.0185                  300.7225411342303
0.0065                    -0.0175                  300.707585307411
0.0065                    -0.0165                  300.6903798859337
0.0065                    -0.0155                  300.6707802807699
0.0065                    -0.0145                  300.6470110041978
0.0065                    -0.0135                  300.61576411142175
0.0065                    -0.0125                  300.5685649671143
0.0065                    -0.0115                  300.46139994886596
0.0065                    -0.0105                  298.0753850540062
0.0065                    -0.0095                  295.4567194438152
0.0065                    -0.0085                  295.34516870851587
0.0065                    -0.0075                  295.3252074801979
0.0065                    -0.0065                  295.2235539060981
0.0065                    -0.0055                  294.6883250898979
0.0065                    -0.0045                  294.03798384905923
0.0065                    -0.0035                  293.59002669038296
0.0065                    -0.0025                  293.217046534391
0.0065                    -0.0015                  293.1906922409404
0.0065                    -5.0E-4                  293.18994979887566
0.0065                    5.0E-4                   293.19720946285594
0.0065                    0.0015                   293.2185873987644
0.0065                    0.0025                   293.3764428950321
0.0065                    0.0035                   294.2015630352588
0.0065                    0.0045                   295.0500389280894
0.0065                    0.0055                   295.91940980615914
0.0065                    0.0065                   295.90403563581583
0.0065                    0.0075                   295.89610897151726
0.0065                    0.0085                   295.89582815557094
0.0065                    0.0095                   295.89994016937663
0.0065                    0.0105                   295.90908558873036
0.0065                    0.0115                   295.921641902688