% Model:              模型结构导入comsolBench极细.mph
% Version:            COMSOL 6.2.0.339
% Date:               May 29 2026, 14:52
% Dimension:          2
% Nodes:              4096
% Expressions:        1
% Description:        温度
% Length unit:        m
% x                       y                        T (K)
5.0E-4                    -0.0315                  297.2119362490994
5.0E-4                    -0.0305                  297.2068596525937
5.0E-4                    -0.0295                  297.19728615122256
5.0E-4                    -0.0285                  297.18336320031835
5.0E-4                    -0.0275                  297.16514424680014
5.0E-4                    -0.0265                  297.1431564010583
5.0E-4                    -0.0255                  297.1183097311835
5.0E-4                    -0.0245                  297.0912924488525
5.0E-4                    -0.0235                  297.0628870064344
5.0E-4                    -0.0225                  297.03412364383945
5.0E-4                    -0.0215                  297.006091568446
5.0E-4                    -0.0205                  296.9797613476387
5.0E-4                    -0.0195                  296.9563422445959
5.0E-4                    -0.0185                  296.93679086010434
5.0E-4                    -0.0175                  296.92143435845185
5.0E-4                    -0.0165                  296.91059900500585
5.0E-4                    -0.0155                  296.904533108227
5.0E-4                    -0.0145                  296.9029318423254
5.0E-4                    -0.0135                  296.90454595551336
5.0E-4                    -0.0125                  296.9082003460539
5.0E-4                    -0.0115                  296.91228571841
5.0E-4                    -0.0105                  296.9150121559254
5.0E-4                    -0.0095                  296.9151785517287
5.0E-4                    -0.0085                  296.91194573861515
5.0E-4                    -0.0075                  296.49488815522574
5.0E-4                    -0.0065                  296.24411800933603
5.0E-4                    -0.0055                  296.2050221393749
5.0E-4                    -0.0045                  296.1475089895417
5.0E-4                    -0.0035                  295.9859241398196
5.0E-4                    -0.0025                  295.2926036201842
5.0E-4                    -0.0015                  293.2848213365048
5.0E-4                    -5.0E-4                  293.15024024078866
5.0E-4                    5.0E-4                   293.150481883069
5.0E-4                    0.0015                   293.21607096937987
5.0E-4                    0.0025                   294.3877708585255
5.0E-4                    0.0035                   294.8467989572431
5.0E-4                    0.0045                   294.97368805763875
5.0E-4                    0.0055                   295.0595628314352
5.0E-4                    0.0065                   295.1618465386621
5.0E-4                    0.0075                   295.20983335583753
5.0E-4                    0.0085                   294.6715747851808
5.0E-4                    0.0095                   294.44339794472273
5.0E-4                    0.0105                   294.3690398088228
5.0E-4                    0.0115                   294.3154158313476
5.0E-4                    0.0125                   294.3344063038769
5.0E-4                    0.0135                   294.57057033465213
5.0E-4                    0.0145                   295.03477678196185
5.0E-4                    0.0155                   295.4334114988323
5.0E-4                    0.0165                   295.46505963080506
5.0E-4                    0.0175                   295.5170368729128
5.0E-4                    0.0185                   295.58149509185455
5.0E-4                    0.0195                   295.6530086055395
5.0E-4                    0.0205                   295.72623497806165
5.0E-4                    0.0215                   295.7980912073802
5.0E-4                    0.0225                   295.8662178960225
5.0E-4                    0.0235                   295.9295307267865
5.0E-4                    0.0245                   295.987308994665
5.0E-4                    0.0255                   296.03832839343534
5.0E-4                    0.0265                   296.08234713760817
5.0E-4                    0.0275                   296.11960372520537
5.0E-4                    0.0285                   296.1496565301356
5.0E-4                    0.0295                   296.171897822197
5.0E-4                    0.0305                   296.18685556509394
5.0E-4                    0.0315                   296.1946151002936
0.0015                    -0.0315                  297.2115886368854
0.0015                    -0.0305                  297.2066654976337
0.0015                    -0.0295                  297.1968235117573
0.0015                    -0.0285                  297.1822415974559
0.0015                    -0.0275                  297.163552365358
0.0015                    -0.0265                  297.1411827273689
0.0015                    -0.0255                  297.11544127752325
0.0015                    -0.0245                  297.0874338657021
0.0015                    -0.0235                  297.05807703875905
0.0015                    -0.0225                  297.0282741862974
0.0015                    -0.0215                  296.99895990464336
0.0015                    -0.0205                  296.9717786416788
0.0015                    -0.0195                  296.94753860770993
0.0015                    -0.0185                  296.9270556068314
0.0015                    -0.0175                  296.9112890603045
0.0015                    -0.0165                  296.90073220122133
0.0015                    -0.0155                  296.89508874358864
0.0015                    -0.0145                  296.89402760526525
0.0015                    -0.0135                  296.8971299262545
0.0015                    -0.0125                  296.90256078459447
0.0015                    -0.0115                  296.9083831725392
0.0015                    -0.0105                  296.9128444192252
0.0015                    -0.0095                  296.91355809386584
0.0015                    -0.0085                  296.9074913391771
0.0015                    -0.0075                  296.4109800497227
0.0015                    -0.0065                  296.55674746512653
0.0015                    -0.0055                  296.7991789627227
0.0015                    -0.0045                  296.6031789947829
0.0015                    -0.0035                  295.9623765152761
0.0015                    -0.0025                  295.2092766627562
0.0015                    -0.0015                  293.36884782396135
0.0015                    -5.0E-4                  293.1496138980281
0.0015                    5.0E-4                   293.15095418230646
0.0015                    0.0015                   293.23946498629056
0.0015                    0.0025                   294.31396026650873
0.0015                    0.0035                   294.72156254134916
0.0015                    0.0045                   295.02176482779254
0.0015                    0.0055                   295.1477505300946
0.0015                    0.0065                   295.0231729583386
0.0015                    0.0075                   294.5229448845125
0.0015                    0.0085                   294.2536491419059
0.0015                    0.0095                   294.14276636396846
0.0015                    0.0105                   294.1056366868834
0.0015                    0.0115                   294.1014538286051
0.0015                    0.0125                   294.0679271823536
0.0015                    0.0135                   294.0997419257567
0.0015                    0.0145                   294.75044751993335
0.0015                    0.0155                   295.398640379009
0.0015                    0.0165                   295.43937430502325
0.0015                    0.0175                   295.4986571254258
0.0015                    0.0185                   295.56969277457415
0.0015                    0.0195                   295.6461733930101
0.0015                    0.0205                   295.7228471555992
0.0015                    0.0215                   295.7965048141025
0.0015                    0.0225                   295.8661847725242
0.0015                    0.0235                   295.9305210359663
0.0015                    0.0245                   295.98847634181953
0.0015                    0.0255                   296.03996050432346
0.0015                    0.0265                   296.0845913436886
0.0015                    0.0275                   296.1219250599786
0.0015                    0.0285                   296.1517366622633
0.0015                    0.0295                   296.1744030340456
0.0015                    0.0305                   296.18919206963653
0.0015                    0.0315                   296.1970143760018
0.0025                    -0.0315                  297.2112045863245
0.0025                    -0.0305                  297.2059386127128
0.0025                    -0.0295                  297.195747786668
0.0025                    -0.0285                  297.18035308676565
0.0025                    -0.0275                  297.1606380722096
0.0025                    -0.0265                  297.1370389767965
0.0025                    -0.0255                  297.10998040777105
0.0025                    -0.0245                  297.0801020368194
0.0025                    -0.0235                  297.0486387507105
0.0025                    -0.0225                  297.0165782158449
0.0025                    -0.0215                  296.9853217643155
0.0025                    -0.0205                  296.95598235121383
0.0025                    -0.0195                  296.92981973584835
0.0025                    -0.0185                  296.90788428741325
0.0025                    -0.0175                  296.89145050909667
0.0025                    -0.0165                  296.880959859992
0.0025                    -0.0155                  296.8762837821826
0.0025                    -0.0145                  296.87676428786193
0.0025                    -0.0135                  296.88238724304153
0.0025                    -0.0125                  296.8912943643237
0.0025                    -0.0115                  296.901355730676
0.0025                    -0.0105                  296.90886676647096
0.0025                    -0.0095                  296.91230555878445
0.0025                    -0.0085                  296.7234382938067
0.0025                    -0.0075                  296.5289118482809
0.0025                    -0.0065                  297.06315440850193
0.0025                    -0.0055                  297.23886839978434
0.0025                    -0.0045                  296.7111498835618
0.0025                    -0.0035                  295.7478434710315
0.0025                    -0.0025                  295.05564600952425
0.0025                    -0.0015                  293.40781298828034
0.0025                    -5.0E-4                  293.15130060573154
0.0025                    5.0E-4                   293.15248082130506
0.0025                    0.0015                   293.2536905487165
0.0025                    0.0025                   294.191527269248
0.0025                    0.0035                   294.43574381444796
0.0025                    0.0045                   294.5554074831266
0.0025                    0.0055                   294.59024058072106
0.0025                    0.0065                   294.44143434787986
0.0025                    0.0075                   294.2542157902207
0.0025                    0.0085                   294.14999192474374
0.0025                    0.0095                   294.1417659728376
0.0025                    0.0105                   294.24143237237035
0.0025                    0.0115                   294.2686056187899
0.0025                    0.0125                   294.2123369613068
0.0025                    0.0135                   294.03898925031774
0.0025                    0.0145                   294.3303159977758
0.0025                    0.0155                   295.33229212553454
0.0025                    0.0165                   295.3888243661053
0.0025                    0.0175                   295.4653469081453
0.0025                    0.0185                   295.54936459570354
0.0025                    0.0195                   295.634618604371
0.0025                    0.0205                   295.7166514736266
0.0025                    0.0215                   295.7941625821802
0.0025                    0.0225                   295.8663453691347
0.0025                    0.0235                   295.93221537220825
0.0025                    0.0245                   295.99111544388154
0.0025                    0.0255                   296.04334837807573
0.0025                    0.0265                   296.0886997643292
0.0025                    0.0275                   296.1260529503389
0.0025                    0.0285                   296.1560371294306
0.0025                    0.0295                   296.17905620402234
0.0025                    0.0305                   296.19398676931854
0.0025                    0.0315                   296.2017086304995
0.0035                    -0.0315                  297.2109127103595
0.0035                    -0.0305                  297.20531705808
0.0035                    -0.0295                  297.19433558578913
0.0035                    -0.0285                  297.1782417948262
0.0035                    -0.0275                  297.15683607323456
0.0035                    -0.0265                  297.1311357361554
0.0035                    -0.0255                  297.1017977738606
0.0035                    -0.0245                  297.0693351492541
0.0035                    -0.0235                  297.03443542154974
0.0035                    -0.0225                  296.99894426640594
0.0035                    -0.0215                  296.9641849217044
0.0035                    -0.0205                  296.9312583215279
0.0035                    -0.0195                  296.9017057238607
0.0035                    -0.0185                  296.877738376337
0.0035                    -0.0175                  296.8601436934646
0.0035                    -0.0165                  296.848980225419
0.0035                    -0.0155                  296.8454424935205
0.0035                    -0.0145                  296.8489726044415
0.0035                    -0.0135                  296.8586471078337
0.0035                    -0.0125                  296.87333086398326
0.0035                    -0.0115                  296.8916379539489
0.0035                    -0.0105                  296.90452849145015
0.0035                    -0.0095                  296.8335923192204
0.0035                    -0.0085                  296.62226642362486
0.0035                    -0.0075                  296.73418328306315
0.0035                    -0.0065                  297.2262487782162
0.0035                    -0.0055                  297.2172999362275
0.0035                    -0.0045                  296.4207087190416
0.0035                    -0.0035                  295.457041521164
0.0035                    -0.0025                  294.90002223646565
0.0035                    -0.0015                  293.3977131949057
0.0035                    -5.0E-4                  293.160218754618
0.0035                    5.0E-4                   293.1543054056767
0.0035                    0.0015                   293.2667159847231
0.0035                    0.0025                   294.01631612147605
0.0035                    0.0035                   294.2788382091553
0.0035                    0.0045                   294.28428832106744
0.0035                    0.0055                   294.28487622498216
0.0035                    0.0065                   294.24676713685216
0.0035                    0.0075                   294.180071977635
0.0035                    0.0085                   294.1481306662461
0.0035                    0.0095                   294.18421555662854
0.0035                    0.0105                   294.2630447225109
0.0035                    0.0115                   294.28533116407345
0.0035                    0.0125                   294.2488071675465
0.0035                    0.0135                   294.10389161442527
0.0035                    0.0145                   294.0674963109178
0.0035                    0.0155                   295.2240531154532
0.0035                    0.0165                   295.31248815659245
0.0035                    0.0175                   295.41840390120626
0.0035                    0.0185                   295.5235825131175
0.0035                    0.0195                   295.620689705833
0.0035                    0.0205                   295.7104470568579
0.0035                    0.0215                   295.7926923754145
0.0035                    0.0225                   295.86782566993304
0.0035                    0.0235                   295.93545487976075
0.0035                    0.0245                   295.99610202118504
0.0035                    0.0255                   296.04940596296973
0.0035                    0.0265                   296.09498617321503
0.0035                    0.0275                   296.133156730717
0.0035                    0.0285                   296.16351880692804
0.0035                    0.0295                   296.1861575198497
0.0035                    0.0305                   296.20125480662347
0.0035                    0.0315                   296.2087851970073
0.0045                    -0.0315                  297.21109069535754
0.0045                    -0.0305                  297.205063465766
0.0045                    -0.0295                  297.19318119112506
0.0045                    -0.0285                  297.175424576765
0.0045                    -0.0275                  297.15249788658906
0.0045                    -0.0265                  297.1240951732167
0.0045                    -0.0255                  297.0915198999713
0.0045                    -0.0245                  297.0554315349467
0.0045                    -0.0235                  297.0165708995526
0.0045                    -0.0225                  296.9763019613356
0.0045                    -0.0215                  296.9362443900013
0.0045                    -0.0205                  296.8981190026095
0.0045                    -0.0195                  296.86454544712456
0.0045                    -0.0185                  296.8372800015251
0.0045                    -0.0175                  296.8173246307187
0.0045                    -0.0165                  296.80575296393874
0.0045                    -0.0155                  296.8035075247131
0.0045                    -0.0145                  296.80924557421685
0.0045                    -0.0135                  296.823825399254
0.0045                    -0.0125                  296.84815486380256
0.0045                    -0.0115                  297.0062318254845
0.0045                    -0.0105                  296.93122365812224
0.0045                    -0.0095                  296.7413918209858
0.0045                    -0.0085                  296.6615034763106
0.0045                    -0.0075                  296.88275881945845
0.0045                    -0.0065                  297.1163610540503
0.0045                    -0.0055                  296.8229685865227
0.0045                    -0.0045                  295.84919455856664
0.0045                    -0.0035                  295.14273320942016
0.0045                    -0.0025                  294.6968921138722
0.0045                    -0.0015                  293.3290475882781
0.0045                    -5.0E-4                  293.15866879779696
0.0045                    5.0E-4                   293.15702352815833
0.0045                    0.0015                   293.24900233639295
0.0045                    0.0025                   293.74608153968256
0.0045                    0.0035                   294.143121790059
0.0045                    0.0045                   294.17625447474364
0.0045                    0.0055                   294.15157415707574
0.0045                    0.0065                   294.1371713521212
0.0045                    0.0075                   294.15026573780693
0.0045                    0.0085                   294.15625377208335
0.0045                    0.0095                   294.16506460156074
0.0045                    0.0105                   294.1844812724585
0.0045                    0.0115                   294.19340855553156
0.0045                    0.0125                   294.1587662295466
0.0045                    0.0135                   294.0601488476197
0.0045                    0.0145                   293.7651153840559
0.0045                    0.0155                   295.04373666214224
0.0045                    0.0165                   295.2181485167379
0.0045                    0.0175                   295.37129606567106
0.0045                    0.0185                   295.5005231599995
0.0045                    0.0195                   295.6099380402497
0.0045                    0.0205                   295.7063208825713
0.0045                    0.0215                   295.79301437383907
0.0045                    0.0225                   295.8705392087374
0.0045                    0.0235                   295.9405005504606
0.0045                    0.0245                   296.00304102628246
0.0045                    0.0255                   296.057325425904
0.0045                    0.0265                   296.10335124697383
0.0045                    0.0275                   296.14218875101915
0.0045                    0.0285                   296.17273350988705
0.0045                    0.0295                   296.1957975892851
0.0045                    0.0305                   296.2108529601323
0.0045                    0.0315                   296.21844105421906
0.0055                    -0.0315                  297.21222330431897
0.0055                    -0.0305                  297.20558978686597
0.0055                    -0.0295                  297.1925960050224
0.0055                    -0.0285                  297.1729837912996
0.0055                    -0.0275                  297.1478826894168
0.0055                    -0.0265                  297.1165834861462
0.0055                    -0.0255                  297.07991573839416
0.0055                    -0.0245                  297.0387918862633
0.0055                    -0.0235                  296.99467680391626
0.0055                    -0.0225                  296.9479997690467
0.0055                    -0.0215                  296.9005487063345
0.0055                    -0.0205                  296.8553745030404
0.0055                    -0.0195                  296.81476102793846
0.0055                    -0.0185                  296.7818515530616
0.0055                    -0.0175                  296.75949534705586
0.0055                    -0.0165                  296.7491982307386
0.0055                    -0.0155                  296.7480213317349
0.0055                    -0.0145                  296.75658991869216
0.0055                    -0.0135                  296.7732994843608
0.0055                    -0.0125                  297.0275820499307
0.0055                    -0.0115                  296.9854919346925
0.0055                    -0.0105                  296.8073186041119
0.0055                    -0.0095                  296.7362522555539
0.0055                    -0.0085                  296.7563681236112
0.0055                    -0.0075                  296.88468947363776
0.0055                    -0.0065                  296.86353303430565
0.0055                    -0.0055                  296.12462088770644
0.0055                    -0.0045                  295.26366690789666
0.0055                    -0.0035                  294.89529157376586
0.0055                    -0.0025                  294.2988286775203
0.0055                    -0.0015                  293.2728361896955
0.0055                    -5.0E-4                  293.15984828590854
0.0055                    5.0E-4                   293.15904159375197
0.0055                    0.0015                   293.208337872078
0.0055                    0.0025                   293.39313990338303
0.0055                    0.0035                   293.55145619158924
0.0055                    0.0045                   293.56771405081986
0.0055                    0.0055                   293.54742092226775
0.0055                    0.0065                   293.55223615561476
0.0055                    0.0075                   293.5689952061936
0.0055                    0.0085                   293.5932773120604
0.0055                    0.0095                   293.660674791151
0.0055                    0.0105                   293.7271325522079
0.0055                    0.0115                   293.76525436661814
0.0055                    0.0125                   293.7192973580623
0.0055                    0.0135                   293.6848575978162
0.0055                    0.0145                   293.6422461348288
0.0055                    0.0155                   294.058186112585
0.0055                    0.0165                   295.137111906487
0.0055                    0.0175                   295.34349090448643
0.0055                    0.0185                   295.4912515816954
0.0055                    0.0195                   295.60793569432235
0.0055                    0.0205                   295.7075496964862
0.0055                    0.0215                   295.7961634257257
0.0055                    0.0225                   295.8767086435348
0.0055                    0.0235                   295.9488075715698
0.0055                    0.0245                   296.0129671314964
0.0055                    0.0255                   296.0683506581419
0.0055                    0.0265                   296.115622401629
0.0055                    0.0275                   296.1543905922942
0.0055                    0.0285                   296.18487147640576
0.0055                    0.0295                   296.2078574052712
0.0055                    0.0305                   296.2228905396258
0.0055                    0.0315                   296.2306105541651
0.0065                    -0.0315                  297.2147701623117
0.0065                    -0.0305                  297.20741350492426
0.0065                    -0.0295                  297.19331872627004
0.0065                    -0.0285                  297.1718277567889
0.0065                    -0.0275                  297.1439325571391
0.0065                    -0.0265                  297.1087899861433
0.0065                    -0.0255                  297.0678602086915
0.0065                    -0.0245                  297.0211724241333
0.0065                    -0.0235                  296.9698704067176
0.0065                    -0.0225                  296.91502527712447
0.0065                    -0.0215                  296.85857885081765
0.0065                    -0.0205                  296.8021899892684
0.0065                    -0.0195                  296.7522817343762
0.0065                    -0.0185                  296.71142120950003
0.0065                    -0.0175                  296.68586331037585
0.0065                    -0.0165                  296.6751023256515
0.0065                    -0.0155                  296.6792886995728
0.0065                    -0.0145                  296.6908899099804
0.0065                    -0.0135                  296.71084497942553
0.0065                    -0.0125                  296.7254191932335
0.0065                    -0.0115                  296.55505267492697
0.0065                    -0.0105                  296.40277867346396
0.0065                    -0.0095                  296.5399757571131
0.0065                    -0.0085                  296.7051763325644
0.0065                    -0.0075                  296.6130684584226
0.0065                    -0.0065                  296.2557015163781
0.0065                    -0.0055                  295.41569299538764
0.0065                    -0.0045                  294.8573075941422
0.0065                    -0.0035                  294.6352201721512
0.0065                    -0.0025                  293.7526079835855
0.0065                    -0.0015                  293.21097151569603
0.0065                    -5.0E-4                  293.16071740328323
0.0065                    5.0E-4                   293.15973630280973
0.0065                    0.0015                   293.2057506302566
0.0065                    0.0025                   293.20970044277044
0.0065                    0.0035                   293.26032959261556
0.0065                    0.0045                   293.3104555846982
0.0065                    0.0055                   293.3489682205643
0.0065                    0.0065                   293.3924989180262
0.0065                    0.0075                   293.4086759671611
0.0065                    0.0085                   293.45252170622683
0.0065                    0.0095                   293.4642470920815
0.0065                    0.0105                   293.50029608014637
0.0065                    0.0115                   293.52362569990356