% Model:              模型结构导入comsolBench极细.mph
% Version:            COMSOL 6.2.0.339
% Date:               May 29 2026, 14:53
% Dimension:          2
% Nodes:              4096
% Expressions:        1
% Description:        温度
% Length unit:        m
% x                       y                        T (K)
5.0E-4                    -0.0315                  295.68086762352635
5.0E-4                    -0.0305                  295.68178964868804
5.0E-4                    -0.0295                  295.68365919695395
5.0E-4                    -0.0285                  295.68669734066106
5.0E-4                    -0.0275                  295.6910727463468
5.0E-4                    -0.0265                  295.69684968605503
5.0E-4                    -0.0255                  295.70408370216126
5.0E-4                    -0.0245                  295.71292985328137
5.0E-4                    -0.0235                  295.72334888404544
5.0E-4                    -0.0225                  295.73496206943855
5.0E-4                    -0.0215                  295.74740377756325
5.0E-4                    -0.0205                  295.7600972724788
5.0E-4                    -0.0195                  295.77227908164537
5.0E-4                    -0.0185                  295.78323474099267
5.0E-4                    -0.0175                  295.79207122611973
5.0E-4                    -0.0165                  295.7982339273356
5.0E-4                    -0.0155                  295.8012398454379
5.0E-4                    -0.0145                  295.6400013064659
5.0E-4                    -0.0135                  295.48047746654987
5.0E-4                    -0.0125                  295.45088477040395
5.0E-4                    -0.0115                  295.3238201760298
5.0E-4                    -0.0105                  294.7108820694622
5.0E-4                    -0.0095                  293.24160962548603
5.0E-4                    -0.0085                  293.15026170357635
5.0E-4                    -0.0075                  293.1503311974931
5.0E-4                    -0.0065                  293.2197731404339
5.0E-4                    -0.0055                  294.3709133633587
5.0E-4                    -0.0045                  294.80229541114295
5.0E-4                    -0.0035                  294.91573383812613
5.0E-4                    -0.0025                  294.9746744771846
5.0E-4                    -0.0015                  295.031854887028
5.0E-4                    -5.0E-4                  295.1009409824301
5.0E-4                    5.0E-4                   295.1743216928509
5.0E-4                    0.0015                   295.25509021500096
5.0E-4                    0.0025                   295.33237664474126
5.0E-4                    0.0035                   295.41206639240204
5.0E-4                    0.0045                   295.48456655925673
5.0E-4                    0.0055                   295.4832761535199
5.0E-4                    0.0065                   294.84220060881216
5.0E-4                    0.0075                   294.3057708542206
5.0E-4                    0.0085                   294.2261129142225
5.0E-4                    0.0095                   294.20844582423376
5.0E-4                    0.0105                   294.1903741274581
5.0E-4                    0.0115                   294.1639472034725
5.0E-4                    0.0125                   294.17354947876163
5.0E-4                    0.0135                   294.2840053753719
5.0E-4                    0.0145                   294.4965425838091
5.0E-4                    0.0155                   294.6378199681572
5.0E-4                    0.0165                   294.998149285556
5.0E-4                    0.0175                   295.01705165388853
5.0E-4                    0.0185                   295.04828156064036
5.0E-4                    0.0195                   295.08713453848003
5.0E-4                    0.0205                   295.1308781142393
5.0E-4                    0.0215                   295.17625295593655
5.0E-4                    0.0225                   295.22105556090435
5.0E-4                    0.0235                   295.26379748126806
5.0E-4                    0.0245                   295.30312779381387
5.0E-4                    0.0255                   295.3383611664019
5.0E-4                    0.0265                   295.36925243730354
5.0E-4                    0.0275                   295.39548582367536
5.0E-4                    0.0285                   295.41644997568494
5.0E-4                    0.0295                   295.4321288427708
5.0E-4                    0.0305                   295.44275409006764
5.0E-4                    0.0315                   295.4482283304849
0.0015                    -0.0315                  295.67458408599157
0.0015                    -0.0305                  295.6754629772946
0.0015                    -0.0295                  295.6773176320969
0.0015                    -0.0285                  295.6802784233549
0.0015                    -0.0275                  295.6844418685108
0.0015                    -0.0265                  295.6900496671253
0.0015                    -0.0255                  295.69730659223535
0.0015                    -0.0245                  295.7062388300319
0.0015                    -0.0235                  295.71679546883144
0.0015                    -0.0225                  295.7289053121734
0.0015                    -0.0215                  295.74195937264045
0.0015                    -0.0205                  295.75535034132383
0.0015                    -0.0195                  295.7684378321477
0.0015                    -0.0185                  295.7801624185964
0.0015                    -0.0175                  295.7896322458545
0.0015                    -0.0165                  295.79619517102003
0.0015                    -0.0155                  295.79932319287684
0.0015                    -0.0145                  295.60111802139085
0.0015                    -0.0135                  295.72687726388375
0.0015                    -0.0125                  295.81894328265594
0.0015                    -0.0115                  295.3009318773105
0.0015                    -0.0105                  294.69790674708844
0.0015                    -0.0095                  293.29974965651576
0.0015                    -0.0085                  293.1498195543098
0.0015                    -0.0075                  293.1503551218375
0.0015                    -0.0065                  293.2487527580803
0.0015                    -0.0055                  294.3485535211626
0.0015                    -0.0045                  294.70856260160144
0.0015                    -0.0035                  295.0663625386535
0.0015                    -0.0025                  295.2558060493401
0.0015                    -0.0015                  295.241359047344
0.0015                    -5.0E-4                  295.2361168513068
0.0015                    5.0E-4                   295.2673594441552
0.0015                    0.0015                   295.31277265748145
0.0015                    0.0025                   295.32951722035244
0.0015                    0.0035                   295.2931993298305
0.0015                    0.0045                   295.1348731632234
0.0015                    0.0055                   294.57641440619796
0.0015                    0.0065                   294.21311994052184
0.0015                    0.0075                   294.1465971073563
0.0015                    0.0085                   294.1225861041071
0.0015                    0.0095                   294.10562422426943
0.0015                    0.0105                   294.11435946621407
0.0015                    0.0115                   294.1076048276401
0.0015                    0.0125                   294.07110682303176
0.0015                    0.0135                   294.0165069502244
0.0015                    0.0145                   294.1803277613384
0.0015                    0.0155                   294.71987110831236
0.0015                    0.0165                   294.9769277406517
0.0015                    0.0175                   294.9995648809233
0.0015                    0.0185                   295.0347298547706
0.0015                    0.0195                   295.07746885078933
0.0015                    0.0205                   295.1240412083071
0.0015                    0.0215                   295.17173759943284
0.0015                    0.0225                   295.2183075003979
0.0015                    0.0235                   295.26186311034655
0.0015                    0.0245                   295.3019592847763
0.0015                    0.0255                   295.337907653176
0.0015                    0.0265                   295.3691649256498
0.0015                    0.0275                   295.3952201364175
0.0015                    0.0285                   295.41637309079624
0.0015                    0.0295                   295.43238675758624
0.0015                    0.0305                   295.4428837289313
0.0015                    0.0315                   295.4483648442631
0.0025                    -0.0315                  295.6624943441239
0.0025                    -0.0305                  295.6634048036906
0.0025                    -0.0295                  295.6650804469334
0.0025                    -0.0285                  295.6677096741754
0.0025                    -0.0275                  295.6715091002393
0.0025                    -0.0265                  295.67681278154123
0.0025                    -0.0255                  295.68398591690686
0.0025                    -0.0245                  295.693026598991
0.0025                    -0.0235                  295.703976327608
0.0025                    -0.0225                  295.71685563211764
0.0025                    -0.0215                  295.7312257788643
0.0025                    -0.0205                  295.7462754229597
0.0025                    -0.0195                  295.7610264911557
0.0025                    -0.0185                  295.774063774788
0.0025                    -0.0175                  295.78498311949716
0.0025                    -0.0165                  295.7926255235168
0.0025                    -0.0155                  295.79645720228564
0.0025                    -0.0145                  295.6478382094488
0.0025                    -0.0135                  295.90023821189027
0.0025                    -0.0125                  295.9428585447522
0.0025                    -0.0115                  295.0951119574333
0.0025                    -0.0105                  294.5926131437948
0.0025                    -0.0095                  293.33216807315836
0.0025                    -0.0085                  293.1514637436957
0.0025                    -0.0075                  293.1514410317878
0.0025                    -0.0065                  293.2691384656008
0.0025                    -0.0055                  294.25054366273395
0.0025                    -0.0045                  294.5327046559512
0.0025                    -0.0035                  294.77071918742024
0.0025                    -0.0025                  294.99909725274
0.0025                    -0.0015                  295.06458003609555
0.0025                    -5.0E-4                  295.0118943201644
0.0025                    5.0E-4                   294.9651024485006
0.0025                    0.0015                   294.9369695962336
0.0025                    0.0025                   294.84623899179405
0.0025                    0.0035                   294.7041657443236
0.0025                    0.0045                   294.4115194625682
0.0025                    0.0055                   294.2040842720794
0.0025                    0.0065                   294.15327004507714
0.0025                    0.0075                   294.16510360274583
0.0025                    0.0085                   294.23278847157525
0.0025                    0.0095                   294.37778004458045
0.0025                    0.0105                   294.4584370746856
0.0025                    0.0115                   294.44376740601285
0.0025                    0.0125                   294.34504761578194
0.0025                    0.0135                   294.14942498899467
0.0025                    0.0145                   293.9728572747286
0.0025                    0.0155                   294.46608651393655
0.0025                    0.0165                   294.9304315224356
0.0025                    0.0175                   294.9646481935814
0.0025                    0.0185                   295.00923708850553
0.0025                    0.0195                   295.05968581657936
0.0025                    0.0205                   295.11178945107997
0.0025                    0.0215                   295.16365522253795
0.0025                    0.0225                   295.2128335459626
0.0025                    0.0235                   295.2585040180984
0.0025                    0.0245                   295.3000191874073
0.0025                    0.0255                   295.3370064102088
0.0025                    0.0265                   295.3685594581356
0.0025                    0.0275                   295.3950344814578
0.0025                    0.0285                   295.41642372770167
0.0025                    0.0295                   295.4327032927347
0.0025                    0.0305                   295.4432604621877
0.0025                    0.0315                   295.44868903416943
0.0035                    -0.0315                  295.6447499652363
0.0035                    -0.0305                  295.6451328080075
0.0035                    -0.0295                  295.6462887064263
0.0035                    -0.0285                  295.6482814874773
0.0035                    -0.0275                  295.6515114904497
0.0035                    -0.0265                  295.6563030729357
0.0035                    -0.0255                  295.6630069920006
0.0035                    -0.0245                  295.6720582971978
0.0035                    -0.0235                  295.6836643284305
0.0035                    -0.0225                  295.69773526977866
0.0035                    -0.0215                  295.71415832697954
0.0035                    -0.0205                  295.73203554278825
0.0035                    -0.0195                  295.7494343622866
0.0035                    -0.0185                  295.7654986105565
0.0035                    -0.0175                  295.77855460253136
0.0035                    -0.0165                  295.78781204635635
0.0035                    -0.0155                  295.7927158571858
0.0035                    -0.0145                  295.6934045883793
0.0035                    -0.0135                  295.9050887272406
0.0035                    -0.0125                  295.7965094131878
0.0035                    -0.0115                  294.9136380099776
0.0035                    -0.0105                  294.4713731429996
0.0035                    -0.0095                  293.34608141434313
0.0035                    -0.0085                  293.15620964912205
0.0035                    -0.0075                  293.1558635004679
0.0035                    -0.0065                  293.26880448737484
0.0035                    -0.0055                  294.16601470721173
0.0035                    -0.0045                  294.39783080042434
0.0035                    -0.0035                  294.4558245492989
0.0035                    -0.0025                  294.48620370194845
0.0035                    -0.0015                  294.469056427217
0.0035                    -5.0E-4                  294.4417128465939
0.0035                    5.0E-4                   294.4036370726123
0.0035                    0.0015                   294.3670997835554
0.0035                    0.0025                   294.3349571810253
0.0035                    0.0035                   294.2743171917315
0.0035                    0.0045                   294.2053863570152
0.0035                    0.0055                   294.1666088676337
0.0035                    0.0065                   294.18400715998064
0.0035                    0.0075                   294.2822229618097
0.0035                    0.0085                   294.46008450365184
0.0035                    0.0095                   294.602218889817
0.0035                    0.0105                   294.6363267486648
0.0035                    0.0115                   294.59981427569545
0.0035                    0.0125                   294.4964703151401
0.0035                    0.0135                   294.3291355268261
0.0035                    0.0145                   294.06164859350673
0.0035                    0.0155                   293.9568025660797
0.0035                    0.0165                   294.8556384804908
0.0035                    0.0175                   294.9153349772224
0.0035                    0.0185                   294.97263422360174
0.0035                    0.0195                   295.033964413866
0.0035                    0.0205                   295.09523682113667
0.0035                    0.0215                   295.1525510827231
0.0035                    0.0225                   295.20603800141447
0.0035                    0.0235                   295.2545809980478
0.0035                    0.0245                   295.29797311789986
0.0035                    0.0255                   295.33567241937374
0.0035                    0.0265                   295.3681778123446
0.0035                    0.0275                   295.39528016182487
0.0035                    0.0285                   295.41682557128564
0.0035                    0.0295                   295.43312067961335
0.0035                    0.0305                   295.4438344541734
0.0035                    0.0315                   295.44927553231804
0.0045                    -0.0315                  295.6212001134085
0.0045                    -0.0305                  295.6212080993848
0.0045                    -0.0295                  295.6216217741257
0.0045                    -0.0285                  295.62299135441924
0.0045                    -0.0275                  295.62529936653254
0.0045                    -0.0265                  295.62937978778166
0.0045                    -0.0255                  295.63505825165055
0.0045                    -0.0245                  295.64385189302504
0.0045                    -0.0235                  295.6561894878398
0.0045                    -0.0225                  295.6720243140443
0.0045                    -0.0215                  295.6912023077974
0.0045                    -0.0205                  295.7125991277204
0.0045                    -0.0195                  295.73472393460435
0.0045                    -0.0185                  295.7548400695088
0.0045                    -0.0175                  295.770907063705
0.0045                    -0.0165                  295.7820746782952
0.0045                    -0.0155                  295.7886978661868
0.0045                    -0.0145                  295.7299427959128
0.0045                    -0.0135                  295.9469537110555
0.0045                    -0.0125                  295.6293574400618
0.0045                    -0.0115                  294.7875381604784
0.0045                    -0.0105                  294.3169703576888
0.0045                    -0.0095                  293.3630974896189
0.0045                    -0.0085                  293.16095430237084
0.0045                    -0.0075                  293.15971026657337
0.0045                    -0.0065                  293.33679226918514
0.0045                    -0.0055                  294.1077546972948
0.0045                    -0.0045                  294.3084536558853
0.0045                    -0.0035                  294.3020816668995
0.0045                    -0.0025                  294.2881683785536
0.0045                    -0.0015                  294.2700420115475
0.0045                    -5.0E-4                  294.2503138369194
0.0045                    5.0E-4                   294.2301146175048
0.0045                    0.0015                   294.22181771841394
0.0045                    0.0025                   294.20890685054945
0.0045                    0.0035                   294.19466920861066
0.0045                    0.0045                   294.1815227567648
0.0045                    0.0055                   294.18574396188774
0.0045                    0.0065                   294.23039090909197
0.0045                    0.0075                   294.34359107443606
0.0045                    0.0085                   294.49218339710933
0.0045                    0.0095                   294.6059145481445
0.0045                    0.0105                   294.6170636906821
0.0045                    0.0115                   294.5686401131316
0.0045                    0.0125                   294.4736818185918
0.0045                    0.0135                   294.31805901643395
0.0045                    0.0145                   294.0978485399429
0.0045                    0.0155                   293.87389589308674
0.0045                    0.0165                   294.115828987251
0.0045                    0.0175                   294.85071930398055
0.0045                    0.0185                   294.92664228309053
0.0045                    0.0195                   295.0043804337315
0.0045                    0.0205                   295.07635140523576
0.0045                    0.0215                   295.1410850450416
0.0045                    0.0225                   295.19918516588586
0.0045                    0.0235                   295.2508585953251
0.0045                    0.0245                   295.2956561431087
0.0045                    0.0255                   295.33456223423866
0.0045                    0.0265                   295.3678997433133
0.0045                    0.0275                   295.3957545628466
0.0045                    0.0285                   295.4173644698817
0.0045                    0.0295                   295.43394789551576
0.0045                    0.0305                   295.4446871540797
0.0045                    0.0315                   295.45015744382357
0.0055                    -0.0315                  295.5921024966113
0.0055                    -0.0305                  295.59201965853276
0.0055                    -0.0295                  295.5914783800579
0.0055                    -0.0285                  295.59130853335677
0.0055                    -0.0275                  295.5919975738776
0.0055                    -0.0265                  295.5942450786622
0.0055                    -0.0255                  295.5991223438866
0.0055                    -0.0245                  295.60687975594766
0.0055                    -0.0235                  295.6193654631949
0.0055                    -0.0225                  295.63688041217466
0.0055                    -0.0215                  295.6602387097849
0.0055                    -0.0205                  295.6876601574595
0.0055                    -0.0195                  295.7170919471848
0.0055                    -0.0185                  295.74349808176055
0.0055                    -0.0175                  295.76292614022736
0.0055                    -0.0165                  295.77577070754666
0.0055                    -0.0155                  295.8323737159342
0.0055                    -0.0145                  295.7727335557872
0.0055                    -0.0135                  296.05932569146063
0.0055                    -0.0125                  295.46384970084796
0.0055                    -0.0115                  294.6709483836387
0.0055                    -0.0105                  294.2261962550199
0.0055                    -0.0095                  293.34432654059907
0.0055                    -0.0085                  293.16258903108235
0.0055                    -0.0075                  293.1616719431524
0.0055                    -0.0065                  293.32224506131774
0.0055                    -0.0055                  293.98692480591507
0.0055                    -0.0045                  294.2888803330334
0.0055                    -0.0035                  294.2717008609891
0.0055                    -0.0025                  294.25277392337784
0.0055                    -0.0015                  294.23659007974527
0.0055                    -5.0E-4                  294.22374744497586
0.0055                    5.0E-4                   294.2055292064942
0.0055                    0.0015                   294.1832433274349
0.0055                    0.0025                   294.16509711353126
0.0055                    0.0035                   294.1771432864541
0.0055                    0.0045                   294.19347609351047
0.0055                    0.0055                   294.19456728275753
0.0055                    0.0065                   294.2246448909759
0.0055                    0.0075                   294.27288867443053
0.0055                    0.0085                   294.3417036977747
0.0055                    0.0095                   294.3911049174318
0.0055                    0.0105                   294.4047028356556
0.0055                    0.0115                   294.3599568897078
0.0055                    0.0125                   294.26524453069106
0.0055                    0.0135                   294.1166979483155
0.0055                    0.0145                   293.9420148133155
0.0055                    0.0155                   293.8064385193658
0.0055                    0.0165                   293.86155595371804
0.0055                    0.0175                   294.7548097319646
0.0055                    0.0185                   294.87762378818536
0.0055                    0.0195                   294.9759527209676
0.0055                    0.0205                   295.0599505789663
0.0055                    0.0215                   295.1317531861832
0.0055                    0.0225                   295.1940594397714
0.0055                    0.0235                   295.2478599390572
0.0055                    0.0245                   295.2944631987961
0.0055                    0.0255                   295.33469815150943
0.0055                    0.0265                   295.3683455515589
0.0055                    0.0275                   295.39647068554615
0.0055                    0.0285                   295.41839876001984
0.0055                    0.0295                   295.435034586653
0.0055                    0.0305                   295.4458448210282
0.0055                    0.0315                   295.4513513921031
0.0065                    -0.0315                  295.5584230670562
0.0065                    -0.0305                  295.5575212174211
0.0065                    -0.0295                  295.55591708547365
0.0065                    -0.0285                  295.55384564131987
0.0065                    -0.0275                  295.5523604752873
0.0065                    -0.0265                  295.5523971586104
0.0065                    -0.0255                  295.55459647354286
0.0065                    -0.0245                  295.5600679179165
0.0065                    -0.0235                  295.5717675768276
0.0065                    -0.0225                  295.59098994020724
0.0065                    -0.0215                  295.61897100947584
0.0065                    -0.0205                  295.6553891691849
0.0065                    -0.0195                  295.69749690687445
0.0065                    -0.0185                  295.73505073768536
0.0065                    -0.0175                  295.7568278048179
0.0065                    -0.0165                  295.89143004740293
0.0065                    -0.0155                  295.8352301340364
0.0065                    -0.0145                  295.8811144145207
0.0065                    -0.0135                  296.0721065005947
0.0065                    -0.0125                  295.2446088120218
0.0065                    -0.0115                  294.5561725299076
0.0065                    -0.0105                  294.22898883783523
0.0065                    -0.0095                  293.32545371394014
0.0065                    -0.0085                  293.167926864103
0.0065                    -0.0075                  293.1645763629006
0.0065                    -0.0065                  293.2944205131512
0.0065                    -0.0055                  293.84884808794425
0.0065                    -0.0045                  294.239041866305
0.0065                    -0.0035                  294.26915199296866
0.0065                    -0.0025                  294.21589737972585
0.0065                    -0.0015                  294.1900991182237
0.0065                    -5.0E-4                  294.15439896731425
0.0065                    5.0E-4                   294.11817322765535
0.0065                    0.0015                   294.0262599964428
0.0065                    0.0025                   293.9895082267217
0.0065                    0.0035                   293.9363455082205
0.0065                    0.0045                   293.9293498404652
0.0065                    0.0055                   293.94714765283874
0.0065                    0.0065                   294.00155598062463
0.0065                    0.0075                   294.0572411020808
0.0065                    0.0085                   294.0824852581936
0.0065                    0.0095                   294.08457856870723
0.0065                    0.0105                   294.0512524490431