% Model:              模型结构导入comsolBench.mph
% Version:            COMSOL 6.2.0.339
% Date:               May 29 2026, 11:25
% Dimension:          2
% Nodes:              4096
% Expressions:        1
% Description:        温度
% Length unit:        m
% x                       y                        T (K)
5.0E-4                    -0.0315                  308.31692865170686
5.0E-4                    -0.0305                  308.30806396659784
5.0E-4                    -0.0295                  308.2991300668401
5.0E-4                    -0.0285                  308.2901961670824
5.0E-4                    -0.0275                  308.27638012817357
5.0E-4                    -0.0265                  308.2514435662232
5.0E-4                    -0.0255                  308.2259373229946
5.0E-4                    -0.0245                  308.20043107976596
5.0E-4                    -0.0235                  308.17210469062417
5.0E-4                    -0.0225                  308.13337586318454
5.0E-4                    -0.0215                  308.0926185538401
5.0E-4                    -0.0205                  308.0518612444956
5.0E-4                    -0.0195                  308.01022270177236
5.0E-4                    -0.0185                  307.95956534154027
5.0E-4                    -0.0175                  307.9063388828184
5.0E-4                    -0.0165                  307.8531124240964
5.0E-4                    -0.0155                  307.7998859653745
5.0E-4                    -0.0145                  307.7408678049227
5.0E-4                    -0.0135                  307.6806325229884
5.0E-4                    -0.0125                  307.6203972410542
5.0E-4                    -0.0115                  307.56016195911997
5.0E-4                    -0.0105                  307.4981175087181
5.0E-4                    -0.0095                  307.4388983054858
5.0E-4                    -0.0085                  307.3796791022535
5.0E-4                    -0.0075                  307.32101576237704
5.0E-4                    -0.0065                  307.26725859317264
5.0E-4                    -0.0055                  307.21498132431367
5.0E-4                    -0.0045                  307.16608961578044
5.0E-4                    -0.0035                  307.1227895518317
5.0E-4                    -0.0025                  307.0831041436854
5.0E-4                    -0.0015                  307.0506228753148
5.0E-4                    -5.0E-4                  307.0266333202517
5.0E-4                    5.0E-4                   307.01380996783837
5.0E-4                    0.0015                   306.89372537986867
5.0E-4                    0.0025                   306.00495224934275
5.0E-4                    0.0035                   304.85680583931753
5.0E-4                    0.0045                   304.0371625757051
5.0E-4                    0.0055                   303.685888732326
5.0E-4                    0.0065                   303.39835878266655
5.0E-4                    0.0075                   298.7815304072588
5.0E-4                    0.0085                   293.1744944436556
5.0E-4                    0.0095                   293.15237151374595
5.0E-4                    0.0105                   293.15250337428716
5.0E-4                    0.0115                   293.15269650400006
5.0E-4                    0.0125                   293.1530101964386
5.0E-4                    0.0135                   293.1562065109415
5.0E-4                    0.0145                   293.64895826381013
5.0E-4                    0.0155                   294.43065586699936
5.0E-4                    0.0165                   294.48911053909177
5.0E-4                    0.0175                   294.52229494995606
5.0E-4                    0.0185                   294.5213372013381
5.0E-4                    0.0195                   294.3145499022325
5.0E-4                    0.0205                   293.3031503062582
5.0E-4                    0.0215                   293.1559963922842
5.0E-4                    0.0225                   293.15398689468066
5.0E-4                    0.0235                   293.1632254365661
5.0E-4                    0.0245                   294.83668526813153
5.0E-4                    0.0255                   295.85475079695584
5.0E-4                    0.0265                   296.33853484261846
5.0E-4                    0.0275                   296.8291919980316
5.0E-4                    0.0285                   296.8338599078349
5.0E-4                    0.0295                   296.8404699483742
5.0E-4                    0.0305                   296.8468704475707
5.0E-4                    0.0315                   296.8498775379079
0.0015                    -0.0315                  308.3142838778044
0.0015                    -0.0305                  308.3083921483647
0.0015                    -0.0295                  308.29966589255315
0.0015                    -0.0285                  308.2907314440557
0.0015                    -0.0275                  308.27214858740814
0.0015                    -0.0265                  308.2519368069004
0.0015                    -0.0255                  308.2264305636718
0.0015                    -0.0245                  308.20066790792083
0.0015                    -0.0235                  308.1672407438873
0.0015                    -0.0225                  308.1328308695556
0.0015                    -0.0215                  308.09207356021125
0.0015                    -0.0205                  308.05131625086676
0.0015                    -0.0195                  308.00477043321064
0.0015                    -0.0185                  307.9568299998159
0.0015                    -0.0175                  307.903603541094
0.0015                    -0.0165                  307.85037708237206
0.0015                    -0.0155                  307.7931942521102
0.0015                    -0.0145                  307.73395629634535
0.0015                    -0.0135                  307.67382374609815
0.0015                    -0.0125                  307.6135884641639
0.0015                    -0.0115                  307.55184775760796
0.0015                    -0.0105                  307.48813293747224
0.0015                    -0.0095                  307.42768035263316
0.0015                    -0.0085                  307.36846114940084
0.0015                    -0.0075                  307.3115679576129
0.0015                    -0.0065                  307.2558313164433
0.0015                    -0.0055                  307.204795030151
0.0015                    -0.0045                  307.15780782637694
0.0015                    -0.0035                  307.11473542098474
0.0015                    -0.0025                  307.072737311391
0.0015                    -0.0015                  307.03681800116533
0.0015                    -5.0E-4                  307.01017232330094
0.0015                    5.0E-4                   306.9928710928861
0.0015                    0.0015                   306.65109712467654
0.0015                    0.0025                   304.84329228484035
0.0015                    0.0035                   302.3459746335887
0.0015                    0.0045                   300.9552947645293
0.0015                    0.0055                   300.3357656951341
0.0015                    0.0065                   299.93126304902796
0.0015                    0.0075                   295.00492951272
0.0015                    0.0085                   293.1336143307609
0.0015                    0.0095                   293.15669200501264
0.0015                    0.0105                   293.15744458465133
0.0015                    0.0115                   293.15816943889257
0.0015                    0.0125                   293.1601914750379
0.0015                    0.0135                   293.2033152361603
0.0015                    0.0145                   293.87331806943484
0.0015                    0.0155                   294.53931862251807
0.0015                    0.0165                   294.5616303013535
0.0015                    0.0175                   294.57968584960867
0.0015                    0.0185                   294.58595423251666
0.0015                    0.0195                   294.58690876291695
0.0015                    0.0205                   293.83255826076277
0.0015                    0.0215                   293.20904050387895
0.0015                    0.0225                   293.16160392899457
0.0015                    0.0235                   293.1968070553631
0.0015                    0.0245                   293.6835926340227
0.0015                    0.0255                   294.8826659482398
0.0015                    0.0265                   295.75855868966585
0.0015                    0.0275                   296.81844887167017
0.0015                    0.0285                   296.826000278694
0.0015                    0.0295                   296.8362340221867
0.0015                    0.0305                   296.84465422515115
0.0015                    0.0315                   296.8481889573188
0.0025                    -0.0315                  308.31163910390194
0.0025                    -0.0305                  308.30574737446216
0.0025                    -0.0295                  308.2998556450225
0.0025                    -0.0285                  308.28649990329035
0.0025                    -0.0275                  308.2679170466427
0.0025                    -0.0265                  308.2493341899951
0.0025                    -0.0255                  308.22692380434904
0.0025                    -0.0245                  308.1958039611841
0.0025                    -0.0235                  308.16237679715056
0.0025                    -0.0225                  308.12894963311714
0.0025                    -0.0215                  308.0915285665824
0.0025                    -0.0205                  308.04712048497987
0.0025                    -0.0195                  307.9993181646489
0.0025                    -0.0185                  307.9515158443179
0.0025                    -0.0175                  307.9008681993696
0.0025                    -0.0165                  307.84519873085543
0.0025                    -0.0155                  307.78596077509053
0.0025                    -0.0145                  307.72672281932563
0.0025                    -0.0135                  307.66701496920786
0.0025                    -0.0125                  307.60633322900566
0.0025                    -0.0115                  307.54261840886994
0.0025                    -0.0105                  307.4789035887343
0.0025                    -0.0095                  307.4164623997806
0.0025                    -0.0085                  307.35855020721624
0.0025                    -0.0075                  307.3021201528487
0.0025                    -0.0065                  307.24358691352876
0.0025                    -0.0055                  307.18956966910656
0.0025                    -0.0045                  307.1372848142409
0.0025                    -0.0035                  307.0929082353774
0.0025                    -0.0025                  307.0517515343855
0.0025                    -0.0015                  307.011132880897
0.0025                    -5.0E-4                  306.97746511464646
0.0025                    5.0E-4                   306.95305043566043
0.0025                    0.0015                   306.015581257378
0.0025                    0.0025                   302.79418526840834
0.0025                    0.0035                   299.6447986042626
0.0025                    0.0045                   298.6946145603267
0.0025                    0.0055                   298.8090568131904
0.0025                    0.0065                   297.0018940056148
0.0025                    0.0075                   293.67246263912284
0.0025                    0.0085                   293.1456867588196
0.0025                    0.0095                   293.16230444224254
0.0025                    0.0105                   293.1629097512107
0.0025                    0.0115                   293.1647122337888
0.0025                    0.0125                   293.1756890786427
0.0025                    0.0135                   293.343311985273
0.0025                    0.0145                   294.0749995331956
0.0025                    0.0155                   294.6312442344208
0.0025                    0.0165                   294.63897393454255
0.0025                    0.0175                   294.6450471862667
0.0025                    0.0185                   294.64737225654085
0.0025                    0.0195                   294.64410280963665
0.0025                    0.0205                   294.1147418472845
0.0025                    0.0215                   293.28310083442665
0.0025                    0.0225                   293.17824299598135
0.0025                    0.0235                   293.1683082703388
0.0025                    0.0245                   293.47528149234216
0.0025                    0.0255                   294.121437052608
0.0025                    0.0265                   295.4599065138294
0.0025                    0.0275                   296.79013783963114
0.0025                    0.0285                   296.81489252041536
0.0025                    0.0295                   296.83052073653175
0.0025                    0.0305                   296.84083956246883
0.0025                    0.0315                   296.8458911743804
0.0035                    -0.0315                  308.3089943299994
0.0035                    -0.0305                  308.30304239550543
0.0035                    -0.0295                  308.2956323959936
0.0035                    -0.0285                  308.2833082958297
0.0035                    -0.0275                  308.26456491243846
0.0035                    -0.0265                  308.24582152904713
0.0035                    -0.0255                  308.2239367758351
0.0035                    -0.0245                  308.1912302337894
0.0035                    -0.0235                  308.1577645581389
0.0035                    -0.0225                  308.12429888248846
0.0035                    -0.0215                  308.08884545658105
0.0035                    -0.0205                  308.0412355606819
0.0035                    -0.0195                  307.9934928332717
0.0035                    -0.0185                  307.94575010586146
0.0035                    -0.0175                  307.8966686023067
0.0035                    -0.0165                  307.8378262347689
0.0035                    -0.0155                  307.7787272980708
0.0035                    -0.0145                  307.7194893423059
0.0035                    -0.0135                  307.66020619231756
0.0035                    -0.0125                  307.5971038802677
0.0035                    -0.0115                  307.5331227644766
0.0035                    -0.0105                  307.46779509383714
0.0035                    -0.0095                  307.4014155733103
0.0035                    -0.0085                  307.337539375403
0.0035                    -0.0075                  307.27466050098326
0.0035                    -0.0065                  307.21326013695307
0.0035                    -0.0055                  307.1621502050248
0.0035                    -0.0045                  307.1131180761272
0.0035                    -0.0035                  307.06601069322085
0.0035                    -0.0025                  307.0201744418322
0.0035                    -0.0015                  306.977799134947
0.0035                    -5.0E-4                  306.93054035761776
0.0035                    5.0E-4                   306.88561322349574
0.0035                    0.0015                   304.832559908042
0.0035                    0.0025                   300.28048072263584
0.0035                    0.0035                   298.29839644535423
0.0035                    0.0045                   297.8344931754894
0.0035                    0.0055                   297.26942560896526
0.0035                    0.0065                   294.577583186985
0.0035                    0.0075                   293.2782119992229
0.0035                    0.0085                   293.15720271698757
0.0035                    0.0095                   293.16793308331364
0.0035                    0.0105                   293.1693590927496
0.0035                    0.0115                   293.18027740028845
0.0035                    0.0125                   293.24367507174014
0.0035                    0.0135                   293.5559328960651
0.0035                    0.0145                   294.33197106947773
0.0035                    0.0155                   294.7172489905252
0.0035                    0.0165                   294.710373969387
0.0035                    0.0175                   294.70956524585654
0.0035                    0.0185                   294.70885732130375
0.0035                    0.0195                   294.7063781840883
0.0035                    0.0205                   294.2897941736232
0.0035                    0.0215                   293.4525597111543
0.0035                    0.0225                   293.2272959067013
0.0035                    0.0235                   293.18732944586594
0.0035                    0.0245                   293.3211465933226
0.0035                    0.0255                   293.7349720427538
0.0035                    0.0265                   295.00036672508895
0.0035                    0.0275                   296.76166972077846
0.0035                    0.0285                   296.804387415261
0.0035                    0.0295                   296.82468819514605
0.0035                    0.0305                   296.83775583733023
0.0035                    0.0315                   296.84387768939195
0.0045                    -0.0315                  308.3049156210444
0.0045                    -0.0305                  308.2975056215326
0.0045                    -0.0295                  308.2900956220208
0.0045                    -0.0285                  308.28060557127174
0.0045                    -0.0275                  308.2618621878804
0.0045                    -0.0265                  308.2415066813986
0.0045                    -0.0255                  308.2154339713853
0.0045                    -0.0245                  308.1872473246459
0.0045                    -0.0235                  308.15378164899545
0.0045                    -0.0225                  308.12031597334504
0.0045                    -0.0215                  308.07848516812976
0.0045                    -0.0205                  308.03331865287475
0.0045                    -0.0195                  307.98557592546456
0.0045                    -0.0185                  307.93783319805436
0.0045                    -0.0175                  307.8831604584552
0.0045                    -0.0165                  307.8252065162244
0.0045                    -0.0155                  307.76636414868665
0.0045                    -0.0145                  307.70752178114884
0.0045                    -0.0135                  307.64285782083056
0.0045                    -0.0125                  307.57454317519296
0.0045                    -0.0115                  307.50921550455354
0.0045                    -0.0105                  307.443887833914
0.0045                    -0.0095                  307.3713524576231
0.0045                    -0.0085                  307.30605981022325
0.0045                    -0.0075                  307.24285521401816
0.0045                    -0.0065                  307.185087825696
0.0045                    -0.0055                  307.1283126419143
0.0045                    -0.0045                  307.07689997080854
0.0045                    -0.0035                  307.03109751304464
0.0045                    -0.0025                  306.9870666782882
0.0045                    -0.0015                  306.9406274193736
0.0045                    -5.0E-4                  306.8833709647711
0.0045                    5.0E-4                   306.76943697346775
0.0045                    0.0015                   302.7326250396856
0.0045                    0.0025                   298.0430343876495
0.0045                    0.0035                   297.4139603633969
0.0045                    0.0045                   296.83219151695107
0.0045                    0.0055                   294.93249564936514
0.0045                    0.0065                   293.54294089136476
0.0045                    0.0075                   293.1573234720388
0.0045                    0.0085                   293.1712859323131
0.0045                    0.0095                   293.17525443741437
0.0045                    0.0105                   293.1836671200465
0.0045                    0.0115                   293.21821820816393
0.0045                    0.0125                   293.3970105792172
0.0045                    0.0135                   294.14627746240234
0.0045                    0.0145                   294.79703882874014
0.0045                    0.0155                   294.7814311670305
0.0045                    0.0165                   294.77248630300323
0.0045                    0.0175                   294.7690413146756
0.0045                    0.0185                   294.7668172220841
0.0045                    0.0195                   294.76771204063067
0.0045                    0.0205                   294.4600372644527
0.0045                    0.0215                   293.6394642108977
0.0045                    0.0225                   293.289205872199
0.0045                    0.0235                   293.21206296449753
0.0045                    0.0245                   293.27957980468386
0.0045                    0.0255                   293.49202320686845
0.0045                    0.0265                   294.0877105782157
0.0045                    0.0275                   295.74903595320495
0.0045                    0.0285                   296.79980034117386
0.0045                    0.0295                   296.8193214912856
0.0045                    0.0305                   296.83510601750487
0.0045                    0.0315                   296.84344470399606
0.0055                    -0.0315                  308.29903040662595
0.0055                    -0.0305                  308.29182478205746
0.0055                    -0.0295                  308.28455884804794
0.0055                    -0.0285                  308.27714884853617
0.0055                    -0.0275                  308.2590765869621
0.0055                    -0.0265                  308.2330038769488
0.0055                    -0.0255                  308.20693116693553
0.0055                    -0.0245                  308.1808584569221
0.0055                    -0.0235                  308.149798739852
0.0055                    -0.0225                  308.11103433432794
0.0055                    -0.0215                  308.06812487967863
0.0055                    -0.0205                  308.0252154250293
0.0055                    -0.0195                  307.9776590176574
0.0055                    -0.0185                  307.9262773730161
0.0055                    -0.0175                  307.86958814542976
0.0055                    -0.0165                  307.8125867976799
0.0055                    -0.0155                  307.75374443014215
0.0055                    -0.0145                  307.68952516980414
0.0055                    -0.0135                  307.62259468818706
0.0055                    -0.0125                  307.5535627204505
0.0055                    -0.0115                  307.48530824463046
0.0055                    -0.0105                  307.41533677818603
0.0055                    -0.0095                  307.34128934193586
0.0055                    -0.0085                  307.2749235005896
0.0055                    -0.0075                  307.2069946152737
0.0055                    -0.0065                  307.1426713230344
0.0055                    -0.0055                  307.08245086127226
0.0055                    -0.0045                  307.0322950411167
0.0055                    -0.0035                  306.9891181614912
0.0055                    -0.0025                  306.9491924764462
0.0055                    -0.0015                  306.90848192470276
0.0055                    -5.0E-4                  306.85789664965773
0.0055                    5.0E-4                   302.8656612445755
0.0055                    0.0015                   298.1227420446836
0.0055                    0.0025                   297.15012133138
0.0055                    0.0035                   296.5690516214207
0.0055                    0.0045                   295.11174393329946
0.0055                    0.0055                   293.73509441058036
0.0055                    0.0065                   293.2112059199248
0.0055                    0.0075                   293.1685945921364
0.0055                    0.0085                   293.1804649105258
0.0055                    0.0095                   293.18739871226717
0.0055                    0.0105                   293.21490821717083
0.0055                    0.0115                   293.3527120908906
0.0055                    0.0125                   294.135859610072
0.0055                    0.0135                   294.8444308531368
0.0055                    0.0145                   294.83865342142707
0.0055                    0.0155                   294.8320952634374
0.0055                    0.0165                   294.8259667282441
0.0055                    0.0175                   294.8217465038432
0.0055                    0.0185                   294.8185456579131
0.0055                    0.0195                   294.81423276431474
0.0055                    0.0205                   294.7974326855312
0.0055                    0.0215                   294.0338383249422
0.0055                    0.0225                   293.3802617106166
0.0055                    0.0235                   293.2312268638622
0.0055                    0.0245                   293.25892128204214
0.0055                    0.0255                   293.39046529177494
0.0055                    0.0265                   293.7073167953743
0.0055                    0.0275                   295.1554058507317
0.0055                    0.0285                   296.7812092346247
0.0055                    0.0295                   296.8140966896983
0.0055                    0.0305                   296.83673617015705
0.0055                    0.0315                   296.8467166664889
0.0065                    -0.0315                  308.2931282586661
0.0065                    -0.0305                  308.2859226340977
0.0065                    -0.0295                  308.2787170095292
0.0065                    -0.0285                  308.2715113849607
0.0065                    -0.0275                  308.2507970286265
0.0065                    -0.0265                  308.22473267127504
0.0065                    -0.0255                  308.19866831392346
0.0065                    -0.0245                  308.172603956572
0.0065                    -0.0235                  308.1435843712833
0.0065                    -0.0225                  308.1006740458767
0.0065                    -0.0215                  308.0577645912274
0.0065                    -0.0205                  308.01485513657803
0.0065                    -0.0195                  307.96939428757696
0.0065                    -0.0185                  307.9127050599906
0.0065                    -0.0175                  307.8560158324043
0.0065                    -0.0165                  307.79932660481796
0.0065                    -0.0155                  307.7361925187778
0.0065                    -0.0145                  307.6692620371607
0.0065                    -0.0135                  307.6023315555436
0.0065                    -0.0125                  307.5331323447233
0.0065                    -0.0115                  307.4593654849957
0.0065                    -0.0105                  307.3807891539654
0.0065                    -0.0095                  307.3073016072957
0.0065                    -0.0085                  307.22794468675477
0.0065                    -0.0075                  307.1549828676324
0.0065                    -0.0065                  307.08488840148266
0.0065                    -0.0055                  307.02546494052615
0.0065                    -0.0045                  306.9765319607937
0.0065                    -0.0035                  306.93725460966317
0.0065                    -0.0025                  306.90880733714835
0.0065                    -0.0015                  306.88081882739783
0.0065                    -5.0E-4                  303.001485942922
0.0065                    5.0E-4                   297.9520408015007
0.0065                    0.0015                   296.7315804564134
0.0065                    0.0025                   296.0901247171564
0.0065                    0.0035                   294.7775182623288
0.0065                    0.0045                   293.8587878181327
0.0065                    0.0055                   293.29165789744445
0.0065                    0.0065                   293.1868279868979
0.0065                    0.0075                   293.18569622977986
0.0065                    0.0085                   293.1949112827263
0.0065                    0.0095                   293.2285906226801
0.0065                    0.0105                   293.3811115996964