% Model:              模型结构导入comsolBench极细.mph
% Version:            COMSOL 6.2.0.339
% Date:               May 29 2026, 14:45
% Dimension:          2
% Nodes:              4096
% Expressions:        1
% Description:        温度
% Length unit:        m
% x                       y                        T (K)
5.0E-4                    -0.0315                  322.29159228870236
5.0E-4                    -0.0305                  322.2925764011701
5.0E-4                    -0.0295                  322.29449876374827
5.0E-4                    -0.0285                  322.2974102907841
5.0E-4                    -0.0275                  322.3013105102697
5.0E-4                    -0.0265                  322.3060921031727
5.0E-4                    -0.0255                  322.31163434170674
5.0E-4                    -0.0245                  322.3178733172234
5.0E-4                    -0.0235                  322.3247606879014
5.0E-4                    -0.0225                  322.33216729746425
5.0E-4                    -0.0215                  322.3399504503073
5.0E-4                    -0.0205                  322.34800048213305
5.0E-4                    -0.0195                  322.35619485799435
5.0E-4                    -0.0185                  322.36439042536824
5.0E-4                    -0.0175                  322.3724570924343
5.0E-4                    -0.0165                  322.3802624219524
5.0E-4                    -0.0155                  322.38765514950245
5.0E-4                    -0.0145                  322.3945366280004
5.0E-4                    -0.0135                  322.4008286153671
5.0E-4                    -0.0125                  322.4064181680872
5.0E-4                    -0.0115                  322.411189834326
5.0E-4                    -0.0105                  322.4151325063057
5.0E-4                    -0.0095                  322.41824240861786
5.0E-4                    -0.0085                  322.42048398375175
5.0E-4                    -0.0075                  322.42188116724566
5.0E-4                    -0.0065                  322.42261473790927
5.0E-4                    -0.0055                  322.42287827348105
5.0E-4                    -0.0045                  322.42292104851447
5.0E-4                    -0.0035                  322.42302341188895
5.0E-4                    -0.0025                  322.4235880710963
5.0E-4                    -0.0015                  322.4252462057567
5.0E-4                    -5.0E-4                  322.8515803701199
5.0E-4                    5.0E-4                   322.473217225208
5.0E-4                    0.0015                   321.4455596463313
5.0E-4                    0.0025                   320.50606647856745
5.0E-4                    0.0035                   319.70015582067236
5.0E-4                    0.0045                   318.97883788134726
5.0E-4                    0.0055                   318.329774192935
5.0E-4                    0.0065                   317.74692524488444
5.0E-4                    0.0075                   317.31925342727806
5.0E-4                    0.0085                   316.9245546524705
5.0E-4                    0.0095                   316.5846095046537
5.0E-4                    0.0105                   316.30750369915734
5.0E-4                    0.0115                   316.0972631533461
5.0E-4                    0.0125                   315.924916733627
5.0E-4                    0.0135                   315.77803600754584
5.0E-4                    0.0145                   315.6433735737837
5.0E-4                    0.0155                   315.4955770291202
5.0E-4                    0.0165                   315.3039812475558
5.0E-4                    0.0175                   314.8928163044514
5.0E-4                    0.0185                   314.19623842736155
5.0E-4                    0.0195                   312.81233785594526
5.0E-4                    0.0205                   308.990869311849
5.0E-4                    0.0215                   300.4633878821726
5.0E-4                    0.0225                   293.4755390306015
5.0E-4                    0.0235                   293.14887095970437
5.0E-4                    0.0245                   293.1501326748652
5.0E-4                    0.0255                   293.16823696613255
5.0E-4                    0.0265                   293.48975364380306
5.0E-4                    0.0275                   293.7029772978865
5.0E-4                    0.0285                   293.73892302238954
5.0E-4                    0.0295                   293.76439969272025
5.0E-4                    0.0305                   293.9630109500959
5.0E-4                    0.0315                   293.84448432547
0.0015                    -0.0315                  322.28522821754547
0.0015                    -0.0305                  322.2862312026009
0.0015                    -0.0295                  322.28829671130836
0.0015                    -0.0285                  322.29134680859755
0.0015                    -0.0275                  322.2952786402041
0.0015                    -0.0265                  322.30007549278577
0.0015                    -0.0255                  322.3057197437721
0.0015                    -0.0245                  322.3120955963582
0.0015                    -0.0235                  322.31907134978
0.0015                    -0.0225                  322.32657524495437
0.0015                    -0.0215                  322.33450514624633
0.0015                    -0.0205                  322.3426918406931
0.0015                    -0.0195                  322.3510122560288
0.0015                    -0.0185                  322.3593537408317
0.0015                    -0.0175                  322.3675642348606
0.0015                    -0.0165                  322.3754724247881
0.0015                    -0.0155                  322.38299493561726
0.0015                    -0.0145                  322.39000729603737
0.0015                    -0.0135                  322.39637675794245
0.0015                    -0.0125                  322.40200434231497
0.0015                    -0.0115                  322.4068691854199
0.0015                    -0.0105                  322.41086596471564
0.0015                    -0.0095                  322.41393904340663
0.0015                    -0.0085                  322.4161004133824
0.0015                    -0.0075                  322.41743600309815
0.0015                    -0.0065                  322.4179602244909
0.0015                    -0.0055                  322.4179364241453
0.0015                    -0.0045                  322.41757786241857
0.0015                    -0.0035                  322.41727968264377
0.0015                    -0.0025                  322.4171898874624
0.0015                    -0.0015                  322.41795872703364
0.0015                    -5.0E-4                  322.7671254943149
0.0015                    5.0E-4                   322.25136621380204
0.0015                    0.0015                   320.9895429236412
0.0015                    0.0025                   319.4965635895981
0.0015                    0.0035                   317.89455871202165
0.0015                    0.0045                   316.32166669908236
0.0015                    0.0055                   314.978057503207
0.0015                    0.0065                   313.8475651618967
0.0015                    0.0075                   313.0728438380682
0.0015                    0.0085                   312.56908517078415
0.0015                    0.0095                   312.3298057522376
0.0015                    0.0105                   312.2917474526326
0.0015                    0.0115                   312.4003406744764
0.0015                    0.0125                   312.5612257810193
0.0015                    0.0135                   312.7337745982927
0.0015                    0.0145                   312.8163216870938
0.0015                    0.0155                   312.67541402854687
0.0015                    0.0165                   312.1130932522998
0.0015                    0.0175                   310.978410286614
0.0015                    0.0185                   308.948060979255
0.0015                    0.0195                   305.64955619415616
0.0015                    0.0205                   299.97963176807446
0.0015                    0.0215                   296.86014850213616
0.0015                    0.0225                   293.5695381437927
0.0015                    0.0235                   293.1432857960221
0.0015                    0.0245                   293.14976468433053
0.0015                    0.0255                   293.18025240936714
0.0015                    0.0265                   293.46276747455124
0.0015                    0.0275                   293.7147038904317
0.0015                    0.0285                   293.8308972127392
0.0015                    0.0295                   293.77887943610546
0.0015                    0.0305                   293.9381404013089
0.0015                    0.0315                   293.8375534485991
0.0025                    -0.0315                  322.2729336866718
0.0025                    -0.0305                  322.27416951687684
0.0025                    -0.0295                  322.27623816391963
0.0025                    -0.0285                  322.2792555213141
0.0025                    -0.0275                  322.2834039891352
0.0025                    -0.0265                  322.2883487049324
0.0025                    -0.0255                  322.29415163784904
0.0025                    -0.0245                  322.3007224823249
0.0025                    -0.0235                  322.30791765347755
0.0025                    -0.0225                  322.3156410150386
0.0025                    -0.0215                  322.323804729986
0.0025                    -0.0205                  322.3322686520503
0.0025                    -0.0195                  322.34087447674136
0.0025                    -0.0185                  322.34948621245263
0.0025                    -0.0175                  322.35793693362814
0.0025                    -0.0165                  322.3661126851689
0.0025                    -0.0155                  322.3738820114695
0.0025                    -0.0145                  322.3811131461293
0.0025                    -0.0135                  322.3876312418186
0.0025                    -0.0125                  322.39341643403407
0.0025                    -0.0115                  322.398418855265
0.0025                    -0.0105                  322.40253157814567
0.0025                    -0.0095                  322.4055741420856
0.0025                    -0.0085                  322.4076150493504
0.0025                    -0.0075                  322.40872207854926
0.0025                    -0.0065                  322.4089217857874
0.0025                    -0.0055                  322.4084385510181
0.0025                    -0.0045                  322.4075490020081
0.0025                    -0.0035                  322.4064614051025
0.0025                    -0.0025                  322.4049885019985
0.0025                    -0.0015                  322.40299259299894
0.0025                    -5.0E-4                  322.33114496336043
0.0025                    5.0E-4                   321.011857421744
0.0025                    0.0015                   318.6467265584303
0.0025                    0.0025                   315.9320121433834
0.0025                    0.0035                   313.330867153258
0.0025                    0.0045                   311.13111028506216
0.0025                    0.0055                   309.3656133716407
0.0025                    0.0065                   308.10686052760934
0.0025                    0.0075                   307.21978247126793
0.0025                    0.0085                   306.77990200457566
0.0025                    0.0095                   306.55088422149913
0.0025                    0.0105                   306.56166164118036
0.0025                    0.0115                   306.7767563535867
0.0025                    0.0125                   307.14825002839
0.0025                    0.0135                   307.60624978188355
0.0025                    0.0145                   307.9421099945924
0.0025                    0.0155                   307.9612576373664
0.0025                    0.0165                   307.571369291224
0.0025                    0.0175                   306.4996337447563
0.0025                    0.0185                   304.7769882814758
0.0025                    0.0195                   300.93974993422364
0.0025                    0.0205                   296.78619812440877
0.0025                    0.0215                   295.86381574210293
0.0025                    0.0225                   293.58158432021844
0.0025                    0.0235                   293.14557894365294
0.0025                    0.0245                   293.1500131436411
0.0025                    0.0255                   293.194966849223
0.0025                    0.0265                   293.42254194724075
0.0025                    0.0275                   293.6025108621296
0.0025                    0.0285                   293.8350535585165
0.0025                    0.0295                   293.83146888227657
0.0025                    0.0305                   293.8252544671039
0.0025                    0.0315                   293.82654387974407
0.0035                    -0.0315                  322.2546810559017
0.0035                    -0.0305                  322.2556098050261
0.0035                    -0.0295                  322.25762249967363
0.0035                    -0.0285                  322.2611174173457
0.0035                    -0.0275                  322.2652124491675
0.0035                    -0.0265                  322.27037702354744
0.0035                    -0.0255                  322.27640530983496
0.0035                    -0.0245                  322.28324315945514
0.0035                    -0.0235                  322.29079525479557
0.0035                    -0.0225                  322.2988945324364
0.0035                    -0.0215                  322.30741821121524
0.0035                    -0.0205                  322.3162971884243
0.0035                    -0.0195                  322.3253634302975
0.0035                    -0.0185                  322.33437020914516
0.0035                    -0.0175                  322.3432336180966
0.0035                    -0.0165                  322.3518342435001
0.0035                    -0.0155                  322.35998961143235
0.0035                    -0.0145                  322.3674902630783
0.0035                    -0.0135                  322.37432145848845
0.0035                    -0.0125                  322.3803608462253
0.0035                    -0.0115                  322.3855213800686
0.0035                    -0.0105                  322.3897046746991
0.0035                    -0.0095                  322.3929347243332
0.0035                    -0.0085                  322.39486302304624
0.0035                    -0.0075                  322.3956622610806
0.0035                    -0.0065                  322.3952173415887
0.0035                    -0.0055                  322.3938016136246
0.0035                    -0.0045                  322.39233715956215
0.0035                    -0.0035                  322.39092613231486
0.0035                    -0.0025                  322.3887390926505
0.0035                    -0.0015                  322.38038479036504
0.0035                    -5.0E-4                  320.01478819783597
0.0035                    5.0E-4                   316.36474676240096
0.0035                    0.0015                   312.83175762861293
0.0035                    0.0025                   309.7715453894559
0.0035                    0.0035                   307.3737001735313
0.0035                    0.0045                   305.5279152200869
0.0035                    0.0055                   304.15023806731074
0.0035                    0.0065                   303.363838502113
0.0035                    0.0075                   302.797511531472
0.0035                    0.0085                   302.44360684033154
0.0035                    0.0095                   302.37933389963297
0.0035                    0.0105                   302.4292130270883
0.0035                    0.0115                   302.60097823527906
0.0035                    0.0125                   302.86996960852616
0.0035                    0.0135                   303.3347776809467
0.0035                    0.0145                   303.6745136351826
0.0035                    0.0155                   304.0028623946821
0.0035                    0.0165                   303.9715013150275
0.0035                    0.0175                   303.4306463678213
0.0035                    0.0185                   301.991340377313
0.0035                    0.0195                   298.2140664124796
0.0035                    0.0205                   295.714296192594
0.0035                    0.0215                   295.38009081995426
0.0035                    0.0225                   293.5692535895063
0.0035                    0.0235                   293.1458253902075
0.0035                    0.0245                   293.1512236865491
0.0035                    0.0255                   293.2108162204269
0.0035                    0.0265                   293.38524787463564
0.0035                    0.0275                   293.5165771784896
0.0035                    0.0285                   293.8524788546455
0.0035                    0.0295                   293.8721952426598
0.0035                    0.0305                   293.8112234496156
0.0035                    0.0315                   293.81193416462094
0.0045                    -0.0315                  322.22997708114485
0.0045                    -0.0305                  322.2309439662722
0.0045                    -0.0295                  322.23316531025375
0.0045                    -0.0285                  322.23681482140404
0.0045                    -0.0275                  322.24140713334634
0.0045                    -0.0265                  322.2467666885034
0.0045                    -0.0255                  322.253225666872
0.0045                    -0.0245                  322.26041251695193
0.0045                    -0.0235                  322.26837299963483
0.0045                    -0.0225                  322.27696448998927
0.0045                    -0.0215                  322.28602985951454
0.0045                    -0.0205                  322.2954331450895
0.0045                    -0.0195                  322.30503156882656
0.0045                    -0.0185                  322.3146461005489
0.0045                    -0.0175                  322.32410552695484
0.0045                    -0.0165                  322.33325313287617
0.0045                    -0.0155                  322.34183186592713
0.0045                    -0.0145                  322.3497745561147
0.0045                    -0.0135                  322.3569832962358
0.0045                    -0.0125                  322.36330123129767
0.0045                    -0.0115                  322.3687145977404
0.0045                    -0.0105                  322.3729567713374
0.0045                    -0.0095                  322.3764803629006
0.0045                    -0.0085                  322.37845883562125
0.0045                    -0.0075                  322.3787773438452
0.0045                    -0.0065                  322.37753970425257
0.0045                    -0.0055                  322.37449323111923
0.0045                    -0.0045                  322.37104891481545
0.0045                    -0.0035                  322.37005594947385
0.0045                    -0.0025                  320.7991369878377
0.0045                    -0.0015                  317.73388245753915
0.0045                    -5.0E-4                  313.5537949917257
0.0045                    5.0E-4                   309.5706395983082
0.0045                    0.0015                   306.54816772810153
0.0045                    0.0025                   304.2566688042393
0.0045                    0.0035                   302.7795687162583
0.0045                    0.0045                   301.6719853540232
0.0045                    0.0055                   301.0240391134946
0.0045                    0.0065                   300.54699780713713
0.0045                    0.0075                   300.232451749163
0.0045                    0.0085                   300.11098962332835
0.0045                    0.0095                   300.0418034158361
0.0045                    0.0105                   300.13183754562965
0.0045                    0.0115                   300.28534708901907
0.0045                    0.0125                   300.4879329359997
0.0045                    0.0135                   300.8007706765683
0.0045                    0.0145                   301.1835637736009
0.0045                    0.0155                   301.47830951151406
0.0045                    0.0165                   301.75153347541817
0.0045                    0.0175                   301.64878605508636
0.0045                    0.0185                   299.9105666430183
0.0045                    0.0195                   296.46740981651766
0.0045                    0.0205                   295.28622635138544
0.0045                    0.0215                   295.0913405673895
0.0045                    0.0225                   293.6240658389405
0.0045                    0.0235                   293.1511444044404
0.0045                    0.0245                   293.15166034577834
0.0045                    0.0255                   293.20589154375386
0.0045                    0.0265                   293.3753032488584
0.0045                    0.0275                   293.47816068826444
0.0045                    0.0285                   293.8685546507405
0.0045                    0.0295                   293.8995824040579
0.0045                    0.0305                   293.79056219308063
0.0045                    0.0315                   293.7930186902825
0.0055                    -0.0315                  322.19873553331854
0.0055                    -0.0305                  322.200199187702
0.0055                    -0.0295                  322.20263537375183
0.0055                    -0.0285                  322.2061333831906
0.0055                    -0.0275                  322.2107512277516
0.0055                    -0.0265                  322.21666522103453
0.0055                    -0.0255                  322.2234655581518
0.0055                    -0.0245                  322.23117501427373
0.0055                    -0.0235                  322.2396421459278
0.0055                    -0.0225                  322.24886547141745
0.0055                    -0.0215                  322.2586514956716
0.0055                    -0.0205                  322.2687735871816
0.0055                    -0.0195                  322.27906998563645
0.0055                    -0.0185                  322.28948640627567
0.0055                    -0.0175                  322.29976179086793
0.0055                    -0.0165                  322.3095368021477
0.0055                    -0.0155                  322.31883141751536
0.0055                    -0.0145                  322.32734915769464
0.0055                    -0.0135                  322.33499989921654
0.0055                    -0.0125                  322.34175318001263
0.0055                    -0.0115                  322.3474512919211
0.0055                    -0.0105                  322.3524220713131
0.0055                    -0.0095                  322.3560042525873
0.0055                    -0.0085                  322.3583834973719
0.0055                    -0.0075                  322.35857180230187
0.0055                    -0.0065                  322.35636180807103
0.0055                    -0.0055                  322.35165626340864
0.0055                    -0.0045                  322.34114784834054
0.0055                    -0.0035                  319.53405923391426
0.0055                    -0.0025                  314.56218728538147
0.0055                    -0.0015                  310.1599650492095
0.0055                    -5.0E-4                  306.5568408998645
0.0055                    5.0E-4                   304.02462524563816
0.0055                    0.0015                   302.2276653060297
0.0055                    0.0025                   301.02491387851563
0.0055                    0.0035                   300.26319885105295
0.0055                    0.0045                   299.6545967567313
0.0055                    0.0055                   299.3473032097413
0.0055                    0.0065                   299.17064804107935
0.0055                    0.0075                   299.0671914974122
0.0055                    0.0085                   299.0471946211173
0.0055                    0.0095                   299.058822009515
0.0055                    0.0105                   299.1028723274179
0.0055                    0.0115                   299.18485390324565
0.0055                    0.0125                   299.34796562101536
0.0055                    0.0135                   299.5320432030446
0.0055                    0.0145                   299.82472852151426
0.0055                    0.0155                   300.15979164607614
0.0055                    0.0165                   300.4428315742803
0.0055                    0.0175                   300.6013940912332
0.0055                    0.0185                   298.3679567977832
0.0055                    0.0195                   295.7137432887512
0.0055                    0.0205                   295.06454843986455
0.0055                    0.0215                   295.1250452579964
0.0055                    0.0225                   293.5806634098098
0.0055                    0.0235                   293.1535545903939
0.0055                    0.0245                   293.15309673177626
0.0055                    0.0255                   293.22221173290325
0.0055                    0.0265                   293.3679014658541
0.0055                    0.0275                   293.4594248114293
0.0055                    0.0285                   293.7930344119305
0.0055                    0.0295                   293.761573567669
0.0055                    0.0305                   293.76767577021144
0.0055                    0.0315                   293.77171803655204
0.0065                    -0.0315                  322.16138477028403
0.0065                    -0.0305                  322.16295701012973
0.0065                    -0.0295                  322.16547852441687
0.0065                    -0.0285                  322.16931259341885
0.0065                    -0.0275                  322.174181106884
0.0065                    -0.0265                  322.1807139990407
0.0065                    -0.0255                  322.1882611601372
0.0065                    -0.0245                  322.1964263063529
0.0065                    -0.0235                  322.20563219501054
0.0065                    -0.0225                  322.2155599100325
0.0065                    -0.0215                  322.2261686582085
0.0065                    -0.0205                  322.23718071407353
0.0065                    -0.0195                  322.2485293071177
0.0065                    -0.0185                  322.25966619386696
0.0065                    -0.0175                  322.270926461672
0.0065                    -0.0165                  322.2817277157847
0.0065                    -0.0155                  322.29168418476854
0.0065                    -0.0145                  322.30104101047186
0.0065                    -0.0135                  322.3090601522813
0.0065                    -0.0125                  322.31611209889115
0.0065                    -0.0115                  322.32232336374983
0.0065                    -0.0105                  322.32742094521984
0.0065                    -0.0095                  322.33193685353353
0.0065                    -0.0085                  322.3353021265978
0.0065                    -0.0075                  322.3362265112461
0.0065                    -0.0065                  322.3305167318646
0.0065                    -0.0055                  320.2899861974106
0.0065                    -0.0045                  316.5289109721214
0.0065                    -0.0035                  311.67625857047494
0.0065                    -0.0025                  307.1914752329061
0.0065                    -0.0015                  304.1914334065841
0.0065                    -5.0E-4                  302.25366120725727
0.0065                    5.0E-4                   300.8533189986245
0.0065                    0.0015                   299.968766787084
0.0065                    0.0025                   299.3808571869117
0.0065                    0.0035                   299.02340452656495
0.0065                    0.0045                   298.8197620468231
0.0065                    0.0055                   298.7409833594078
0.0065                    0.0065                   298.70976385188385
0.0065                    0.0075                   298.70352901643537
0.0065                    0.0085                   298.7150314699589
0.0065                    0.0095                   298.7469595605592
0.0065                    0.0105                   298.78985225361697
0.0065                    0.0115                   298.8404142309756