% Model:              模型结构导入comsolBench.mph
% Version:            COMSOL 6.2.0.339
% Date:               May 28 2026, 17:37
% Dimension:          2
% Nodes:              4096
% Expressions:        1
% Description:        温度
% Length unit:        m
% x                       y                        T (K)
5.0E-4                    -0.0315                  303.27977928980914
5.0E-4                    -0.0305                  303.2725020568494
5.0E-4                    -0.0295                  303.26522482388964
5.0E-4                    -0.0285                  303.2507751068578
5.0E-4                    -0.0275                  303.23388167802045
5.0E-4                    -0.0265                  303.2142026963626
5.0E-4                    -0.0255                  303.1938608734863
5.0E-4                    -0.0245                  303.1748131718422
5.0E-4                    -0.0235                  303.1587456710195
5.0E-4                    -0.0225                  303.15011042324085
5.0E-4                    -0.0215                  302.9629808022528
5.0E-4                    -0.0205                  302.13534094428246
5.0E-4                    -0.0195                  301.22649545932984
5.0E-4                    -0.0185                  299.314142882178
5.0E-4                    -0.0175                  293.4819016350013
5.0E-4                    -0.0165                  293.1521583588126
5.0E-4                    -0.0155                  293.1510421898529
5.0E-4                    -0.0145                  293.38982516480326
5.0E-4                    -0.0135                  301.5149977860625
5.0E-4                    -0.0125                  304.29933456787967
5.0E-4                    -0.0115                  305.03342709224717
5.0E-4                    -0.0105                  305.6614917953562
5.0E-4                    -0.0095                  306.1429693820937
5.0E-4                    -0.0085                  306.70889391194584
5.0E-4                    -0.0075                  307.9389890890219
5.0E-4                    -0.0065                  308.6009577401637
5.0E-4                    -0.0055                  308.6048805511636
5.0E-4                    -0.0045                  308.612266660174
5.0E-4                    -0.0035                  308.6263624351481
5.0E-4                    -0.0025                  308.64969954671295
5.0E-4                    -0.0015                  308.68193120847417
5.0E-4                    -5.0E-4                  308.7239523235786
5.0E-4                    5.0E-4                   308.7798427188676
5.0E-4                    0.0015                   308.84754175016946
5.0E-4                    0.0025                   308.92827520556943
5.0E-4                    0.0035                   309.02607363685627
5.0E-4                    0.0045                   309.1291385517288
5.0E-4                    0.0055                   309.25218029708196
5.0E-4                    0.0065                   309.3770721441855
5.0E-4                    0.0075                   309.501963991289
5.0E-4                    0.0085                   309.63964878249163
5.0E-4                    0.0095                   309.77468441412657
5.0E-4                    0.0105                   309.90972004576145
5.0E-4                    0.0115                   310.0450016567637
5.0E-4                    0.0125                   310.17528153025876
5.0E-4                    0.0135                   310.2997965299363
5.0E-4                    0.0145                   310.42431152961393
5.0E-4                    0.0155                   310.5482482243744
5.0E-4                    0.0165                   310.6586810701485
5.0E-4                    0.0175                   310.7611291190454
5.0E-4                    0.0185                   310.86357716794237
5.0E-4                    0.0195                   310.9658604040136
5.0E-4                    0.0205                   311.0505635776721
5.0E-4                    0.0215                   311.1255280803614
5.0E-4                    0.0225                   311.20049258305073
5.0E-4                    0.0235                   311.2754570857401
5.0E-4                    0.0245                   311.3324988686325
5.0E-4                    0.0255                   311.37857025795313
5.0E-4                    0.0265                   311.42464164727386
5.0E-4                    0.0275                   311.47071303659453
5.0E-4                    0.0285                   311.4992833971244
5.0E-4                    0.0295                   311.5147940717344
5.0E-4                    0.0305                   311.5303047463445
5.0E-4                    0.0315                   311.54581542095457
0.0015                    -0.0315                  303.2800026914333
0.0015                    -0.0305                  303.27327247295705
0.0015                    -0.0295                  303.2647656845546
0.0015                    -0.0285                  303.2491006945055
0.0015                    -0.0275                  303.23207424567704
0.0015                    -0.0265                  303.2106988762893
0.0015                    -0.0255                  303.18791451326865
0.0015                    -0.0245                  303.1656807683172
0.0015                    -0.0235                  303.14703067044866
0.0015                    -0.0225                  303.13461679753385
0.0015                    -0.0215                  302.1871456957618
0.0015                    -0.0205                  300.0042002058006
0.0015                    -0.0195                  298.13445242924837
0.0015                    -0.0185                  297.4929333200079
0.0015                    -0.0175                  294.02720815456183
0.0015                    -0.0165                  293.1514553645567
0.0015                    -0.0155                  293.1461032080338
0.0015                    -0.0145                  293.49202076593303
0.0015                    -0.0135                  299.33706921854275
0.0015                    -0.0125                  301.3779495970764
0.0015                    -0.0115                  302.9247154537668
0.0015                    -0.0105                  304.7802959593635
0.0015                    -0.0095                  306.0168922216827
0.0015                    -0.0085                  306.8918455512404
0.0015                    -0.0075                  307.8924392630177
0.0015                    -0.0065                  308.5947983493323
0.0015                    -0.0055                  308.5959464685743
0.0015                    -0.0045                  308.6018430364554
0.0015                    -0.0035                  308.6160114988049
0.0015                    -0.0025                  308.63842748862135
0.0015                    -0.0015                  308.6687935212214
0.0015                    -5.0E-4                  308.711313491354
0.0015                    5.0E-4                   308.75764136616544
0.0015                    0.0015                   308.8302904300563
0.0015                    0.0025                   308.90814051622806
0.0015                    0.0035                   308.99982609341157
0.0015                    0.0045                   309.11503099787836
0.0015                    0.0055                   309.2350730039585
0.0015                    0.0065                   309.35961477130917
0.0015                    0.0075                   309.49273826402225
0.0015                    0.0085                   309.63218417527673
0.0015                    0.0095                   309.7684825369214
0.0015                    0.0105                   309.9035181685564
0.0015                    0.0115                   310.03990354893523
0.0015                    0.0125                   310.1765861096251
0.0015                    0.0135                   310.30170809445735
0.0015                    0.0145                   310.426223094135
0.0015                    0.0155                   310.5452650904735
0.0015                    0.0165                   310.6622592298031
0.0015                    0.0175                   310.7668857445279
0.0015                    0.0185                   310.86933379342486
0.0015                    0.0195                   310.9641521729084
0.0015                    0.0205                   311.0551430103401
0.0015                    0.0215                   311.1333164380427
0.0015                    0.0225                   311.208280940732
0.0015                    0.0235                   311.2749787173738
0.0015                    0.0245                   311.3375966652649
0.0015                    0.0255                   311.3866724829204
0.0015                    0.0265                   311.4327438722411
0.0015                    0.0275                   311.47282148055336
0.0015                    0.0285                   311.5039220270918
0.0015                    0.0295                   311.52229773920453
0.0015                    0.0305                   311.5378084138146
0.0015                    0.0315                   311.5500127821201
0.0025                    -0.0315                  303.2802101008549
0.0025                    -0.0305                  303.27352785898614
0.0025                    -0.0295                  303.2622804601334
0.0025                    -0.0285                  303.24546006181595
0.0025                    -0.0275                  303.2264063694151
0.0025                    -0.0265                  303.20312460005925
0.0025                    -0.0255                  303.17665304104827
0.0025                    -0.0245                  303.1491013251007
0.0025                    -0.0235                  303.1246712256569
0.0025                    -0.0225                  303.1054366880917
0.0025                    -0.0215                  301.3583522260551
0.0025                    -0.0205                  298.2649202588067
0.0025                    -0.0195                  296.97190760916305
0.0025                    -0.0185                  296.7564938479203
0.0025                    -0.0175                  294.76464979629435
0.0025                    -0.0165                  293.2700060122983
0.0025                    -0.0155                  293.1302518764321
0.0025                    -0.0145                  293.7004854113196
0.0025                    -0.0135                  297.4625493005161
0.0025                    -0.0125                  299.95006740220526
0.0025                    -0.0115                  301.0263179796581
0.0025                    -0.0105                  302.58927885847396
0.0025                    -0.0095                  304.10371451787694
0.0025                    -0.0085                  305.274515733305
0.0025                    -0.0075                  306.19579188847706
0.0025                    -0.0065                  307.7071722297985
0.0025                    -0.0055                  308.5740187582538
0.0025                    -0.0045                  308.5810959981006
0.0025                    -0.0035                  308.58788693976646
0.0025                    -0.0025                  308.6089533368049
0.0025                    -0.0015                  308.6382941795192
0.0025                    -5.0E-4                  308.67856280012506
0.0025                    5.0E-4                   308.7237416373653
0.0025                    0.0015                   308.79527694258525
0.0025                    0.0025                   308.88024356321375
0.0025                    0.0035                   308.9743283072491
0.0025                    0.0045                   309.09800446466386
0.0025                    0.0055                   309.22096545010817
0.0025                    0.0065                   309.3441718160257
0.0025                    0.0075                   309.4836177272803
0.0025                    0.0085                   309.62306363853486
0.0025                    0.0095                   309.7622806597162
0.0025                    0.0105                   309.89812288041696
0.0025                    0.0115                   310.0348054411068
0.0025                    0.0125                   310.1714880017966
0.0025                    0.0135                   310.3036196589784
0.0025                    0.0145                   310.425287817243
0.0025                    0.0155                   310.54228195657254
0.0025                    0.0165                   310.6592760959022
0.0025                    0.0175                   310.77264237001043
0.0025                    0.0185                   310.8714531043716
0.0025                    0.0195                   310.9624439418033
0.0025                    0.0205                   311.053434779235
0.0025                    0.0215                   311.141104795724
0.0025                    0.0225                   311.21155745057763
0.0025                    0.0235                   311.2741753984688
0.0025                    0.0245                   311.33679334635997
0.0025                    0.0255                   311.3947747078876
0.0025                    0.0265                   311.44084609720835
0.0025                    0.0275                   311.4725650617553
0.0025                    0.0285                   311.5036656082938
0.0025                    0.0295                   311.52980140667466
0.0025                    0.0305                   311.5422043149125
0.0025                    0.0315                   311.5541108733195
0.0035                    -0.0315                  303.27967694578047
0.0035                    -0.0305                  303.2718056169574
0.0035                    -0.0295                  303.26323091612744
0.0035                    -0.0285                  303.24417813768315
0.0035                    -0.0275                  303.21994237041037
0.0035                    -0.0265                  303.19225776422667
0.0035                    -0.0255                  303.1592127141553
0.0035                    -0.0245                  303.12541364189036
0.0035                    -0.0235                  303.09186955833195
0.0035                    -0.0225                  303.0613239760254
0.0035                    -0.0215                  300.82211871724303
0.0035                    -0.0205                  297.3504941240833
0.0035                    -0.0195                  296.28422095363675
0.0035                    -0.0185                  296.3379588030222
0.0035                    -0.0175                  294.9046440343505
0.0035                    -0.0165                  293.4653877703512
0.0035                    -0.0155                  293.1300816678691
0.0035                    -0.0145                  293.6374250441584
0.0035                    -0.0135                  296.1070763554526
0.0035                    -0.0125                  298.86683509950143
0.0035                    -0.0115                  299.7939938393469
0.0035                    -0.0105                  300.48054967593885
0.0035                    -0.0095                  300.9747190170005
0.0035                    -0.0085                  301.26570068287884
0.0035                    -0.0075                  301.4494778876573
0.0035                    -0.0065                  302.15264623782
0.0035                    -0.0055                  304.1500830001716
0.0035                    -0.0045                  306.4418886921816
0.0035                    -0.0035                  308.5223620116046
0.0035                    -0.0025                  308.5676570651211
0.0035                    -0.0015                  308.5988026078674
0.0035                    -5.0E-4                  308.63019798854987
0.0035                    5.0E-4                   308.6733745628818
0.0035                    0.0015                   308.7336298574195
0.0035                    0.0025                   308.81475453851175
0.0035                    0.0035                   308.91609507890416
0.0035                    0.0045                   309.03673923039065
0.0035                    0.0055                   309.1619442445492
0.0035                    0.0065                   309.3111639095363
0.0035                    0.0075                   309.45400955900703
0.0035                    0.0085                   309.5960296605781
0.0035                    0.0095                   309.7428576730174
0.0035                    0.0105                   309.8925287200955
0.0035                    0.0115                   310.0293111643801
0.0035                    0.0125                   310.16609360866465
0.0035                    0.0135                   310.30290146882123
0.0035                    0.0145                   310.424463349721
0.0035                    0.0155                   310.54163131490213
0.0035                    0.0165                   310.6587992800833
0.0035                    0.0175                   310.77596724526444
0.0035                    0.0185                   310.8734497593958
0.0035                    0.0195                   310.96474873731825
0.0035                    0.0205                   311.0560477152407
0.0035                    0.0215                   311.1469605669073
0.0035                    0.0225                   311.2141379560706
0.0035                    0.0235                   311.274887567334
0.0035                    0.0245                   311.335990027455
0.0035                    0.0255                   311.3986079753461
0.0035                    0.0265                   311.4412080964187
0.0035                    0.0275                   311.47515153561517
0.0035                    0.0285                   311.50967486354864
0.0035                    0.0295                   311.5377595962898
0.0035                    0.0305                   311.5467717590623
0.0035                    0.0315                   311.5582089645189
0.0045                    -0.0315                  303.2836244294853
0.0045                    -0.0305                  303.27031575033385
0.0045                    -0.0295                  303.2620377686426
0.0045                    -0.0285                  303.24440189549557
0.0045                    -0.0275                  303.2132340814758
0.0045                    -0.0265                  303.18151280869165
0.0045                    -0.0255                  303.1414957775871
0.0045                    -0.0245                  303.09727333537467
0.0045                    -0.0235                  303.05007207644314
0.0045                    -0.0225                  302.99987760168096
0.0045                    -0.0215                  301.23976786342257
0.0045                    -0.0205                  297.53692272052893
0.0045                    -0.0195                  296.0518822012971
0.0045                    -0.0185                  296.0806508293021
0.0045                    -0.0175                  295.0914469120979
0.0045                    -0.0165                  293.7173325766754
0.0045                    -0.0155                  293.1837366676886
0.0045                    -0.0145                  293.492703726761
0.0045                    -0.0135                  295.22884781479127
0.0045                    -0.0125                  297.66253706793464
0.0045                    -0.0115                  298.9954168542804
0.0045                    -0.0105                  299.1654322149362
0.0045                    -0.0095                  299.2130849973227
0.0045                    -0.0085                  298.97550573993175
0.0045                    -0.0075                  298.9127611293899
0.0045                    -0.0065                  298.8376749730641
0.0045                    -0.0055                  299.0465279868411
0.0045                    -0.0045                  300.0099776837079
0.0045                    -0.0035                  302.28044838440303
0.0045                    -0.0025                  305.53002727708775
0.0045                    -0.0015                  308.5399927238052
0.0045                    -5.0E-4                  308.5691821536511
0.0045                    5.0E-4                   308.58933585021407
0.0045                    0.0015                   308.64572481028
0.0045                    0.0025                   308.730215808976
0.0045                    0.0035                   308.8537881517121
0.0045                    0.0045                   308.97575081438123
0.0045                    0.0055                   309.1249704793684
0.0045                    0.0065                   309.27419014435554
0.0045                    0.0075                   309.41936166131137
0.0045                    0.0085                   309.56138176288243
0.0045                    0.0095                   309.7252428380141
0.0045                    0.0105                   309.88643881491436
0.0045                    0.0115                   310.0232212591989
0.0045                    0.0125                   310.1600037034834
0.0045                    0.0135                   310.29748609677125
0.0045                    0.0145                   310.4320893520767
0.0045                    0.0155                   310.5492573172578
0.0045                    0.0165                   310.66642528243904
0.0045                    0.0175                   310.77821970794525
0.0045                    0.0185                   310.8852551437719
0.0045                    0.0195                   310.97655412169433
0.0045                    0.0205                   311.06785309961674
0.0045                    0.0215                   311.15262701108907
0.0045                    0.0225                   311.2275152954352
0.0045                    0.0235                   311.2882649066986
0.0045                    0.0245                   311.34901451796196
0.0045                    0.0255                   311.4102020741102
0.0045                    0.0265                   311.4534310744326
0.0045                    0.0275                   311.4882574849727
0.0045                    0.0285                   311.52278081290615
0.0045                    0.0295                   311.54745866289886
0.0045                    0.0305                   311.55647082567145
0.0045                    0.0315                   311.56548298844393
0.0055                    -0.0315                  303.2897348733135
0.0055                    -0.0305                  303.276426194162
0.0055                    -0.0295                  303.26311751501055
0.0055                    -0.0285                  303.23841679318633
0.0055                    -0.0275                  303.207088902837
0.0055                    -0.0265                  303.1724012590015
0.0055                    -0.0255                  303.1211782616425
0.0055                    -0.0245                  303.07063473396056
0.0055                    -0.0235                  303.00567971832066
0.0055                    -0.0225                  302.9333026606543
0.0055                    -0.0215                  302.844150662173
0.0055                    -0.0205                  299.09356919983077
0.0055                    -0.0195                  296.05354183055783
0.0055                    -0.0185                  295.7769730927055
0.0055                    -0.0175                  295.2802964710764
0.0055                    -0.0165                  293.8786149716061
0.0055                    -0.0155                  293.25930274389054
0.0055                    -0.0145                  293.3517983162405
0.0055                    -0.0135                  294.63401791654564
0.0055                    -0.0125                  296.4991757276491
0.0055                    -0.0115                  298.7413925311964
0.0055                    -0.0105                  298.70736086392174
0.0055                    -0.0095                  298.48818305178514
0.0055                    -0.0085                  298.2583474887257
0.0055                    -0.0075                  298.0643787049778
0.0055                    -0.0065                  297.9390478648616
0.0055                    -0.0055                  297.9810997567461
0.0055                    -0.0045                  297.9037277534485
0.0055                    -0.0035                  298.3372029648444
0.0055                    -0.0025                  299.7006939217666
0.0055                    -0.0015                  303.48624695659066
0.0055                    -5.0E-4                  306.7675731648984
0.0055                    5.0E-4                   308.4636755788168
0.0055                    0.0015                   308.51894834295535
0.0055                    0.0025                   308.6156849633306
0.0055                    0.0035                   308.7438204475012
0.0055                    0.0045                   308.90019115231473
0.0055                    0.0055                   309.07062363119655
0.0055                    0.0065                   309.23721637917475
0.0055                    0.0075                   309.38471376361565
0.0055                    0.0085                   309.5434592061827
0.0055                    0.0095                   309.7076280030107
0.0055                    0.0105                   309.8717967998386
0.0055                    0.0115                   310.01713135401775
0.0055                    0.0125                   310.1541983590562
0.0055                    0.0135                   310.2920707247213
0.0055                    0.0145                   310.4299430903866
0.0055                    0.0155                   310.5568833196135
0.0055                    0.0165                   310.67279915354965
0.0055                    0.0175                   310.77999757270436
0.0055                    0.0185                   310.88719599185913
0.0055                    0.0195                   310.9883595060704
0.0055                    0.0205                   311.0766763958593
0.0055                    0.0215                   311.1582934552708
0.0055                    0.0225                   311.2399105146823
0.0055                    0.0235                   311.30164224606307
0.0055                    0.0245                   311.3630000005606
0.0055                    0.0255                   311.4244594319525
0.0055                    0.0265                   311.46544066041935
0.0055                    0.0275                   311.5008638549544
0.0055                    0.0285                   311.53588676226366
0.0055                    0.0295                   311.5571577295081
0.0055                    0.0305                   311.56842611830035
0.0055                    0.0315                   311.58159690945735
0.0065                    -0.0315                  303.29584531714164
0.0065                    -0.0305                  303.2829407023293
0.0065                    -0.0295                  303.2706316969018
0.0065                    -0.0285                  303.2439521122667
0.0065                    -0.0275                  303.2007282964633
0.0065                    -0.0265                  303.16922063018785
0.0065                    -0.0255                  303.11508186831065
0.0065                    -0.0245                  303.04559815240833
0.0065                    -0.0235                  302.9657428234142
0.0065                    -0.0225                  302.8733018129239
0.0065                    -0.0215                  302.76717784916053
0.0065                    -0.0205                  301.4059965841232
0.0065                    -0.0195                  298.01681243923554
0.0065                    -0.0185                  295.6477692978383
0.0065                    -0.0175                  295.322805717106
0.0065                    -0.0165                  294.0740486462239
0.0065                    -0.0155                  293.3277921549553
0.0065                    -0.0145                  293.2946066321907
0.0065                    -0.0135                  294.13342730020753
0.0065                    -0.0125                  295.59669870699724
0.0065                    -0.0115                  297.76053459730576
0.0065                    -0.0105                  298.4668969998239
0.0065                    -0.0095                  298.30171129773976
0.0065                    -0.0085                  298.0804619042964
0.0065                    -0.0075                  297.924744532873
0.0065                    -0.0065                  297.8401286010775
0.0065                    -0.0055                  297.80333709752955
0.0065                    -0.0045                  297.65288786261453
0.0065                    -0.0035                  297.65710130965294
0.0065                    -0.0025                  297.8670200199813
0.0065                    -0.0015                  299.5254778281087
0.0065                    -5.0E-4                  304.5447150391343
0.0065                    5.0E-4                   308.2433404704662
0.0065                    0.0015                   308.34235385759894
0.0065                    0.0025                   308.4784338713519
0.0065                    0.0035                   308.63951962074094
0.0065                    0.0045                   308.811107150677
0.0065                    0.0055                   308.9818337429134
0.0065                    0.0065                   309.1584920722813
0.0065                    0.0075                   309.3528629652666
0.0065                    0.0085                   309.5243871987188
0.0065                    0.0095                   309.689683084251
0.0065                    0.0105                   309.8541819648353
0.0065                    0.0115                   310.0110414488365