% Model:              模型结构导入comsolBench.mph
% Version:            COMSOL 6.2.0.339
% Date:               May 29 2026, 11:31
% Dimension:          2
% Nodes:              4096
% Expressions:        1
% Description:        温度
% Length unit:        m
% x                       y                        T (K)
5.0E-4                    -0.0315                  297.339943580465
5.0E-4                    -0.0305                  297.33096397280417
5.0E-4                    -0.0295                  297.31489772110035
5.0E-4                    -0.0285                  297.28759160477637
5.0E-4                    -0.0275                  297.2511101060002
5.0E-4                    -0.0265                  297.2060530896209
5.0E-4                    -0.0255                  297.15943890493037
5.0E-4                    -0.0245                  294.39533952756364
5.0E-4                    -0.0235                  293.16364169580976
5.0E-4                    -0.0225                  293.26337034329345
5.0E-4                    -0.0215                  293.6709301518194
5.0E-4                    -0.0205                  293.7422628895027
5.0E-4                    -0.0195                  293.7384314272334
5.0E-4                    -0.0185                  293.7234191972538
5.0E-4                    -0.0175                  293.70260075746194
5.0E-4                    -0.0165                  293.2761455240237
5.0E-4                    -0.0155                  293.1556872891765
5.0E-4                    -0.0145                  293.15338809767417
5.0E-4                    -0.0135                  293.1528118655926
5.0E-4                    -0.0125                  293.15258646866107
5.0E-4                    -0.0115                  293.15248692167677
5.0E-4                    -0.0105                  293.15251241435703
5.0E-4                    -0.0095                  293.1528957346337
5.0E-4                    -0.0085                  293.18429195857783
5.0E-4                    -0.0075                  295.24341029614754
5.0E-4                    -0.0065                  296.02721166404643
5.0E-4                    -0.0055                  295.9782449275798
5.0E-4                    -0.0045                  295.8953234381961
5.0E-4                    -0.0035                  295.8107573602654
5.0E-4                    -0.0025                  295.7469110792773
5.0E-4                    -0.0015                  295.69205382762937
5.0E-4                    -5.0E-4                  295.6552655235946
5.0E-4                    5.0E-4                   295.62186369757865
5.0E-4                    0.0015                   295.6037151859996
5.0E-4                    0.0025                   295.5854880489009
5.0E-4                    0.0035                   295.5782011296417
5.0E-4                    0.0045                   295.56965426275895
5.0E-4                    0.0055                   295.582916287093
5.0E-4                    0.0065                   295.61647658416274
5.0E-4                    0.0075                   295.6674227341085
5.0E-4                    0.0085                   295.7226067045013
5.0E-4                    0.0095                   295.7651559739875
5.0E-4                    0.0105                   295.7954906772104
5.0E-4                    0.0115                   295.82069852185475
5.0E-4                    0.0125                   295.8151841589524
5.0E-4                    0.0135                   295.80326399789647
5.0E-4                    0.0145                   296.0239476446446
5.0E-4                    0.0155                   296.5926465311837
5.0E-4                    0.0165                   297.29499105776586
5.0E-4                    0.0175                   297.7337355817652
5.0E-4                    0.0185                   297.7532849342918
5.0E-4                    0.0195                   297.78640368106693
5.0E-4                    0.0205                   297.82794120231847
5.0E-4                    0.0215                   297.8740261733716
5.0E-4                    0.0225                   297.92003264250593
5.0E-4                    0.0235                   297.963064874706
5.0E-4                    0.0245                   298.00467154344454
5.0E-4                    0.0255                   298.03950567389825
5.0E-4                    0.0265                   298.06869978134887
5.0E-4                    0.0275                   298.09789388879943
5.0E-4                    0.0285                   298.1188625009721
5.0E-4                    0.0295                   298.12969439829544
5.0E-4                    0.0305                   298.14052629561866
5.0E-4                    0.0315                   298.15128155416136
0.0015                    -0.0315                  297.3439774208947
0.0015                    -0.0305                  297.33599497628995
0.0015                    -0.0295                  297.31766932438285
0.0015                    -0.0285                  297.29196584007525
0.0015                    -0.0275                  297.2538527927153
0.0015                    -0.0265                  297.20450751688145
0.0015                    -0.0255                  297.1395632956385
0.0015                    -0.0245                  293.5346364719014
0.0015                    -0.0235                  293.1866084199048
0.0015                    -0.0225                  293.47988965095396
0.0015                    -0.0215                  293.75440928925116
0.0015                    -0.0205                  293.75394796921466
0.0015                    -0.0195                  293.7490160682646
0.0015                    -0.0185                  293.74023670141776
0.0015                    -0.0175                  293.7305748515203
0.0015                    -0.0165                  293.3660162859223
0.0015                    -0.0155                  293.16802983797595
0.0015                    -0.0145                  293.16050925994324
0.0015                    -0.0135                  293.1586608983505
0.0015                    -0.0125                  293.1578180356453
0.0015                    -0.0115                  293.1574233387871
0.0015                    -0.0105                  293.1573625381345
0.0015                    -0.0095                  293.1572835833584
0.0015                    -0.0085                  293.1832157586636
0.0015                    -0.0075                  294.4102226415303
0.0015                    -0.0065                  295.63514530007745
0.0015                    -0.0055                  295.6534921351698
0.0015                    -0.0045                  295.6065237606167
0.0015                    -0.0035                  295.53578216806187
0.0015                    -0.0025                  295.44954822425245
0.0015                    -0.0015                  295.40124957939946
0.0015                    -5.0E-4                  295.32866236000643
0.0015                    5.0E-4                   295.2893170860336
0.0015                    0.0015                   295.19587112091045
0.0015                    0.0025                   295.14623928337755
0.0015                    0.0035                   295.02096819946127
0.0015                    0.0045                   294.9817003517177
0.0015                    0.0055                   294.8729954874715
0.0015                    0.0065                   294.89483578864855
0.0015                    0.0075                   294.8655740246631
0.0015                    0.0085                   294.92961507217444
0.0015                    0.0095                   294.90096863204144
0.0015                    0.0105                   294.9224540125331
0.0015                    0.0115                   294.93771344598014
0.0015                    0.0125                   294.8829116072999
0.0015                    0.0135                   294.75043671416694
0.0015                    0.0145                   294.7207824764075
0.0015                    0.0155                   295.0700092168885
0.0015                    0.0165                   296.5624122411188
0.0015                    0.0175                   297.7068858597315
0.0015                    0.0185                   297.7345575635705
0.0015                    0.0195                   297.7725828937275
0.0015                    0.0205                   297.82071814455753
0.0015                    0.0215                   297.86983271088417
0.0015                    0.0225                   297.91685336864566
0.0015                    0.0235                   297.96311176776777
0.0015                    0.0245                   298.0019492332974
0.0015                    0.0255                   298.03971236480965
0.0015                    0.0265                   298.0712180015952
0.0015                    0.0275                   298.09628571025365
0.0015                    0.0285                   298.1195697875663
0.0015                    0.0295                   298.13229363235035
0.0015                    0.0305                   298.1428956133317
0.0015                    0.0315                   298.1504708559964
0.0025                    -0.0315                  297.34951228576034
0.0025                    -0.0305                  297.3440608119814
0.0025                    -0.0295                  297.3271815351969
0.0025                    -0.0285                  297.3026268730472
0.0025                    -0.0275                  297.265940247555
0.0025                    -0.0265                  297.2137079390869
0.0025                    -0.0255                  297.11644483798324
0.0025                    -0.0245                  293.75698126679896
0.0025                    -0.0235                  293.25657824334144
0.0025                    -0.0225                  293.55829251608185
0.0025                    -0.0215                  293.76496140102995
0.0025                    -0.0205                  293.7643353704704
0.0025                    -0.0195                  293.75971471477965
0.0025                    -0.0185                  293.7531506949956
0.0025                    -0.0175                  293.74644722666886
0.0025                    -0.0165                  293.41781534406067
0.0025                    -0.0155                  293.1859743458816
0.0025                    -0.0145                  293.16818089248574
0.0025                    -0.0135                  293.16486419591746
0.0025                    -0.0125                  293.1632239709808
0.0025                    -0.0115                  293.16255515955527
0.0025                    -0.0105                  293.1623524210152
0.0025                    -0.0095                  293.16217601339395
0.0025                    -0.0085                  293.1613334889654
0.0025                    -0.0075                  293.80185769931836
0.0025                    -0.0065                  295.2211663572588
0.0025                    -0.0055                  295.43576708979606
0.0025                    -0.0045                  295.40081726749656
0.0025                    -0.0035                  295.3146580251571
0.0025                    -0.0025                  295.2398624314938
0.0025                    -0.0015                  295.16805247467175
0.0025                    -5.0E-4                  295.1083813421785
0.0025                    5.0E-4                   295.0281011213643
0.0025                    0.0015                   294.9574705678998
0.0025                    0.0025                   294.8608022278815
0.0025                    0.0035                   294.7818019667398
0.0025                    0.0045                   294.6231313265316
0.0025                    0.0055                   294.5624024199198
0.0025                    0.0065                   294.44316211587704
0.0025                    0.0075                   294.393702558053
0.0025                    0.0085                   294.3971200503485
0.0025                    0.0095                   294.404678632091
0.0025                    0.0105                   294.4013003670974
0.0025                    0.0115                   294.4304227019709
0.0025                    0.0125                   294.4582632984975
0.0025                    0.0135                   294.4610025410148
0.0025                    0.0145                   294.3963621475607
0.0025                    0.0155                   294.6053453095789
0.0025                    0.0165                   296.1003308186278
0.0025                    0.0175                   297.65337683645544
0.0025                    0.0185                   297.6951010240808
0.0025                    0.0195                   297.7488371120926
0.0025                    0.0205                   297.805724445922
0.0025                    0.0215                   297.86057248030284
0.0025                    0.0225                   297.9108350417877
0.0025                    0.0235                   297.95975071015084
0.0025                    0.0245                   298.0011569269419
0.0025                    0.0255                   298.0383539064018
0.0025                    0.0265                   298.0717827275173
0.0025                    0.0275                   298.0941873355525
0.0025                    0.0285                   298.11717070958673
0.0025                    0.0295                   298.13450967250213
0.0025                    0.0305                   298.1420849151667
0.0025                    0.0315                   298.14966015783136
0.0035                    -0.0315                  297.3607034932975
0.0035                    -0.0305                  297.3534355773615
0.0035                    -0.0295                  297.3384841763052
0.0035                    -0.0285                  297.31780555513734
0.0035                    -0.0275                  297.28579334138743
0.0035                    -0.0265                  297.24668863388007
0.0035                    -0.0255                  295.91534818240194
0.0035                    -0.0245                  293.5343027857184
0.0035                    -0.0235                  293.2970158410724
0.0035                    -0.0225                  293.60354029603656
0.0035                    -0.0215                  293.7744802022953
0.0035                    -0.0205                  293.77291987732843
0.0035                    -0.0195                  293.7682802044457
0.0035                    -0.0185                  293.76123412631057
0.0035                    -0.0175                  293.75355063952225
0.0035                    -0.0165                  293.50565114788174
0.0035                    -0.0155                  293.23500246237455
0.0035                    -0.0145                  293.17938466776843
0.0035                    -0.0135                  293.1715632597521
0.0035                    -0.0125                  293.1690750039014
0.0035                    -0.0115                  293.16793078383114
0.0035                    -0.0105                  293.16761399323167
0.0035                    -0.0095                  293.1675945575958
0.0035                    -0.0085                  293.1597142559027
0.0035                    -0.0075                  293.3890106835401
0.0035                    -0.0065                  294.4447272500226
0.0035                    -0.0055                  295.0730677637565
0.0035                    -0.0045                  295.1553312400613
0.0035                    -0.0035                  295.13735167144085
0.0035                    -0.0025                  295.07988588819455
0.0035                    -0.0015                  295.0418190360421
0.0035                    -5.0E-4                  294.93161016048356
0.0035                    5.0E-4                   294.8246174800518
0.0035                    0.0015                   294.71382565437085
0.0035                    0.0025                   294.6165610899266
0.0035                    0.0035                   294.42876727285517
0.0035                    0.0045                   294.3123082883971
0.0035                    0.0055                   294.200820538356
0.0035                    0.0065                   294.12203209473284
0.0035                    0.0075                   294.08480205789766
0.0035                    0.0085                   294.0524163562431
0.0035                    0.0095                   294.0353411391255
0.0035                    0.0105                   294.05446626685995
0.0035                    0.0115                   294.10821911996396
0.0035                    0.0125                   294.15783608267213
0.0035                    0.0135                   294.2283400149269
0.0035                    0.0145                   294.2589674101554
0.0035                    0.0155                   294.37672709406877
0.0035                    0.0165                   295.8726054892833
0.0035                    0.0175                   297.5610426051348
0.0035                    0.0185                   297.6448089902438
0.0035                    0.0195                   297.7181992137561
0.0035                    0.0205                   297.7868069987072
0.0035                    0.0215                   297.8487092792107
0.0035                    0.0225                   297.9054861844523
0.0035                    0.0235                   297.9560990368642
0.0035                    0.0245                   298.0018146331071
0.0035                    0.0255                   298.03783781924693
0.0035                    0.0265                   298.072176885013
0.0035                    0.0275                   298.09683192015103
0.0035                    0.0285                   298.1182605469579
0.0035                    0.0295                   298.13567390518915
0.0035                    0.0305                   298.14216901940364
0.0035                    0.0315                   298.1488494596664
0.0045                    -0.0315                  297.3726167185246
0.0045                    -0.0305                  297.3660436924798
0.0045                    -0.0295                  297.3549753112567
0.0045                    -0.0285                  297.33538724836865
0.0045                    -0.0275                  297.31103727729925
0.0045                    -0.0265                  297.2779082048622
0.0045                    -0.0255                  295.32937582274747
0.0045                    -0.0245                  293.5410803098276
0.0045                    -0.0235                  293.3347069276146
0.0045                    -0.0225                  293.63523933037516
0.0045                    -0.0215                  293.78180594150876
0.0045                    -0.0205                  293.77937140363565
0.0045                    -0.0195                  293.77396935752114
0.0045                    -0.0185                  293.7658664038488
0.0045                    -0.0175                  293.75422381686997
0.0045                    -0.0165                  293.7350333353684
0.0045                    -0.0155                  293.34809065034034
0.0045                    -0.0145                  293.18947235632055
0.0045                    -0.0135                  293.17967640224504
0.0045                    -0.0125                  293.1755603892567
0.0045                    -0.0115                  293.17372872532655
0.0045                    -0.0105                  293.1732432493831
0.0045                    -0.0095                  293.17121226622766
0.0045                    -0.0085                  293.17216291592376
0.0045                    -0.0075                  293.29132201811046
0.0045                    -0.0065                  293.7454222967386
0.0045                    -0.0055                  294.30226744544325
0.0045                    -0.0045                  294.6316881616251
0.0045                    -0.0035                  294.77968035280315
0.0045                    -0.0025                  294.7838988431757
0.0045                    -0.0015                  294.68720285800015
0.0045                    -5.0E-4                  294.59195960749594
0.0045                    5.0E-4                   294.444996767073
0.0045                    0.0015                   294.27581965851397
0.0045                    0.0025                   294.1028197563718
0.0045                    0.0035                   293.9556873210373
0.0045                    0.0045                   293.9076667298228
0.0045                    0.0055                   293.8039838509943
0.0045                    0.0065                   293.8104965966078
0.0045                    0.0075                   293.7773187209804
0.0045                    0.0085                   293.7807343140247
0.0045                    0.0095                   293.8152809266142
0.0045                    0.0105                   293.8390585772356
0.0045                    0.0115                   293.8567992987348
0.0045                    0.0125                   293.90593898059086
0.0045                    0.0135                   293.9531802044976
0.0045                    0.0145                   294.0244140657726
0.0045                    0.0155                   294.13072077159825
0.0045                    0.0165                   295.3865197383659
0.0045                    0.0175                   297.4636369103367
0.0045                    0.0185                   297.59405826256966
0.0045                    0.0195                   297.68459418462163
0.0045                    0.0205                   297.76786628666486
0.0045                    0.0215                   297.83895953495926
0.0045                    0.0225                   297.9035378142205
0.0045                    0.0235                   297.9534693772389
0.0045                    0.0245                   298.00272667627604
0.0045                    0.0255                   298.0367387149423
0.0045                    0.0265                   298.0706452589616
0.0045                    0.0275                   298.09784071212533
0.0045                    0.0285                   298.11661448893574
0.0045                    0.0295                   298.1353882657462
0.0045                    0.0305                   298.14441047927966
0.0045                    0.0315                   298.15011904087174
0.0055                    -0.0315                  297.38690852365266
0.0055                    -0.0305                  297.38025596846074
0.0055                    -0.0295                  297.37153959390383
0.0055                    -0.0285                  297.3560100640642
0.0055                    -0.0275                  297.3371933096135
0.0055                    -0.0265                  297.3131428580217
0.0055                    -0.0255                  295.3648357864381
0.0055                    -0.0245                  293.52391657481115
0.0055                    -0.0235                  293.3631437583717
0.0055                    -0.0225                  293.6589081540469
0.0055                    -0.0215                  293.78654379724225
0.0055                    -0.0205                  293.78349112844904
0.0055                    -0.0195                  293.7774474096595
0.0055                    -0.0185                  293.76830155185985
0.0055                    -0.0175                  293.7559684627542
0.0055                    -0.0165                  293.7396101765676
0.0055                    -0.0155                  293.39666002483625
0.0055                    -0.0145                  293.2150644239864
0.0055                    -0.0135                  293.18829808630403
0.0055                    -0.0125                  293.18281966193024
0.0055                    -0.0115                  293.1803871080928
0.0055                    -0.0105                  293.17936236692503
0.0055                    -0.0095                  293.17769590878567
0.0055                    -0.0085                  293.17705415191904
0.0055                    -0.0075                  293.2073697605292
0.0055                    -0.0065                  293.4095542862647
0.0055                    -0.0055                  293.7758964913478
0.0055                    -0.0045                  293.9970449927997
0.0055                    -0.0035                  294.17767484856364
0.0055                    -0.0025                  294.14299333394354
0.0055                    -0.0015                  294.07451418168677
0.0055                    -5.0E-4                  293.9360389483151
0.0055                    5.0E-4                   293.7603216379902
0.0055                    0.0015                   293.5953524792549
0.0055                    0.0025                   293.5716145509609
0.0055                    0.0035                   293.52945338465486
0.0055                    0.0045                   293.55236260235665
0.0055                    0.0055                   293.5696405029443
0.0055                    0.0065                   293.5981360758606
0.0055                    0.0075                   293.62305406372803
0.0055                    0.0085                   293.6698065216261
0.0055                    0.0095                   293.67080440781234
0.0055                    0.0105                   293.6849036158838
0.0055                    0.0115                   293.7141353679718
0.0055                    0.0125                   293.74721958548025
0.0055                    0.0135                   293.7992083007589
0.0055                    0.0145                   293.84682424626953
0.0055                    0.0155                   293.90758484384577
0.0055                    0.0165                   294.0312912136457
0.0055                    0.0175                   296.0109195044544
0.0055                    0.0185                   297.55151698748693
0.0055                    0.0195                   297.6558205759417
0.0055                    0.0205                   297.75445714431737
0.0055                    0.0215                   297.8341268653752
0.0055                    0.0225                   297.9019700537869
0.0055                    0.0235                   297.9543153914232
0.0055                    0.0245                   298.0029092741466
0.0055                    0.0255                   298.0409900116082
0.0055                    0.0265                   298.07347909977585
0.0055                    0.0275                   298.10031716541255
0.0055                    0.0285                   298.11787000047707
0.0055                    0.0295                   298.1354228355416
0.0055                    0.0305                   298.14534075754153
0.0055                    0.0315                   298.1503621491801
0.0065                    -0.0315                  297.39998639630176
0.0065                    -0.0305                  297.3962604348153
0.0065                    -0.0295                  297.3866070756875
0.0065                    -0.0285                  297.37597448561337
0.0065                    -0.0275                  297.3613464859982
0.0065                    -0.0265                  297.34613215101103
0.0065                    -0.0255                  295.4161603551968
0.0065                    -0.0245                  293.5603437150226
0.0065                    -0.0235                  293.3886835574325
0.0065                    -0.0225                  293.67776996169437
0.0065                    -0.0215                  293.78910878973625
0.0065                    -0.0205                  293.7855541339528
0.0065                    -0.0195                  293.7787836402453
0.0065                    -0.0185                  293.7695045580774
0.0065                    -0.0175                  293.7554359939809
0.0065                    -0.0165                  293.5660352032571
0.0065                    -0.0155                  293.32720425605936
0.0065                    -0.0145                  293.21671750300163
0.0065                    -0.0135                  293.19850068923074
0.0065                    -0.0125                  293.1925588235922
0.0065                    -0.0115                  293.18809322389563
0.0065                    -0.0105                  293.1863037651344
0.0065                    -0.0095                  293.1848453773225
0.0065                    -0.0085                  293.18433868966974
0.0065                    -0.0075                  293.20336308388187
0.0065                    -0.0065                  293.2319286556091
0.0065                    -0.0055                  293.39905695163475
0.0065                    -0.0045                  293.5137769547325
0.0065                    -0.0035                  293.65200180338746
0.0065                    -0.0025                  293.59848300315326
0.0065                    -0.0015                  293.53277250161
0.0065                    -5.0E-4                  293.43153672426286
0.0065                    5.0E-4                   293.4192737908279
0.0065                    0.0015                   293.4338664109894
0.0065                    0.0025                   293.4394800001212
0.0065                    0.0035                   293.4784053843711
0.0065                    0.0045                   293.5059295751776
0.0065                    0.0055                   293.53725699298036
0.0065                    0.0065                   293.55604501220523
0.0065                    0.0075                   293.58076155831685
0.0065                    0.0085                   293.59866575211396
0.0065                    0.0095                   293.63209279093854
0.0065                    0.0105                   293.6601742547432