% Model:              模型结构导入comsolBench.mph
% Version:            COMSOL 6.2.0.339
% Date:               May 29 2026, 11:19
% Dimension:          2
% Nodes:              4096
% Expressions:        1
% Description:        温度
% Length unit:        m
% x                       y                        T (K)
5.0E-4                    -0.0315                  304.55196281403755
5.0E-4                    -0.0305                  304.5500012349844
5.0E-4                    -0.0295                  304.5480396559311
5.0E-4                    -0.0285                  304.54591259550045
5.0E-4                    -0.0275                  304.54274016105114
5.0E-4                    -0.0265                  304.5392840144068
5.0E-4                    -0.0255                  304.5350242590342
5.0E-4                    -0.0245                  304.53043462419834
5.0E-4                    -0.0235                  304.52581216689464
5.0E-4                    -0.0225                  304.52225853614317
5.0E-4                    -0.0215                  304.0592132263214
5.0E-4                    -0.0205                  302.44972347856077
5.0E-4                    -0.0195                  293.6286185605398
5.0E-4                    -0.0185                  293.1594196879315
5.0E-4                    -0.0175                  293.15541996018226
5.0E-4                    -0.0165                  293.15461097905546
5.0E-4                    -0.0155                  293.15435417177923
5.0E-4                    -0.0145                  293.1545483874371
5.0E-4                    -0.0135                  293.15593472068446
5.0E-4                    -0.0125                  293.2986117626083
5.0E-4                    -0.0115                  299.9395111070898
5.0E-4                    -0.0105                  301.3592602276699
5.0E-4                    -0.0095                  301.3009900439531
5.0E-4                    -0.0085                  301.2036236949689
5.0E-4                    -0.0075                  301.0927071714917
5.0E-4                    -0.0065                  300.99148926262194
5.0E-4                    -0.0055                  300.90517507629204
5.0E-4                    -0.0045                  300.8428412979444
5.0E-4                    -0.0035                  300.77622194693265
5.0E-4                    -0.0025                  300.7169644730801
5.0E-4                    -0.0015                  300.69095363068874
5.0E-4                    -5.0E-4                  300.6601702371896
5.0E-4                    5.0E-4                   300.62767406809667
5.0E-4                    0.0015                   300.62966134960664
5.0E-4                    0.0025                   300.6431142136696
5.0E-4                    0.0035                   300.68051131081046
5.0E-4                    0.0045                   300.7752848114246
5.0E-4                    0.0055                   300.89565902603067
5.0E-4                    0.0065                   301.03675573825325
5.0E-4                    0.0075                   301.21501755091623
5.0E-4                    0.0085                   301.3811394791858
5.0E-4                    0.0095                   301.5712279017682
5.0E-4                    0.0105                   302.00621572915463
5.0E-4                    0.0115                   303.1223832839184
5.0E-4                    0.0125                   305.10257682647125
5.0E-4                    0.0135                   307.4095280933565
5.0E-4                    0.0145                   308.6423716220741
5.0E-4                    0.0155                   308.66753386967105
5.0E-4                    0.0165                   308.70499619407764
5.0E-4                    0.0175                   308.75073370440725
5.0E-4                    0.0185                   308.8005278480164
5.0E-4                    0.0195                   308.85175484100097
5.0E-4                    0.0205                   308.901301168359
5.0E-4                    0.0215                   308.94998469873826
5.0E-4                    0.0225                   308.99237059422285
5.0E-4                    0.0235                   309.0343823294244
5.0E-4                    0.0245                   309.07172696200814
5.0E-4                    0.0255                   309.10004616584615
5.0E-4                    0.0265                   309.1283653696842
5.0E-4                    0.0275                   309.1566845735223
5.0E-4                    0.0285                   309.1723559375738
5.0E-4                    0.0295                   309.18229999355106
5.0E-4                    0.0305                   309.19224404952826
5.0E-4                    0.0315                   309.2021650460464
0.0015                    -0.0315                  304.54465496762595
0.0015                    -0.0305                  304.5454914300068
0.0015                    -0.0295                  304.5435878278774
0.0015                    -0.0285                  304.5419334262974
0.0015                    -0.0275                  304.53926315362145
0.0015                    -0.0265                  304.5350244035657
0.0015                    -0.0255                  304.5304307278041
0.0015                    -0.0245                  304.5255089988893
0.0015                    -0.0235                  304.5199197524293
0.0015                    -0.0225                  304.51433955929934
0.0015                    -0.0215                  303.198720976261
0.0015                    -0.0205                  300.5587730038706
0.0015                    -0.0195                  294.20328372043997
0.0015                    -0.0185                  293.1867340840755
0.0015                    -0.0175                  293.16639949589666
0.0015                    -0.0165                  293.16373461526285
0.0015                    -0.0155                  293.16293441798047
0.0015                    -0.0145                  293.16351437148046
0.0015                    -0.0135                  293.16490700492244
0.0015                    -0.0125                  293.29017007823626
0.0015                    -0.0115                  297.77856895147283
0.0015                    -0.0105                  300.248795081305
0.0015                    -0.0095                  300.35909556567987
0.0015                    -0.0085                  300.2831102184315
0.0015                    -0.0075                  300.20529237012613
0.0015                    -0.0065                  300.07692947898306
0.0015                    -0.0055                  299.91921091007333
0.0015                    -0.0045                  299.7384232251342
0.0015                    -0.0035                  299.58813902298925
0.0015                    -0.0025                  299.46836725917933
0.0015                    -0.0015                  299.28646092205787
0.0015                    -5.0E-4                  299.14591872843323
0.0015                    5.0E-4                   299.0665689819075
0.0015                    0.0015                   298.9287650473095
0.0015                    0.0025                   298.83889845548725
0.0015                    0.0035                   298.81198722447675
0.0015                    0.0045                   298.7443621742244
0.0015                    0.0055                   298.74733287583615
0.0015                    0.0065                   298.8048131924635
0.0015                    0.0075                   298.76179905704623
0.0015                    0.0085                   298.6664788205203
0.0015                    0.0095                   298.5135707755738
0.0015                    0.0105                   298.22634580248587
0.0015                    0.0115                   298.75767855122854
0.0015                    0.0125                   300.35318141745705
0.0015                    0.0135                   305.3411667584397
0.0015                    0.0145                   308.61685789606275
0.0015                    0.0155                   308.6507367545856
0.0015                    0.0165                   308.69220080790603
0.0015                    0.0175                   308.74216247012674
0.0015                    0.0185                   308.79556652281826
0.0015                    0.0195                   308.84827573107725
0.0015                    0.0205                   308.8987602107096
0.0015                    0.0215                   308.94672390461244
0.0015                    0.0225                   308.99281724964794
0.0015                    0.0235                   309.0326760957671
0.0015                    0.0245                   309.06846639587286
0.0015                    0.0255                   309.10182067402036
0.0015                    0.0265                   309.1301398778583
0.0015                    0.0275                   309.1536859347574
0.0015                    0.0285                   309.17267907890033
0.0015                    0.0295                   309.184269605664
0.0015                    0.0305                   309.1941444832639
0.0015                    0.0315                   309.200486726208
0.0025                    -0.0315                  304.53726973689356
0.0025                    -0.0305                  304.53819763959314
0.0025                    -0.0295                  304.536012089058
0.0025                    -0.0285                  304.5326538368303
0.0025                    -0.0275                  304.5296118102441
0.0025                    -0.0265                  304.52613276149174
0.0025                    -0.0255                  304.5216101783061
0.0025                    -0.0245                  304.51556580743784
0.0025                    -0.0235                  304.50934065526826
0.0025                    -0.0225                  304.5012718234584
0.0025                    -0.0215                  302.6745711940558
0.0025                    -0.0205                  298.7663201602442
0.0025                    -0.0195                  294.6806004975812
0.0025                    -0.0185                  293.25115200512533
0.0025                    -0.0175                  293.17818039166883
0.0025                    -0.0165                  293.1738256446433
0.0025                    -0.0155                  293.17201980164793
0.0025                    -0.0145                  293.17279295244674
0.0025                    -0.0135                  293.17529415822594
0.0025                    -0.0125                  293.5121156835514
0.0025                    -0.0115                  296.05846573254325
0.0025                    -0.0105                  298.72628302217424
0.0025                    -0.0095                  299.45567420308447
0.0025                    -0.0085                  299.660550883337
0.0025                    -0.0075                  299.53941158240116
0.0025                    -0.0065                  299.37381643591686
0.0025                    -0.0055                  299.2106480449271
0.0025                    -0.0045                  299.06175042928834
0.0025                    -0.0035                  298.91673794858923
0.0025                    -0.0025                  298.7592185109527
0.0025                    -0.0015                  298.6045881572121
0.0025                    -5.0E-4                  298.4362692181424
0.0025                    5.0E-4                   298.2304000079993
0.0025                    0.0015                   298.04767410103125
0.0025                    0.0025                   297.8758265938335
0.0025                    0.0035                   297.65819328569626
0.0025                    0.0045                   297.5379161956438
0.0025                    0.0055                   297.4270508341353
0.0025                    0.0065                   297.36835811024235
0.0025                    0.0075                   297.37498714023286
0.0025                    0.0085                   297.3013548092841
0.0025                    0.0095                   297.150360636542
0.0025                    0.0105                   296.97799748406453
0.0025                    0.0115                   296.8683609820717
0.0025                    0.0125                   297.9127368365503
0.0025                    0.0135                   303.5155998196895
0.0025                    0.0145                   308.5727344863687
0.0025                    0.0155                   308.61550657476846
0.0025                    0.0165                   308.66783713123874
0.0025                    0.0175                   308.72604280804995
0.0025                    0.0185                   308.7844487241442
0.0025                    0.0195                   308.83919700506306
0.0025                    0.0205                   308.8944443920171
0.0025                    0.0215                   308.94271455960757
0.0025                    0.0225                   308.99096936236907
0.0025                    0.0235                   309.029352654888
0.0025                    0.0245                   309.06494499779365
0.0025                    0.0255                   309.1007352978994
0.0025                    0.0265                   309.1313803293909
0.0025                    0.0275                   309.1503734735338
0.0025                    0.0285                   309.1693666176768
0.0025                    0.0295                   309.1861239204813
0.0025                    0.0305                   309.1924661634255
0.0025                    0.0315                   309.19880840636966
0.0035                    -0.0315                  304.52607956329683
0.0035                    -0.0305                  304.523107144368
0.0035                    -0.0295                  304.5206439270494
0.0035                    -0.0285                  304.5197107174744
0.0035                    -0.0275                  304.51619137258837
0.0035                    -0.0265                  304.51233583727674
0.0035                    -0.0255                  304.50776363347313
0.0035                    -0.0245                  304.5019487648876
0.0035                    -0.0235                  304.4944194443367
0.0035                    -0.0225                  304.4846589818396
0.0035                    -0.0215                  302.39324039272157
0.0035                    -0.0205                  298.23010561131423
0.0035                    -0.0195                  294.54994808010974
0.0035                    -0.0185                  293.282587289443
0.0035                    -0.0175                  293.18649866185586
0.0035                    -0.0165                  293.1840683409459
0.0035                    -0.0155                  293.18137924915965
0.0035                    -0.0145                  293.18270435041734
0.0035                    -0.0135                  293.1812009790724
0.0035                    -0.0125                  293.4228170423605
0.0035                    -0.0115                  294.18235073560595
0.0035                    -0.0105                  296.6286217146326
0.0035                    -0.0095                  298.30868353016547
0.0035                    -0.0085                  298.76172951164205
0.0035                    -0.0075                  298.9185849648612
0.0035                    -0.0065                  298.87402887208316
0.0035                    -0.0055                  298.8166931539969
0.0035                    -0.0045                  298.7541918926953
0.0035                    -0.0035                  298.6357234621298
0.0035                    -0.0025                  298.53821084220806
0.0035                    -0.0015                  298.4369284895753
0.0035                    -5.0E-4                  298.24626322516315
0.0035                    5.0E-4                   297.89572079354036
0.0035                    0.0015                   297.6035680937338
0.0035                    0.0025                   297.3321579895428
0.0035                    0.0035                   296.94137271374575
0.0035                    0.0045                   296.8363658427053
0.0035                    0.0055                   296.71232513645145
0.0035                    0.0065                   296.61823558452164
0.0035                    0.0075                   296.667166275941
0.0035                    0.0085                   296.7000997098581
0.0035                    0.0095                   296.7154660018185
0.0035                    0.0105                   296.793164435383
0.0035                    0.0115                   296.60794108092387
0.0035                    0.0125                   297.06493604572745
0.0035                    0.0135                   302.33833352149384
0.0035                    0.0145                   308.50087208827836
0.0035                    0.0155                   308.5671745774318
0.0035                    0.0165                   308.6358554873995
0.0035                    0.0175                   308.70308609481066
0.0035                    0.0185                   308.7682060365231
0.0035                    0.0195                   308.83069479959266
0.0035                    0.0205                   308.8887665865186
0.0035                    0.0215                   308.9377368858512
0.0035                    0.0225                   308.98582495740226
0.0035                    0.0235                   309.02859592279674
0.0035                    0.0245                   309.0638556490895
0.0035                    0.0255                   309.0990380239809
0.0035                    0.0265                   309.12916099903765
0.0035                    0.0275                   309.1491761178701
0.0035                    0.0285                   309.1684831276406
0.0035                    0.0295                   309.1836112351923
0.0035                    0.0305                   309.19060616165723
0.0035                    0.0315                   309.1971300865313
0.0045                    -0.0315                  304.5052655229515
0.0045                    -0.0305                  304.5063668557346
0.0045                    -0.0295                  304.5052757650408
0.0045                    -0.0285                  304.5027204012253
0.0045                    -0.0275                  304.49973878868116
0.0045                    -0.0265                  304.4951755192763
0.0045                    -0.0255                  304.49022556889383
0.0045                    -0.0245                  304.4848010218296
0.0045                    -0.0235                  304.4772171403647
0.0045                    -0.0225                  304.46161032033257
0.0045                    -0.0215                  301.65354879090347
0.0045                    -0.0205                  297.32812688724465
0.0045                    -0.0195                  294.1194275926205
0.0045                    -0.0185                  293.2873376155263
0.0045                    -0.0175                  293.2059128639643
0.0045                    -0.0165                  293.1937019458648
0.0045                    -0.0155                  293.1921834231651
0.0045                    -0.0145                  293.19211484466507
0.0045                    -0.0135                  293.1926797106317
0.0045                    -0.0125                  293.27734813841465
0.0045                    -0.0115                  293.7370222917555
0.0045                    -0.0105                  294.58015453713415
0.0045                    -0.0095                  295.55113273950815
0.0045                    -0.0085                  296.391825880836
0.0045                    -0.0075                  296.9261066336129
0.0045                    -0.0065                  297.2813018925891
0.0045                    -0.0055                  297.40528550444833
0.0045                    -0.0045                  297.3280889674554
0.0045                    -0.0035                  297.2746076309424
0.0045                    -0.0025                  297.0770382782664
0.0045                    -0.0015                  296.8008667447813
0.0045                    -5.0E-4                  296.6009644707865
0.0045                    5.0E-4                   296.33300349029105
0.0045                    0.0015                   296.05153907173224
0.0045                    0.0025                   295.93524711770175
0.0045                    0.0035                   295.8948990149805
0.0045                    0.0045                   295.784591590777
0.0045                    0.0055                   295.7624392330639
0.0045                    0.0065                   295.7732833027721
0.0045                    0.0075                   295.8317189503707
0.0045                    0.0085                   295.90974480404327
0.0045                    0.0095                   296.02726052992637
0.0045                    0.0105                   296.11045180719685
0.0045                    0.0115                   296.1792071775247
0.0045                    0.0125                   296.22049250719385
0.0045                    0.0135                   301.4192727936257
0.0045                    0.0145                   308.39064463974955
0.0045                    0.0155                   308.5139982664653
0.0045                    0.0165                   308.59922754100904
0.0045                    0.0175                   308.6797121559174
0.0045                    0.0185                   308.7526587369784
0.0045                    0.0195                   308.81779528081523
0.0045                    0.0205                   308.8808424021306
0.0045                    0.0215                   308.9333838953406
0.0045                    0.0225                   308.9806805524354
0.0045                    0.0235                   309.02783919070555
0.0045                    0.0245                   309.0627027895325
0.0045                    0.0255                   309.09728198710894
0.0045                    0.0265                   309.12543623469753
0.0045                    0.0275                   309.1488227627509
0.0045                    0.0285                   309.16825391063014
0.0045                    0.0295                   309.18085760939647
0.0045                    0.0305                   309.18785253586134
0.0045                    0.0315                   309.1948501968222
0.0055                    -0.0315                  304.48387386353625
0.0055                    -0.0305                  304.4846655181465
0.0055                    -0.0295                  304.4815032683131
0.0055                    -0.0285                  304.47970866389744
0.0055                    -0.0275                  304.47564656439215
0.0055                    -0.0265                  304.4729875048615
0.0055                    -0.0255                  304.4695141667993
0.0055                    -0.0245                  304.46447542234205
0.0055                    -0.0235                  304.45880177164895
0.0055                    -0.0225                  302.771813499533
0.0055                    -0.0215                  298.92742922819235
0.0055                    -0.0205                  295.7813259448989
0.0055                    -0.0195                  293.936702208592
0.0055                    -0.0185                  293.3262242333894
0.0055                    -0.0175                  293.2169659864822
0.0055                    -0.0165                  293.20539933875847
0.0055                    -0.0155                  293.2051766318921
0.0055                    -0.0145                  293.2076453114398
0.0055                    -0.0135                  293.2109673982967
0.0055                    -0.0125                  293.24363391407564
0.0055                    -0.0115                  293.33103096473974
0.0055                    -0.0105                  293.51339318443894
0.0055                    -0.0095                  293.8584479041247
0.0055                    -0.0085                  294.2665726906343
0.0055                    -0.0075                  294.6623509971156
0.0055                    -0.0065                  294.78518278547335
0.0055                    -0.0055                  294.9554682121185
0.0055                    -0.0045                  295.1373744545084
0.0055                    -0.0035                  295.0604462907579
0.0055                    -0.0025                  295.13227315181473
0.0055                    -0.0015                  295.033827052618
0.0055                    -5.0E-4                  294.83894009143074
0.0055                    5.0E-4                   294.80757777264716
0.0055                    0.0015                   294.73026119193656
0.0055                    0.0025                   294.72002127114524
0.0055                    0.0035                   294.6617450715092
0.0055                    0.0045                   294.74500818878096
0.0055                    0.0055                   294.8246553516647
0.0055                    0.0065                   294.85584177301325
0.0055                    0.0075                   294.9467079288155
0.0055                    0.0085                   295.0767681959051
0.0055                    0.0095                   295.2375465456198
0.0055                    0.0105                   295.3876537753923
0.0055                    0.0115                   295.53240812923315
0.0055                    0.0125                   295.6840309023331
0.0055                    0.0135                   296.09726548772045
0.0055                    0.0145                   303.34458121442646
0.0055                    0.0155                   308.46685044171454
0.0055                    0.0165                   308.5632219972848
0.0055                    0.0175                   308.65597664910797
0.0055                    0.0185                   308.73768889175176
0.0055                    0.0195                   308.8120988469331
0.0055                    0.0205                   308.87367545673874
0.0055                    0.0215                   308.93163448029026
0.0055                    0.0225                   308.97887562461017
0.0055                    0.0235                   309.024596855307
0.0055                    0.0245                   309.06104069353927
0.0055                    0.0255                   309.09552595023695
0.0055                    0.0265                   309.1217114703573
0.0055                    0.0275                   309.1450979984107
0.0055                    0.0285                   309.1680246936196
0.0055                    0.0295                   309.1781123214565
0.0055                    0.0305                   309.1851829308006
0.0055                    0.0315                   309.1922535401446
0.0065                    -0.0315                  304.4598798990147
0.0065                    -0.0305                  304.4566043206721
0.0065                    -0.0295                  304.45339506236985
0.0065                    -0.0285                  304.45227099968565
0.0065                    -0.0275                  304.4511469370014
0.0065                    -0.0265                  304.4472393480458
0.0065                    -0.0255                  304.443582976939
0.0065                    -0.0245                  304.44039719588716
0.0065                    -0.0235                  304.4353301972753
0.0065                    -0.0225                  301.3204582654781
0.0065                    -0.0215                  297.04088890529164
0.0065                    -0.0205                  294.81031599122184
0.0065                    -0.0195                  293.6931034941525
0.0065                    -0.0185                  293.3014005546281
0.0065                    -0.0175                  293.22412104670383
0.0065                    -0.0165                  293.2173420858519
0.0065                    -0.0155                  293.2224234709535
0.0065                    -0.0145                  293.2657700173683
0.0065                    -0.0135                  293.2614312622784
0.0065                    -0.0125                  293.26184416352226
0.0065                    -0.0115                  293.28011859823744
0.0065                    -0.0105                  293.3175650091416
0.0065                    -0.0095                  293.41874886735997
0.0065                    -0.0085                  293.51748917150445
0.0065                    -0.0075                  293.6347489248916
0.0065                    -0.0065                  293.70128918554576
0.0065                    -0.0055                  293.9021008614962
0.0065                    -0.0045                  294.0325033229452
0.0065                    -0.0035                  294.02424590520485
0.0065                    -0.0025                  294.06429833853656
0.0065                    -0.0015                  294.07338752763076
0.0065                    -5.0E-4                  294.0940179320697
0.0065                    5.0E-4                   294.1322169063139
0.0065                    0.0015                   294.2204776410003
0.0065                    0.0025                   294.2539710426062
0.0065                    0.0035                   294.25902905597286
0.0065                    0.0045                   294.36497794480596
0.0065                    0.0055                   294.4232756126586
0.0065                    0.0065                   294.50508736093997
0.0065                    0.0075                   294.58433586817193
0.0065                    0.0085                   294.62101835913825
0.0065                    0.0095                   294.7431030659036
0.0065                    0.0105                   294.8920768682342