% Model:              模型结构导入comsolBench.mph
% Version:            COMSOL 6.2.0.339
% Date:               May 28 2026, 17:42
% Dimension:          2
% Nodes:              4096
% Expressions:        1
% Description:        温度
% Length unit:        m
% x                       y                        T (K)
5.0E-4                    -0.0315                  297.51813620322423
5.0E-4                    -0.0305                  297.6971248320558
5.0E-4                    -0.0295                  298.2157447125171
5.0E-4                    -0.0285                  297.6235598987897
5.0E-4                    -0.0275                  296.9067122633307
5.0E-4                    -0.0265                  295.933671302051
5.0E-4                    -0.0255                  293.3307876827023
5.0E-4                    -0.0245                  293.15061086125286
5.0E-4                    -0.0235                  293.14968058817317
5.0E-4                    -0.0225                  293.2386322114867
5.0E-4                    -0.0215                  296.3510996314878
5.0E-4                    -0.0205                  297.645140708695
5.0E-4                    -0.0195                  297.8231584451337
5.0E-4                    -0.0185                  297.94014284615315
5.0E-4                    -0.0175                  298.03906989186976
5.0E-4                    -0.0165                  298.1201998276036
5.0E-4                    -0.0155                  298.20568633823945
5.0E-4                    -0.0145                  298.27550736308075
5.0E-4                    -0.0135                  298.3386689977829
5.0E-4                    -0.0125                  298.44818231642677
5.0E-4                    -0.0115                  298.7715690983849
5.0E-4                    -0.0105                  299.88198730983856
5.0E-4                    -0.0095                  300.4697053973811
5.0E-4                    -0.0085                  300.4880134460637
5.0E-4                    -0.0075                  300.5233543852262
5.0E-4                    -0.0065                  300.5747344036186
5.0E-4                    -0.0055                  300.64045335040663
5.0E-4                    -0.0045                  300.7115256131114
5.0E-4                    -0.0035                  300.7898290006252
5.0E-4                    -0.0025                  300.8687254231668
5.0E-4                    -0.0015                  300.95079736751893
5.0E-4                    -5.0E-4                  301.0336560175112
5.0E-4                    5.0E-4                   301.1170452804299
5.0E-4                    0.0015                   301.20480453896755
5.0E-4                    0.0025                   301.2927309448988
5.0E-4                    0.0035                   301.3822802568144
5.0E-4                    0.0045                   301.4746757454913
5.0E-4                    0.0055                   301.56727460900566
5.0E-4                    0.0065                   301.65987347252
5.0E-4                    0.0075                   301.7536250410384
5.0E-4                    0.0085                   301.8453226919079
5.0E-4                    0.0095                   301.9370203427774
5.0E-4                    0.0105                   302.0287179936468
5.0E-4                    0.0115                   302.1194117637516
5.0E-4                    0.0125                   302.2026814786455
5.0E-4                    0.0135                   302.2859511935394
5.0E-4                    0.0145                   302.36922090843325
5.0E-4                    0.0155                   302.45015912822964
5.0E-4                    0.0165                   302.5205166907731
5.0E-4                    0.0175                   302.58969581016595
5.0E-4                    0.0185                   302.6588749295588
5.0E-4                    0.0195                   302.7256948292551
5.0E-4                    0.0205                   302.7801668632771
5.0E-4                    0.0215                   302.83144963149124
5.0E-4                    0.0225                   302.8827323997054
5.0E-4                    0.0235                   302.93230697496176
5.0E-4                    0.0245                   302.9692500344096
5.0E-4                    0.0255                   303.0010674699796
5.0E-4                    0.0265                   303.0328849055496
5.0E-4                    0.0275                   303.06470234111964
5.0E-4                    0.0285                   303.0825862905697
5.0E-4                    0.0295                   303.09355051067047
5.0E-4                    0.0305                   303.10451473077126
5.0E-4                    0.0315                   303.11547895087205
0.0015                    -0.0315                  297.51122024624937
0.0015                    -0.0305                  297.5123071708211
0.0015                    -0.0295                  297.81366630107726
0.0015                    -0.0285                  297.07755311380225
0.0015                    -0.0275                  295.8941967979983
0.0015                    -0.0265                  295.17723074278143
0.0015                    -0.0255                  293.60619712817527
0.0015                    -0.0245                  293.1548620710987
0.0015                    -0.0235                  293.1431105587186
0.0015                    -0.0225                  293.3302680118131
0.0015                    -0.0215                  295.45643410634904
0.0015                    -0.0205                  296.8447065758404
0.0015                    -0.0195                  297.17856974926343
0.0015                    -0.0185                  297.50231320404794
0.0015                    -0.0175                  297.81845075902606
0.0015                    -0.0165                  298.02868303118464
0.0015                    -0.0155                  298.2323514811702
0.0015                    -0.0145                  298.4056295967372
0.0015                    -0.0135                  298.42190189973036
0.0015                    -0.0125                  298.4285288686062
0.0015                    -0.0115                  298.53822459091873
0.0015                    -0.0105                  299.52891230294654
0.0015                    -0.0095                  300.447669765006
0.0015                    -0.0085                  300.46617490826753
0.0015                    -0.0075                  300.5049307995669
0.0015                    -0.0065                  300.5624077950407
0.0015                    -0.0055                  300.62875956573873
0.0015                    -0.0045                  300.70418064828004
0.0015                    -0.0035                  300.7817781714991
0.0015                    -0.0025                  300.8621695525912
0.0015                    -0.0015                  300.9435890082285
0.0015                    -5.0E-4                  301.02617743257736
0.0015                    5.0E-4                   301.11003527406245
0.0015                    0.0015                   301.19521902806525
0.0015                    0.0025                   301.283634529447
0.0015                    0.0035                   301.3747046429044
0.0015                    0.0045                   301.46609237017947
0.0015                    0.0055                   301.5586912336938
0.0015                    0.0065                   301.65228844771644
0.0015                    0.0075                   301.746838553524
0.0015                    0.0085                   301.839845054779
0.0015                    0.0095                   301.93154270564844
0.0015                    0.0105                   302.02281802221256
0.0015                    0.0115                   302.1134546426509
0.0015                    0.0125                   302.2008311216676
0.0015                    0.0135                   302.2841008365615
0.0015                    0.0145                   302.3663176466278
0.0015                    0.0155                   302.4451363785064
0.0015                    0.0165                   302.521079053956
0.0015                    0.0175                   302.5902581733488
0.0015                    0.0185                   302.65867849195126
0.0015                    0.0195                   302.7215461299392
0.0015                    0.0205                   302.7824102360364
0.0015                    0.0215                   302.8336930042507
0.0015                    0.0225                   302.8849757724648
0.0015                    0.0235                   302.9285331891065
0.0015                    0.0245                   302.9718549922529
0.0015                    0.0255                   303.00367242782283
0.0015                    0.0265                   303.0354898633929
0.0015                    0.0275                   303.0621999708242
0.0015                    0.0285                   303.0842098538993
0.0015                    0.0295                   303.096100908017
0.0015                    0.0305                   303.10706512811777
0.0015                    0.0315                   303.1147661543217
0.0025                    -0.0315                  297.4982710239458
0.0025                    -0.0305                  297.49817101033227
0.0025                    -0.0295                  297.7184371508393
0.0025                    -0.0285                  296.8876218420409
0.0025                    -0.0275                  295.6045604215573
0.0025                    -0.0265                  294.88654774595614
0.0025                    -0.0255                  293.94629028850255
0.0025                    -0.0245                  293.2197532016612
0.0025                    -0.0235                  293.1293672156892
0.0025                    -0.0225                  293.3795008461405
0.0025                    -0.0215                  294.6527831363638
0.0025                    -0.0205                  296.2445284060503
0.0025                    -0.0195                  296.59310369211335
0.0025                    -0.0185                  296.9018111208714
0.0025                    -0.0175                  297.2798026245362
0.0025                    -0.0165                  297.75598098550324
0.0025                    -0.0155                  298.1219259110743
0.0025                    -0.0145                  298.4524051656898
0.0025                    -0.0135                  298.6045615076421
0.0025                    -0.0125                  298.5985209581091
0.0025                    -0.0115                  298.6278718147401
0.0025                    -0.0105                  299.397003549536
0.0025                    -0.0095                  300.41201358462763
0.0025                    -0.0085                  300.4173378818428
0.0025                    -0.0075                  300.45829798653955
0.0025                    -0.0065                  300.5265270870693
0.0025                    -0.0055                  300.60394004397966
0.0025                    -0.0045                  300.6851214060153
0.0025                    -0.0035                  300.76788338834785
0.0025                    -0.0025                  300.85091239373384
0.0025                    -0.0015                  300.93301992464757
0.0025                    -5.0E-4                  301.0132422501764
0.0025                    5.0E-4                   301.099092961142
0.0025                    0.0015                   301.1849436721076
0.0025                    0.0025                   301.275846789811
0.0025                    0.0035                   301.36712902899444
0.0025                    0.0045                   301.458199142452
0.0025                    0.0055                   301.55054375702224
0.0025                    0.0065                   301.6450938628298
0.0025                    0.0075                   301.7396439686374
0.0025                    0.0085                   301.83419407444495
0.0025                    0.0095                   301.92595132832685
0.0025                    0.0105                   302.0165879487652
0.0025                    0.0115                   302.1072245692036
0.0025                    0.0125                   302.1978611896419
0.0025                    0.0135                   302.2822504795835
0.0025                    0.0145                   302.3612948969045
0.0025                    0.0155                   302.44011362878314
0.0025                    0.0165                   302.5189323606618
0.0025                    0.0175                   302.5908205365317
0.0025                    0.0185                   302.6545297926354
0.0025                    0.0195                   302.71739743062335
0.0025                    0.0205                   302.78026506861124
0.0025                    0.0215                   302.83593637701
0.0025                    0.0225                   302.88129723465397
0.0025                    0.0235                   302.9247594032512
0.0025                    0.0245                   302.9682215718484
0.0025                    0.0255                   303.0062773856661
0.0025                    0.0265                   303.0372119777367
0.0025                    0.0275                   303.0592218608118
0.0025                    0.0285                   303.0812317438869
0.0025                    0.0295                   303.0986513053635
0.0025                    0.0305                   303.1065350227245
0.0025                    0.0315                   303.1139620121928
0.0035                    -0.0315                  297.48119444586996
0.0035                    -0.0305                  297.477359479038
0.0035                    -0.0295                  297.5697889092537
0.0035                    -0.0285                  296.8134498501048
0.0035                    -0.0275                  295.57171100948824
0.0035                    -0.0265                  294.8132058746577
0.0035                    -0.0255                  294.0985038103694
0.0035                    -0.0245                  293.27205341529077
0.0035                    -0.0235                  293.17583172445643
0.0035                    -0.0225                  293.3819298913946
0.0035                    -0.0215                  294.14825867261123
0.0035                    -0.0205                  295.5705771503371
0.0035                    -0.0195                  296.05265939117385
0.0035                    -0.0185                  296.27469798717937
0.0035                    -0.0175                  296.61244956045414
0.0035                    -0.0165                  297.11196076540233
0.0035                    -0.0155                  297.54534586845307
0.0035                    -0.0145                  297.93425613288355
0.0035                    -0.0135                  298.48475805707085
0.0035                    -0.0125                  298.64360067200056
0.0035                    -0.0115                  299.0074312359237
0.0035                    -0.0105                  299.41910036281274
0.0035                    -0.0095                  300.01427698781106
0.0035                    -0.0085                  300.29275699437164
0.0035                    -0.0075                  300.374722973504
0.0035                    -0.0065                  300.48621300599996
0.0035                    -0.0055                  300.5707018155815
0.0035                    -0.0045                  300.66068246401954
0.0035                    -0.0035                  300.7507147938877
0.0035                    -0.0025                  300.8343285593496
0.0035                    -0.0015                  300.9135158490259
0.0035                    -5.0E-4                  300.98943479469847
0.0035                    5.0E-4                   301.0742721839104
0.0035                    0.0015                   301.1592665531872
0.0035                    0.0025                   301.24658889859336
0.0035                    0.0035                   301.33971234472955
0.0035                    0.0045                   301.4335837750156
0.0035                    0.0055                   301.5314452280411
0.0035                    0.0065                   301.6277036134926
0.0035                    0.0075                   301.7239619989441
0.0035                    0.0085                   301.82022038439567
0.0035                    0.0095                   301.9170227835141
0.0035                    0.0105                   302.0077561329631
0.0035                    0.0115                   302.098489482412
0.0035                    0.0125                   302.18922283186095
0.0035                    0.0135                   302.2773473394411
0.0035                    0.0145                   302.3561624251146
0.0035                    0.0155                   302.4349775107881
0.0035                    0.0165                   302.51379259646154
0.0035                    0.0175                   302.58849909279127
0.0035                    0.0185                   302.6513592234689
0.0035                    0.0195                   302.71421935414656
0.0035                    0.0205                   302.7770794848242
0.0035                    0.0215                   302.83532796268
0.0035                    0.0225                   302.8782675028814
0.0035                    0.0235                   302.92120704308275
0.0035                    0.0245                   302.9644477859931
0.0035                    0.0255                   303.0079099545903
0.0035                    0.0265                   303.03423386772437
0.0035                    0.0275                   303.0571090461173
0.0035                    0.0285                   303.08016141279643
0.0035                    0.0295                   303.0983791688019
0.0035                    0.0305                   303.1057308805956
0.0035                    0.0315                   303.11315787006396
0.0045                    -0.0315                  297.46245772550054
0.0045                    -0.0305                  297.4552223787063
0.0045                    -0.0295                  297.4408830205118
0.0045                    -0.0285                  296.7898230736676
0.0045                    -0.0275                  295.5298014332603
0.0045                    -0.0265                  294.69283516246685
0.0045                    -0.0255                  294.2112973778276
0.0045                    -0.0245                  293.48475570789645
0.0045                    -0.0235                  293.2020322088998
0.0045                    -0.0225                  293.33046868238705
0.0045                    -0.0215                  293.85009373481824
0.0045                    -0.0205                  295.0557565812755
0.0045                    -0.0195                  295.56207060189536
0.0045                    -0.0185                  295.72177059793097
0.0045                    -0.0175                  295.99724009811587
0.0045                    -0.0165                  296.3603348317873
0.0045                    -0.0155                  296.74546646430724
0.0045                    -0.0145                  297.0696182229454
0.0045                    -0.0135                  297.3436174060374
0.0045                    -0.0125                  297.63755171299016
0.0045                    -0.0115                  297.79278050062186
0.0045                    -0.0105                  297.65428073887244
0.0045                    -0.0095                  297.8356918632969
0.0045                    -0.0085                  298.0918377784425
0.0045                    -0.0075                  298.19000019095716
0.0045                    -0.0065                  299.18188161577336
0.0045                    -0.0055                  300.49837497544536
0.0045                    -0.0045                  300.63295285036867
0.0045                    -0.0035                  300.7372865993131
0.0045                    -0.0025                  300.81910628180367
0.0045                    -0.0015                  300.89123997190006
0.0045                    -5.0E-4                  300.9678101800829
0.0045                    5.0E-4                   301.0488471200936
0.0045                    0.0015                   301.1333278991172
0.0045                    0.0025                   301.21780867814067
0.0045                    0.0035                   301.3111949755671
0.0045                    0.0045                   301.4091799615895
0.0045                    0.0055                   301.50716494761184
0.0045                    0.0065                   301.6040255905202
0.0045                    0.0075                   301.70028397597173
0.0045                    0.0085                   301.8000227616096
0.0045                    0.0095                   301.90191966106335
0.0045                    0.0105                   301.9939931932199
0.0045                    0.0115                   302.0847265426689
0.0045                    0.0125                   302.17555404657065
0.0045                    0.0135                   302.26657762249556
0.0045                    0.0145                   302.3508053622864
0.0045                    0.0155                   302.4296204479599
0.0045                    0.0165                   302.50721960725
0.0045                    0.0175                   302.5817515508669
0.0045                    0.0185                   302.6499775987437
0.0045                    0.0195                   302.7128377294214
0.0045                    0.0205                   302.7747661144361
0.0045                    0.0215                   302.83238485675037
0.0045                    0.0225                   302.87854726763385
0.0045                    0.0235                   302.92148680783527
0.0045                    0.0245                   302.9644263480367
0.0045                    0.0255                   303.0070584617661
0.0045                    0.0265                   303.03514282728463
0.0045                    0.0275                   303.0584786311026
0.0045                    0.0285                   303.08153099778167
0.0045                    0.0295                   303.0977231832686
0.0045                    0.0305                   303.10507462697785
0.0045                    0.0315                   303.112426070687
0.0055                    -0.0315                  297.4458158700238
0.0055                    -0.0305                  297.43493424963094
0.0055                    -0.0295                  297.4125154480681
0.0055                    -0.0285                  297.0803783338101
0.0055                    -0.0275                  295.483429247755
0.0055                    -0.0265                  294.52305161891593
0.0055                    -0.0255                  294.2595078731265
0.0055                    -0.0245                  293.5922691556865
0.0055                    -0.0235                  293.2556478280554
0.0055                    -0.0225                  293.3077471354047
0.0055                    -0.0215                  293.6650740312758
0.0055                    -0.0205                  294.30607471705787
0.0055                    -0.0195                  295.1624213164356
0.0055                    -0.0185                  295.3868667747998
0.0055                    -0.0175                  295.6440755076579
0.0055                    -0.0165                  295.83539844942123
0.0055                    -0.0155                  296.0709607134561
0.0055                    -0.0145                  296.222813903801
0.0055                    -0.0135                  296.22106645638206
0.0055                    -0.0125                  296.041560884562
0.0055                    -0.0115                  295.94219082671174
0.0055                    -0.0105                  295.79996212767963
0.0055                    -0.0095                  295.73863482184635
0.0055                    -0.0085                  295.66644401684255
0.0055                    -0.0075                  295.7100928381889
0.0055                    -0.0065                  296.0293745044006
0.0055                    -0.0055                  297.16307219761137
0.0055                    -0.0045                  299.0857814547203
0.0055                    -0.0035                  300.73859551065846
0.0055                    -0.0025                  300.80167185383397
0.0055                    -0.0015                  300.86353235769025
0.0055                    -5.0E-4                  300.93083737110777
0.0055                    5.0E-4                   301.0027539829406
0.0055                    0.0015                   301.0913421040967
0.0055                    0.0025                   301.1782346761165
0.0055                    0.0035                   301.28169963456367
0.0055                    0.0045                   301.3847761481633
0.0055                    0.0055                   301.4827611341857
0.0055                    0.0065                   301.58034756754785
0.0055                    0.0075                   301.6788252970496
0.0055                    0.0085                   301.78072219650335
0.0055                    0.0095                   301.8826190959572
0.0055                    0.0105                   301.98023025347686
0.0055                    0.0115                   302.07096360292576
0.0055                    0.0125                   302.1619868274545
0.0055                    0.0135                   302.2530104033794
0.0055                    0.0145                   302.3440339793043
0.0055                    0.0155                   302.4242633851317
0.0055                    0.0165                   302.4989041500674
0.0055                    0.0175                   302.5734360936842
0.0055                    0.0185                   302.6479680373011
0.0055                    0.0195                   302.71145610469614
0.0055                    0.0205                   302.7698122239168
0.0055                    0.0215                   302.8274309662311
0.0055                    0.0225                   302.8788270323864
0.0055                    0.0235                   302.92176657258784
0.0055                    0.0245                   302.96430084431665
0.0055                    0.0255                   303.0068259649071
0.0055                    0.0265                   303.033552117617
0.0055                    0.0275                   303.05912890516345
0.0055                    0.0285                   303.08290058276697
0.0055                    0.0295                   303.0970671977353
0.0055                    0.0305                   303.1046911085581
0.0055                    0.0315                   303.1128138077057
0.0065                    -0.0315                  297.43815357550307
0.0065                    -0.0305                  297.4221292469782
0.0065                    -0.0295                  297.3870204657331
0.0065                    -0.0285                  297.3101868539843
0.0065                    -0.0275                  295.57168708626
0.0065                    -0.0265                  294.3779507264699
0.0065                    -0.0255                  294.1847025068282
0.0065                    -0.0245                  293.7750969677696
0.0065                    -0.0235                  293.3507389069808
0.0065                    -0.0225                  293.29878361565653
0.0065                    -0.0215                  293.4922895646941
0.0065                    -0.0205                  294.01396808346675
0.0065                    -0.0195                  294.66786681262624
0.0065                    -0.0185                  295.010680915663
0.0065                    -0.0175                  295.3352795418688
0.0065                    -0.0165                  295.4766113222336
0.0065                    -0.0155                  295.65132540703905
0.0065                    -0.0145                  295.6756612877215
0.0065                    -0.0135                  295.6302539141362
0.0065                    -0.0125                  295.4974834821659
0.0065                    -0.0115                  295.4171127207114
0.0065                    -0.0105                  295.28917009531364
0.0065                    -0.0095                  295.2398225200805
0.0065                    -0.0085                  295.221362040313
0.0065                    -0.0075                  295.2298603947964
0.0065                    -0.0065                  295.23631694671457
0.0065                    -0.0055                  295.35610038701384
0.0065                    -0.0045                  296.0763572490869
0.0065                    -0.0035                  298.77562293206677
0.0065                    -0.0025                  300.7830178114141
0.0065                    -0.0015                  300.82701719074134
0.0065                    -5.0E-4                  300.88191063359653
0.0065                    5.0E-4                   300.9527399245745
0.0065                    0.0015                   301.0359848719753
0.0065                    0.0025                   301.1243038196599
0.0065                    0.0035                   301.23320544315857
0.0065                    0.0045                   301.3383544922754
0.0065                    0.0055                   301.44350354139226
0.0065                    0.0065                   301.55132625688435
0.0065                    0.0075                   301.6576811427907
0.0065                    0.0085                   301.7607066183635
0.0065                    0.0095                   301.86331853085096
0.0065                    0.0105                   301.96521543030474
0.0065                    0.0115                   302.0573960324134