% Model:              模型结构导入comsolBench.mph
% Version:            COMSOL 6.2.0.339
% Date:               May 29 2026, 11:19
% Dimension:          2
% Nodes:              4096
% Expressions:        1
% Description:        温度
% Length unit:        m
% x                       y                        T (K)
5.0E-4                    -0.0315                  303.66665123477316
5.0E-4                    -0.0305                  303.6553884732861
5.0E-4                    -0.0295                  303.64412571179906
5.0E-4                    -0.0285                  303.6328629503121
5.0E-4                    -0.0275                  303.60735000021435
5.0E-4                    -0.0265                  303.57718409163834
5.0E-4                    -0.0255                  303.5457280003523
5.0E-4                    -0.0245                  303.50517682186575
5.0E-4                    -0.0235                  303.4624925009511
5.0E-4                    -0.0225                  303.4152259703884
5.0E-4                    -0.0215                  303.36770731424167
5.0E-4                    -0.0205                  303.3229294012176
5.0E-4                    -0.0195                  303.2861403702451
5.0E-4                    -0.0185                  303.26329226938776
5.0E-4                    -0.0175                  302.57290102662506
5.0E-4                    -0.0165                  301.43944337183376
5.0E-4                    -0.0155                  300.663494408813
5.0E-4                    -0.0145                  300.51040274894524
5.0E-4                    -0.0135                  300.5422906429229
5.0E-4                    -0.0125                  299.47342332719614
5.0E-4                    -0.0115                  293.399233179773
5.0E-4                    -0.0105                  293.1591115869756
5.0E-4                    -0.0095                  293.15572380725416
5.0E-4                    -0.0085                  293.1547873053914
5.0E-4                    -0.0075                  293.1544986493562
5.0E-4                    -0.0065                  293.1546154575082
5.0E-4                    -0.0055                  293.15587354706963
5.0E-4                    -0.0045                  293.20557778809393
5.0E-4                    -0.0035                  298.557044253575
5.0E-4                    -0.0025                  300.2428367743187
5.0E-4                    -0.0015                  300.13465975689155
5.0E-4                    -5.0E-4                  300.0363882334557
5.0E-4                    5.0E-4                   299.9722558690837
5.0E-4                    0.0015                   299.9339068029371
5.0E-4                    0.0025                   299.89059706792125
5.0E-4                    0.0035                   299.91521120180903
5.0E-4                    0.0045                   299.9669412010552
5.0E-4                    0.0055                   300.066150671612
5.0E-4                    0.0065                   300.1573963357296
5.0E-4                    0.0075                   300.24555525157837
5.0E-4                    0.0085                   300.3189393678264
5.0E-4                    0.0095                   300.36857187228964
5.0E-4                    0.0105                   300.3709477382325
5.0E-4                    0.0115                   300.37810087492
5.0E-4                    0.0125                   300.59997351726645
5.0E-4                    0.0135                   301.27300365605424
5.0E-4                    0.0145                   302.5034939452196
5.0E-4                    0.0155                   303.6962727511617
5.0E-4                    0.0165                   304.12288629496817
5.0E-4                    0.0175                   304.13775935390345
5.0E-4                    0.0185                   304.1618178344116
5.0E-4                    0.0195                   304.19181590748013
5.0E-4                    0.0205                   304.22566408986484
5.0E-4                    0.0215                   304.2599421499756
5.0E-4                    0.0225                   304.2937254830707
5.0E-4                    0.0235                   304.32547783893585
5.0E-4                    0.0245                   304.35582320078646
5.0E-4                    0.0255                   304.379852726063
5.0E-4                    0.0265                   304.40231121336865
5.0E-4                    0.0275                   304.4242796744435
5.0E-4                    0.0285                   304.4378289676356
5.0E-4                    0.0295                   304.44636906937933
5.0E-4                    0.0305                   304.4549091711232
5.0E-4                    0.0315                   304.4632292383093
0.0015                    -0.0315                  303.66727966279825
0.0015                    -0.0305                  303.65878770889003
0.0015                    -0.0295                  303.647524947403
0.0015                    -0.0285                  303.6323725735973
0.0015                    -0.0275                  303.608266892615
0.0015                    -0.0265                  303.58011089468005
0.0015                    -0.0255                  303.5435685371394
0.0015                    -0.0245                  303.5056915756564
0.0015                    -0.0235                  303.45974193457596
0.0015                    -0.0225                  303.4122440694711
0.0015                    -0.0215                  303.36071533591667
0.0015                    -0.0205                  303.30912376876455
0.0015                    -0.0195                  303.26794566129036
0.0015                    -0.0185                  303.2353605266683
0.0015                    -0.0175                  301.16778128134274
0.0015                    -0.0165                  298.5955628113345
0.0015                    -0.0155                  298.0935203226304
0.0015                    -0.0145                  298.5775574222872
0.0015                    -0.0135                  299.18033785537114
0.0015                    -0.0125                  297.67762265131
0.0015                    -0.0115                  293.4355573129803
0.0015                    -0.0105                  293.17379798790705
0.0015                    -0.0095                  293.16740387586253
0.0015                    -0.0085                  293.16468007640253
0.0015                    -0.0075                  293.16357198374686
0.0015                    -0.0065                  293.16369360855737
0.0015                    -0.0055                  293.16640006576495
0.0015                    -0.0045                  293.1968016010058
0.0015                    -0.0035                  295.69473564796135
0.0015                    -0.0025                  299.4155796177642
0.0015                    -0.0015                  299.35110030957816
0.0015                    -5.0E-4                  299.13974549640614
0.0015                    5.0E-4                   298.9720627046504
0.0015                    0.0015                   298.7639759390211
0.0015                    0.0025                   298.5582921016926
0.0015                    0.0035                   298.3679761275222
0.0015                    0.0045                   298.357834957205
0.0015                    0.0055                   298.38857604606824
0.0015                    0.0065                   298.5699320202343
0.0015                    0.0075                   298.75678994013094
0.0015                    0.0085                   298.7861992295713
0.0015                    0.0095                   298.5919585022534
0.0015                    0.0105                   298.26100868273375
0.0015                    0.0115                   297.9619394111638
0.0015                    0.0125                   297.6514290844109
0.0015                    0.0135                   298.2169531884838
0.0015                    0.0145                   299.6981479279169
0.0015                    0.0155                   302.6352528653309
0.0015                    0.0165                   304.1021931486426
0.0015                    0.0175                   304.1236440170513
0.0015                    0.0185                   304.15102884213604
0.0015                    0.0195                   304.1850126257268
0.0015                    0.0205                   304.22088530057766
0.0015                    0.0215                   304.2555565483201
0.0015                    0.0225                   304.29058635633174
0.0015                    0.0235                   304.32336791086414
0.0015                    0.0245                   304.35195658180515
0.0015                    0.0255                   304.37977597241047
0.0015                    0.0265                   304.4025196333188
0.0015                    0.0275                   304.42149180075154
0.0015                    0.0285                   304.43750560918215
0.0015                    0.0295                   304.44604571092594
0.0015                    0.0305                   304.45392570899685
0.0015                    0.0315                   304.46012196932867
0.0025                    -0.0315                  303.6677863070937
0.0025                    -0.0305                  303.6596597043743
0.0025                    -0.0295                  303.65092418300685
0.0025                    -0.0285                  303.6309642431746
0.0025                    -0.0275                  303.60768303286113
0.0025                    -0.0265                  303.58115657021233
0.0025                    -0.0255                  303.54416959125945
0.0025                    -0.0245                  303.50602216565886
0.0025                    -0.0235                  303.4561178801432
0.0025                    -0.0225                  303.4061322472209
0.0025                    -0.0215                  303.3487864128694
0.0025                    -0.0205                  303.2873599154136
0.0025                    -0.0195                  303.2276968867622
0.0025                    -0.0185                  303.1802176147306
0.0025                    -0.0175                  300.04630247662186
0.0025                    -0.0165                  296.95706089191214
0.0025                    -0.0155                  297.34226519077265
0.0025                    -0.0145                  297.6125456267156
0.0025                    -0.0135                  297.2059987091799
0.0025                    -0.0125                  294.9771029690811
0.0025                    -0.0115                  293.457449791313
0.0025                    -0.0105                  293.1947500990866
0.0025                    -0.0095                  293.1806935160479
0.0025                    -0.0085                  293.1754091006458
0.0025                    -0.0075                  293.17341334659517
0.0025                    -0.0065                  293.1732766612402
0.0025                    -0.0055                  293.17596405043366
0.0025                    -0.0045                  293.2125255324711
0.0025                    -0.0035                  294.18976882606296
0.0025                    -0.0025                  296.4001532814933
0.0025                    -0.0015                  297.86035834167694
0.0025                    -5.0E-4                  297.75466751607314
0.0025                    5.0E-4                   297.41936189708633
0.0025                    0.0015                   297.30314302073765
0.0025                    0.0025                   296.9031674228447
0.0025                    0.0035                   296.692691472636
0.0025                    0.0045                   296.5949507383923
0.0025                    0.0055                   296.641674629379
0.0025                    0.0065                   296.8352789259355
0.0025                    0.0075                   297.0903541033654
0.0025                    0.0085                   297.3227951986149
0.0025                    0.0095                   297.32585404098796
0.0025                    0.0105                   297.1131976247407
0.0025                    0.0115                   296.8251041922332
0.0025                    0.0125                   296.58041155269996
0.0025                    0.0135                   296.5868972202651
0.0025                    0.0145                   297.43340379138687
0.0025                    0.0155                   301.33396576953794
0.0025                    0.0165                   304.0644096914567
0.0025                    0.0175                   304.0955446093665
0.0025                    0.0185                   304.1314632963438
0.0025                    0.0195                   304.16885325923397
0.0025                    0.0205                   304.208137442741
0.0025                    0.0215                   304.2463899600148
0.0025                    0.0225                   304.2830908578359
0.0025                    0.0235                   304.3198140868391
0.0025                    0.0245                   304.34831686992555
0.0025                    0.0255                   304.3762213521656
0.0025                    0.0265                   304.39911306951785
0.0025                    0.0275                   304.4186860550407
0.0025                    0.0285                   304.4371822507288
0.0025                    0.0295                   304.44462217968436
0.0025                    0.0305                   304.4508184400161
0.0025                    0.0315                   304.457014700348
0.0035                    -0.0315                  303.6682929513892
0.0035                    -0.0305                  303.6603937978949
0.0035                    -0.0295                  303.6536508026928
0.0035                    -0.0285                  303.63394577917666
0.0035                    -0.0275                  303.6114131590741
0.0035                    -0.0265                  303.5821533991929
0.0035                    -0.0255                  303.5467816022771
0.0035                    -0.0245                  303.5050053685004
0.0035                    -0.0235                  303.4547864864557
0.0035                    -0.0225                  303.3973175936897
0.0035                    -0.0215                  303.33493335164593
0.0035                    -0.0205                  303.2597306476739
0.0035                    -0.0195                  303.1743340574138
0.0035                    -0.0185                  303.0881697629659
0.0035                    -0.0175                  299.3310955157158
0.0035                    -0.0165                  296.4026545491478
0.0035                    -0.0155                  295.85873911691556
0.0035                    -0.0145                  295.335019899234
0.0035                    -0.0135                  294.3201037692845
0.0035                    -0.0125                  293.57911207306427
0.0035                    -0.0115                  293.24823554774866
0.0035                    -0.0105                  293.21108076635795
0.0035                    -0.0095                  293.19498530395646
0.0035                    -0.0085                  293.18800801825637
0.0035                    -0.0075                  293.18436533697405
0.0035                    -0.0065                  293.1835031466899
0.0035                    -0.0055                  293.18627676655444
0.0035                    -0.0045                  293.2441255502243
0.0035                    -0.0035                  293.3702637070983
0.0035                    -0.0025                  294.0858939983893
0.0035                    -0.0015                  295.0012422510965
0.0035                    -5.0E-4                  295.44806198574963
0.0035                    5.0E-4                   295.5168037848363
0.0035                    0.0015                   295.4059345703314
0.0035                    0.0025                   295.320665187953
0.0035                    0.0035                   295.1703192925486
0.0035                    0.0045                   295.17195918020445
0.0035                    0.0055                   295.2308389714082
0.0035                    0.0065                   295.38837594790834
0.0035                    0.0075                   295.6139272955876
0.0035                    0.0085                   295.9226527708808
0.0035                    0.0095                   296.32492775799847
0.0035                    0.0105                   296.41025947360475
0.0035                    0.0115                   296.7072107905476
0.0035                    0.0125                   296.52182632067866
0.0035                    0.0135                   296.35099825476027
0.0035                    0.0145                   296.274808034179
0.0035                    0.0155                   299.49948871830424
0.0035                    0.0165                   303.99768388208525
0.0035                    0.0175                   304.06040678687475
0.0035                    0.0185                   304.1041000998329
0.0035                    0.0195                   304.1483026398263
0.0035                    0.0205                   304.1949644518628
0.0035                    0.0215                   304.2345774268596
0.0035                    0.0225                   304.27370358096397
0.0035                    0.0235                   304.3114822815653
0.0035                    0.0245                   304.34303903454344
0.0035                    0.0255                   304.3729225095875
0.0035                    0.0265                   304.3948170252522
0.0035                    0.0275                   304.41424054652305
0.0035                    0.0285                   304.43351396519415
0.0035                    0.0295                   304.4411276915851
0.0035                    0.0305                   304.44771117103545
0.0035                    0.0315                   304.45390743136727
0.0045                    -0.0315                  303.670722022279
0.0045                    -0.0305                  303.6639790270769
0.0045                    -0.0295                  303.65723603187485
0.0045                    -0.0285                  303.6367965018821
0.0045                    -0.0275                  303.6151432852871
0.0045                    -0.0265                  303.5831502281735
0.0045                    -0.0255                  303.54838892154646
0.0045                    -0.0245                  303.5038098858415
0.0045                    -0.0235                  303.45341849453104
0.0045                    -0.0225                  303.3965171515713
0.0045                    -0.0215                  303.32438107878426
0.0045                    -0.0205                  303.23544051775264
0.0045                    -0.0195                  303.1203472194285
0.0045                    -0.0185                  302.9674962004734
0.0045                    -0.0175                  298.68313659847985
0.0045                    -0.0165                  295.129507138307
0.0045                    -0.0155                  294.3203772754938
0.0045                    -0.0145                  293.5926409435939
0.0045                    -0.0135                  293.36362390347625
0.0045                    -0.0125                  293.31957049576204
0.0045                    -0.0115                  293.2888136341798
0.0045                    -0.0105                  293.2242152988092
0.0045                    -0.0095                  293.2213889857042
0.0045                    -0.0085                  293.20431729330693
0.0045                    -0.0075                  293.1976473154491
0.0045                    -0.0065                  293.1955136562057
0.0045                    -0.0055                  293.1966261528466
0.0045                    -0.0045                  293.2006205608541
0.0045                    -0.0035                  293.237059790349
0.0045                    -0.0025                  293.35527736879425
0.0045                    -0.0015                  293.5339193744914
0.0045                    -5.0E-4                  293.6878786216456
0.0045                    5.0E-4                   293.73317037475726
0.0045                    0.0015                   293.89915288010343
0.0045                    0.0025                   293.8723793365557
0.0045                    0.0035                   293.9148515507417
0.0045                    0.0045                   293.9637577497575
0.0045                    0.0055                   294.0795104010594
0.0045                    0.0065                   294.23484615754006
0.0045                    0.0075                   294.41089150348597
0.0045                    0.0085                   294.6905479483917
0.0045                    0.0095                   295.00856102188663
0.0045                    0.0105                   295.39193504786334
0.0045                    0.0115                   295.72332191061747
0.0045                    0.0125                   296.11959144641514
0.0045                    0.0135                   296.0457361237324
0.0045                    0.0145                   295.91123128699843
0.0045                    0.0155                   296.3066180270763
0.0045                    0.0165                   300.3647069046358
0.0045                    0.0175                   304.0261102238779
0.0045                    0.0185                   304.06955139051774
0.0045                    0.0195                   304.12254735052625
0.0045                    0.0205                   304.1720648138571
0.0045                    0.0215                   304.2238658390643
0.0045                    0.0225                   304.2641464195459
0.0045                    0.0235                   304.3039552417285
0.0045                    0.0245                   304.33578448460514
0.0045                    0.0255                   304.3671968960775
0.0045                    0.0265                   304.3898908357858
0.0045                    0.0275                   304.40916425445687
0.0045                    0.0285                   304.42843767312786
0.0045                    0.0295                   304.4363076307583
0.0045                    0.0305                   304.4431664673193
0.0045                    0.0315                   304.4499920911299
0.0055                    -0.0315                  303.67454136687394
0.0055                    -0.0305                  303.6676011067309
0.0055                    -0.0295                  303.66024808721556
0.0055                    -0.0285                  303.6392074429988
0.0055                    -0.0275                  303.6190622541587
0.0055                    -0.0265                  303.5877699380299
0.0055                    -0.0255                  303.5545208096939
0.0055                    -0.0245                  303.51115251446464
0.0055                    -0.0235                  303.45860754464854
0.0055                    -0.0225                  303.39837668688523
0.0055                    -0.0215                  303.32435151848574
0.0055                    -0.0205                  303.2295663199622
0.0055                    -0.0195                  303.10188160893466
0.0055                    -0.0185                  302.8522482892517
0.0055                    -0.0175                  297.7834478066852
0.0055                    -0.0165                  293.90732335015514
0.0055                    -0.0155                  293.5905050043315
0.0055                    -0.0145                  293.55812481527914
0.0055                    -0.0135                  294.1178409789674
0.0055                    -0.0125                  294.661998626855
0.0055                    -0.0115                  294.50045221199514
0.0055                    -0.0105                  294.41651900117574
0.0055                    -0.0095                  293.4514433679848
0.0055                    -0.0085                  293.2295629706741
0.0055                    -0.0075                  293.21478686447443
0.0055                    -0.0065                  293.2105729615402
0.0055                    -0.0055                  293.21022128349904
0.0055                    -0.0045                  293.21152282176706
0.0055                    -0.0035                  293.2204997025026
0.0055                    -0.0025                  293.2531041504586
0.0055                    -0.0015                  293.3099082950189
0.0055                    -5.0E-4                  293.31500888313604
0.0055                    5.0E-4                   293.31023637377257
0.0055                    0.0015                   293.3440046321806
0.0055                    0.0025                   293.38634722507925
0.0055                    0.0035                   293.392985884194
0.0055                    0.0045                   293.44937775940406
0.0055                    0.0055                   293.500026729142
0.0055                    0.0065                   293.59297441834264
0.0055                    0.0075                   293.7048918433677
0.0055                    0.0085                   293.8868881697258
0.0055                    0.0095                   294.1273511217644
0.0055                    0.0105                   294.44001003885217
0.0055                    0.0115                   294.6922514938178
0.0055                    0.0125                   295.1144725521028
0.0055                    0.0135                   295.32465685855277
0.0055                    0.0145                   295.50786738639715
0.0055                    0.0155                   295.56587707265874
0.0055                    0.0165                   299.1219573024749
0.0055                    0.0175                   303.95344389583
0.0055                    0.0185                   304.02692618140355
0.0055                    0.0195                   304.09244712152275
0.0055                    0.0205                   304.1529709085708
0.0055                    0.0215                   304.2060193398744
0.0055                    0.0225                   304.2528753372977
0.0055                    0.0235                   304.2938877912821
0.0055                    0.0245                   304.3298301797308
0.0055                    0.0255                   304.36017868388944
0.0055                    0.0265                   304.3832959256475
0.0055                    0.0275                   304.4035786595829
0.0055                    0.0285                   304.4233613810617
0.0055                    0.0295                   304.4314049268556
0.0055                    0.0305                   304.43712664005557
0.0055                    0.0315                   304.4428483532556
0.0065                    -0.0315                  303.6783643178533
0.0065                    -0.0305                  303.6714240577103
0.0065                    -0.0295                  303.66402089568703
0.0065                    -0.0285                  303.64383541970636
0.0065                    -0.0275                  303.6239293649195
0.0065                    -0.0265                  303.59431901188884
0.0065                    -0.0255                  303.5607608784306
0.0065                    -0.0245                  303.51721105817336
0.0065                    -0.0235                  303.4666164953866
0.0065                    -0.0225                  303.40719628658326
0.0065                    -0.0215                  303.3364455147344
0.0065                    -0.0205                  303.2493518498189
0.0065                    -0.0195                  303.1435968904198
0.0065                    -0.0185                  299.5205911387071
0.0065                    -0.0175                  294.63890101141703
0.0065                    -0.0165                  293.63969198404806
0.0065                    -0.0155                  293.86292507233406
0.0065                    -0.0145                  294.8827178081201
0.0065                    -0.0135                  295.84695758789337
0.0065                    -0.0125                  296.28019355493734
0.0065                    -0.0115                  296.2607582132299
0.0065                    -0.0105                  296.18539584458495
0.0065                    -0.0095                  294.7994778488646
0.0065                    -0.0085                  293.3238896200061
0.0065                    -0.0075                  293.23979111072117
0.0065                    -0.0065                  293.23020249493936
0.0065                    -0.0055                  293.22966961594506
0.0065                    -0.0045                  293.2296972712918
0.0065                    -0.0035                  293.23310808107885
0.0065                    -0.0025                  293.2427488617593
0.0065                    -0.0015                  293.2563076714872
0.0065                    -5.0E-4                  293.2942790384988
0.0065                    5.0E-4                   293.4187407403343
0.0065                    0.0015                   293.5048037007095
0.0065                    0.0025                   293.5610164685082
0.0065                    0.0035                   293.52267848465397
0.0065                    0.0045                   293.5673162506349
0.0065                    0.0055                   293.52982941765947
0.0065                    0.0065                   293.5118033200064
0.0065                    0.0075                   293.61526197444294
0.0065                    0.0085                   293.6471264356394
0.0065                    0.0095                   293.7500914541881
0.0065                    0.0105                   293.88603220807187
0.0065                    0.0115                   294.11440393151395