% Model:              模型结构导入comsolBench.mph
% Version:            COMSOL 6.2.0.339
% Date:               May 28 2026, 17:36
% Dimension:          2
% Nodes:              4096
% Expressions:        1
% Description:        温度
% Length unit:        m
% x                       y                        T (K)
5.0E-4                    -0.0315                  300.04087683413
5.0E-4                    -0.0305                  300.03972591039565
5.0E-4                    -0.0295                  300.0385749866613
5.0E-4                    -0.0285                  300.0374240629269
5.0E-4                    -0.0275                  300.03664231630535
5.0E-4                    -0.0265                  300.0363335077788
5.0E-4                    -0.0255                  300.03602469925227
5.0E-4                    -0.0245                  300.03613706296767
5.0E-4                    -0.0235                  300.03554762664527
5.0E-4                    -0.0225                  300.0347128631612
5.0E-4                    -0.0215                  300.03478356756943
5.0E-4                    -0.0205                  300.0340580927945
5.0E-4                    -0.0195                  300.03390623371297
5.0E-4                    -0.0185                  300.033393844212
5.0E-4                    -0.0175                  300.03325030464487
5.0E-4                    -0.0165                  300.0334509263332
5.0E-4                    -0.0155                  300.03457542362867
5.0E-4                    -0.0145                  300.06593910807885
5.0E-4                    -0.0135                  299.62773529101787
5.0E-4                    -0.0125                  299.196751230258
5.0E-4                    -0.0115                  298.52784133314475
5.0E-4                    -0.0105                  296.77102192642576
5.0E-4                    -0.0095                  293.2848536003391
5.0E-4                    -0.0085                  293.1506043187427
5.0E-4                    -0.0075                  293.1500472469116
5.0E-4                    -0.0065                  293.2744139996486
5.0E-4                    -0.0055                  295.24104040197534
5.0E-4                    -0.0045                  295.87472070428817
5.0E-4                    -0.0035                  296.0913916226065
5.0E-4                    -0.0025                  296.1571709536854
5.0E-4                    -0.0015                  296.21851416341815
5.0E-4                    -5.0E-4                  296.85249049995093
5.0E-4                    5.0E-4                   297.8778694033041
5.0E-4                    0.0015                   297.9135297164702
5.0E-4                    0.0025                   297.971022288399
5.0E-4                    0.0035                   298.0499997641133
5.0E-4                    0.0045                   298.1493999011902
5.0E-4                    0.0055                   298.2611317232437
5.0E-4                    0.0065                   298.3887199729787
5.0E-4                    0.0075                   298.52181583406366
5.0E-4                    0.0085                   298.66706148576316
5.0E-4                    0.0095                   298.8151105360715
5.0E-4                    0.0105                   298.96315958637973
5.0E-4                    0.0115                   299.1134730677807
5.0E-4                    0.0125                   299.253396549185
5.0E-4                    0.0135                   299.39332003058945
5.0E-4                    0.0145                   299.5332435119938
5.0E-4                    0.0155                   299.65997024528576
5.0E-4                    0.0165                   299.7740689073309
5.0E-4                    0.0175                   299.88816756937604
5.0E-4                    0.0185                   300.0022662314212
5.0E-4                    0.0195                   300.10304138251587
5.0E-4                    0.0205                   300.1834894818038
5.0E-4                    0.0215                   300.2639375810917
5.0E-4                    0.0225                   300.3443856803796
5.0E-4                    0.0235                   300.41838158780627
5.0E-4                    0.0245                   300.4695420748564
5.0E-4                    0.0255                   300.51776780115415
5.0E-4                    0.0265                   300.56599352745184
5.0E-4                    0.0275                   300.61291065963496
5.0E-4                    0.0285                   300.63626559057207
5.0E-4                    0.0295                   300.65250356438554
5.0E-4                    0.0305                   300.6687415381991
5.0E-4                    0.0315                   300.6849795120126
0.0015                    -0.0315                  300.02965842127537
0.0015                    -0.0305                  300.0323390030426
0.0015                    -0.0295                  300.0311880793082
0.0015                    -0.0285                  300.03007177272093
0.0015                    -0.0275                  300.02905278692697
0.0015                    -0.0265                  300.0286137002759
0.0015                    -0.0255                  300.0283048917493
0.0015                    -0.0245                  300.0289764629464
0.0015                    -0.0235                  300.0293055205789
0.0015                    -0.0225                  300.02890956894225
0.0015                    -0.0215                  300.0295955381937
0.0015                    -0.0205                  300.0298042962286
0.0015                    -0.0195                  300.02916683270183
0.0015                    -0.0185                  300.0282114870055
0.0015                    -0.0175                  300.02770893715297
0.0015                    -0.0165                  300.0277115627477
0.0015                    -0.0155                  300.0281247613179
0.0015                    -0.0145                  300.03035002994
0.0015                    -0.0135                  299.49258102300746
0.0015                    -0.0125                  298.26398839877925
0.0015                    -0.0115                  297.07241574213907
0.0015                    -0.0105                  295.8862188654564
0.0015                    -0.0095                  293.3733209015493
0.0015                    -0.0085                  293.15559422809105
0.0015                    -0.0075                  293.1476579693585
0.0015                    -0.0065                  293.3444956594761
0.0015                    -0.0055                  294.9533231801706
0.0015                    -0.0045                  295.6712588004996
0.0015                    -0.0035                  296.13077880976573
0.0015                    -0.0025                  296.3059537710168
0.0015                    -0.0015                  296.2998673386149
0.0015                    -5.0E-4                  296.6329607019696
0.0015                    5.0E-4                   297.8456958627754
0.0015                    0.0015                   297.8869340878614
0.0015                    0.0025                   297.9466689176246
0.0015                    0.0035                   298.0296878265239
0.0015                    0.0045                   298.131450998477
0.0015                    0.0055                   298.24887595142445
0.0015                    0.0065                   298.3704956654693
0.0015                    0.0075                   298.5060912444982
0.0015                    0.0085                   298.6572455521509
0.0015                    0.0095                   298.80662758788606
0.0015                    0.0105                   298.95844245624187
0.0015                    0.0115                   299.112506157471
0.0015                    0.0125                   299.2568036648627
0.0015                    0.0135                   299.39672714626704
0.0015                    0.0145                   299.5320117936405
0.0015                    0.0155                   299.6655423541901
0.0015                    0.0165                   299.78370158853534
0.0015                    0.0175                   299.8978002505804
0.0015                    0.0185                   300.0081523465993
0.0015                    0.0195                   300.1054959416059
0.0015                    0.0205                   300.1931600534766
0.0015                    0.0215                   300.2736081527646
0.0015                    0.0225                   300.3528692848364
0.0015                    0.0235                   300.41812528224483
0.0015                    0.0245                   300.4784930608553
0.0015                    0.0255                   300.52671878715296
0.0015                    0.0265                   300.5749445134507
0.0015                    0.0275                   300.6124613271794
0.0015                    0.0285                   300.6438137961743
0.0015                    0.0295                   300.66021204674587
0.0015                    0.0305                   300.67645002055934
0.0015                    0.0315                   300.6885124075388
0.0025                    -0.0315                  300.01839479142586
0.0025                    -0.0305                  300.02121102417755
0.0025                    -0.0295                  300.02380117195514
0.0025                    -0.0285                  300.0227399560281
0.0025                    -0.0275                  300.0217209702341
0.0025                    -0.0265                  300.020893892773
0.0025                    -0.0255                  300.0210955449508
0.0025                    -0.0245                  300.0218158629251
0.0025                    -0.0235                  300.0214133519307
0.0025                    -0.0225                  300.0201153955537
0.0025                    -0.0215                  300.018367469289
0.0025                    -0.0205                  300.01827186114235
0.0025                    -0.0195                  300.01701854620615
0.0025                    -0.0185                  300.0178723298617
0.0025                    -0.0175                  300.0172050132129
0.0025                    -0.0165                  300.0162637152909
0.0025                    -0.0155                  300.0159379932211
0.0025                    -0.0145                  299.8444577768764
0.0025                    -0.0135                  298.70865099459286
0.0025                    -0.0125                  297.36046969166864
0.0025                    -0.0115                  296.43736934241906
0.0025                    -0.0105                  295.5044958434982
0.0025                    -0.0095                  293.7994564700783
0.0025                    -0.0085                  293.1733146946972
0.0025                    -0.0075                  293.1536110722663
0.0025                    -0.0065                  293.47456261995814
0.0025                    -0.0055                  294.6526732154514
0.0025                    -0.0045                  295.38546414661016
0.0025                    -0.0035                  295.7969241155822
0.0025                    -0.0025                  296.0739560931452
0.0025                    -0.0015                  296.3287631761446
0.0025                    -5.0E-4                  297.1080452142135
0.0025                    5.0E-4                   297.7761996149867
0.0025                    0.0015                   297.8404623660655
0.0025                    0.0025                   297.89563551413215
0.0025                    0.0035                   297.9840032405991
0.0025                    0.0045                   298.0904516797771
0.0025                    0.0055                   298.21456063582707
0.0025                    0.0065                   298.34559362039823
0.0025                    0.0075                   298.4874121640779
0.0025                    0.0085                   298.637708694646
0.0025                    0.0095                   298.7969918343886
0.0025                    0.0105                   298.9546635352221
0.0025                    0.0115                   299.1087272364512
0.0025                    0.0125                   299.2602107805402
0.0025                    0.0135                   299.39722545620873
0.0025                    0.0145                   299.53075601675835
0.0025                    0.0155                   299.66428657730796
0.0025                    0.0165                   299.7933342697396
0.0025                    0.0175                   299.9074329317848
0.0025                    0.0185                   300.00854619782024
0.0025                    0.0195                   300.10588979282693
0.0025                    0.0205                   300.2028306251495
0.0025                    0.0215                   300.28327872443737
0.0025                    0.0225                   300.352612979275
0.0025                    0.0235                   300.4178689766834
0.0025                    0.0245                   300.48312497409177
0.0025                    0.0255                   300.5356697731518
0.0025                    0.0265                   300.5806595257291
0.0025                    0.0275                   300.612011994724
0.0025                    0.0285                   300.6433644637188
0.0025                    0.0295                   300.6679205291062
0.0025                    0.0305                   300.68015388330844
0.0025                    0.0315                   300.6919598194536
0.0035                    -0.0315                  300.0071311615763
0.0035                    -0.0305                  300.00935665888585
0.0035                    -0.0295                  300.00623008840495
0.0035                    -0.0285                  300.00589365154866
0.0035                    -0.0275                  300.00723402729807
0.0035                    -0.0265                  300.0084504301246
0.0035                    -0.0255                  300.00797772910994
0.0035                    -0.0245                  300.0055788383371
0.0035                    -0.0235                  300.0034583559794
0.0035                    -0.0225                  300.00478154449485
0.0035                    -0.0215                  300.0043126775133
0.0035                    -0.0205                  300.0046114887044
0.0035                    -0.0195                  300.00349167041287
0.0035                    -0.0185                  300.00175957801645
0.0035                    -0.0175                  300.00137669452573
0.0035                    -0.0165                  299.9993580001824
0.0035                    -0.0155                  299.9953224160547
0.0035                    -0.0145                  299.39392694207794
0.0035                    -0.0135                  297.82554621275597
0.0035                    -0.0125                  296.6148234220216
0.0035                    -0.0115                  296.114442757491
0.0035                    -0.0105                  295.1050408157323
0.0035                    -0.0095                  293.88508141405083
0.0035                    -0.0085                  293.2061010529189
0.0035                    -0.0075                  293.19279463320885
0.0035                    -0.0065                  293.5038845284111
0.0035                    -0.0055                  294.5131217400385
0.0035                    -0.0045                  295.0113667249723
0.0035                    -0.0035                  295.05473483999145
0.0035                    -0.0025                  294.97507602420285
0.0035                    -0.0015                  294.995257765341
0.0035                    -5.0E-4                  295.1231131260793
0.0035                    5.0E-4                   295.5526812954497
0.0035                    0.0015                   296.62938465095846
0.0035                    0.0025                   297.7612157263714
0.0035                    0.0035                   297.91283291722704
0.0035                    0.0045                   298.04549357749204
0.0035                    0.0055                   298.16339701596485
0.0035                    0.0065                   298.29474310189255
0.0035                    0.0075                   298.44563112776086
0.0035                    0.0085                   298.59836361990824
0.0035                    0.0095                   298.7772369763919
0.0035                    0.0105                   298.93762798823997
0.0035                    0.0115                   299.09536176286485
0.0035                    0.0125                   299.2606825031421
0.0035                    0.0135                   299.4002347028091
0.0035                    0.0145                   299.5311360610418
0.0035                    0.0155                   299.6630308004258
0.0035                    0.0165                   299.79656136097543
0.0035                    0.0175                   299.9115964540345
0.0035                    0.0185                   300.0089400490412
0.0035                    0.0195                   300.1062836440479
0.0035                    0.0205                   300.2036272390545
0.0035                    0.0215                   300.2871006763053
0.0035                    0.0225                   300.3523566737136
0.0035                    0.0235                   300.41761267112196
0.0035                    0.0245                   300.48286866853033
0.0035                    0.0255                   300.5446207591508
0.0035                    0.0265                   300.5802101932737
0.0035                    0.0275                   300.61335240513927
0.0035                    0.0285                   300.6482368752375
0.0035                    0.0295                   300.6748409174187
0.0035                    0.0305                   300.6837866948845
0.0035                    0.0315                   300.69540723136845
0.0045                    -0.0315                  299.99057779222386
0.0045                    -0.0305                  299.98745122174296
0.0045                    -0.0295                  299.984324651262
0.0045                    -0.0285                  299.98295856095706
0.0045                    -0.0275                  299.9842989367065
0.0045                    -0.0265                  299.9844179706138
0.0045                    -0.0255                  299.98500252955864
0.0045                    -0.0245                  299.98635414050983
0.0045                    -0.0235                  299.9862252734901
0.0045                    -0.0225                  299.98433652324775
0.0045                    -0.0215                  299.9837739687178
0.0045                    -0.0205                  299.9828237465656
0.0045                    -0.0195                  299.98222130570366
0.0045                    -0.0185                  299.9819649629931
0.0045                    -0.0175                  299.9816430654077
0.0045                    -0.0165                  299.97963429906497
0.0045                    -0.0155                  299.96700154456977
0.0045                    -0.0145                  298.72473472355614
0.0045                    -0.0135                  296.9510373105227
0.0045                    -0.0125                  296.21655362810236
0.0045                    -0.0115                  295.841322381831
0.0045                    -0.0105                  294.8805646403609
0.0045                    -0.0095                  293.83672059680174
0.0045                    -0.0085                  293.23248875556163
0.0045                    -0.0075                  293.21272319871395
0.0045                    -0.0065                  293.53329567520416
0.0045                    -0.0055                  294.27375940112245
0.0045                    -0.0045                  294.6264911560035
0.0045                    -0.0035                  294.4793976292816
0.0045                    -0.0025                  294.39386071485575
0.0045                    -0.0015                  294.3338341243544
0.0045                    -5.0E-4                  294.2718267471261
0.0045                    5.0E-4                   294.3338657888814
0.0045                    0.0015                   294.3546005983904
0.0045                    0.0025                   294.86103639681255
0.0045                    0.0035                   296.12261944476757
0.0045                    0.0045                   297.99664346679947
0.0045                    0.0055                   298.0899585739362
0.0045                    0.0065                   298.22776176202905
0.0045                    0.0075                   298.3982015808341
0.0045                    0.0085                   298.5766500911946
0.0045                    0.0095                   298.75552344767834
0.0045                    0.0105                   298.92523196596585
0.0045                    0.0115                   299.09559505448027
0.0045                    0.0125                   299.26193635647076
0.0045                    0.0135                   299.41496328492434
0.0045                    0.0145                   299.5458646431571
0.0045                    0.0155                   299.67676600138986
0.0045                    0.0165                   299.8087042374664
0.0045                    0.0175                   299.9242498253998
0.0045                    0.0185                   300.02301870551037
0.0045                    0.0195                   300.12137946512894
0.0045                    0.0205                   300.21974022474757
0.0045                    0.0215                   300.3017843043703
0.0045                    0.0225                   300.3667295141812
0.0045                    0.0235                   300.43060960209044
0.0045                    0.0245                   300.4944896899997
0.0045                    0.0255                   300.55587716330297
0.0045                    0.0265                   300.59052859275164
0.0045                    0.0275                   300.62541306284993
0.0045                    0.0285                   300.6602975329481
0.0045                    0.0295                   300.6842141211006
0.0045                    0.0305                   300.69315989856625
0.0045                    0.0315                   300.70210567603203
0.0055                    -0.0315                  299.95816082493087
0.0055                    -0.0305                  299.9616390674051
0.0055                    -0.0295                  299.96241921411905
0.0055                    -0.0285                  299.9600234703655
0.0055                    -0.0275                  299.9606880247989
0.0055                    -0.0265                  299.9603855111029
0.0055                    -0.0255                  299.9605265075081
0.0055                    -0.0245                  299.9600554021969
0.0055                    -0.0235                  299.95942567669863
0.0055                    -0.0225                  299.9590655802167
0.0055                    -0.0215                  299.95874618428724
0.0055                    -0.0205                  299.95748283727653
0.0055                    -0.0195                  299.95670711043954
0.0055                    -0.0185                  299.95651824484094
0.0055                    -0.0175                  299.9581185862147
0.0055                    -0.0165                  299.96174725745095
0.0055                    -0.0155                  299.10067592148914
0.0055                    -0.0145                  297.4956475827194
0.0055                    -0.0135                  296.4504236746375
0.0055                    -0.0125                  295.91719966349507
0.0055                    -0.0115                  295.67122101272446
0.0055                    -0.0105                  294.7726592589348
0.0055                    -0.0095                  293.9017895413838
0.0055                    -0.0085                  293.2218648982875
0.0055                    -0.0075                  293.30253999006857
0.0055                    -0.0065                  293.5128198824936
0.0055                    -0.0055                  294.1568815272482
0.0055                    -0.0045                  294.4761707549579
0.0055                    -0.0035                  294.40563092282156
0.0055                    -0.0025                  294.347931022836
0.0055                    -0.0015                  294.330714439166
0.0055                    -5.0E-4                  294.30981187707584
0.0055                    5.0E-4                   294.26475663067936
0.0055                    0.0015                   294.2117578235168
0.0055                    0.0025                   294.1358832308702
0.0055                    0.0035                   294.3253233159372
0.0055                    0.0045                   296.64764897612184
0.0055                    0.0055                   297.95568421438486
0.0055                    0.0065                   298.1222356526372
0.0055                    0.0075                   298.3232406867713
0.0055                    0.0085                   298.5342342586854
0.0055                    0.0095                   298.72841739126125
0.0055                    0.0105                   298.9233255370149
0.0055                    0.0115                   299.10075257711225
0.0055                    0.0125                   299.26319020979935
0.0055                    0.0135                   299.42072870809534
0.0055                    0.0145                   299.5605932252724
0.0055                    0.0155                   299.6933874000368
0.0055                    0.0165                   299.82666429965445
0.0055                    0.0175                   299.9366909427632
0.0055                    0.0185                   300.0410226780631
0.0055                    0.0195                   300.1393834376818
0.0055                    0.0205                   300.2362371297962
0.0055                    0.0215                   300.3125094133175
0.0055                    0.0225                   300.3844148951716
0.0055                    0.0235                   300.44829498308076
0.0055                    0.0245                   300.5097991376807
0.0055                    0.0255                   300.56914357125754
0.0055                    0.0265                   300.6044858719443
0.0055                    0.0275                   300.6378550123632
0.0055                    0.0285                   300.67235819065877
0.0055                    0.0295                   300.69358732478236
0.0055                    0.0305                   300.70385990536226
0.0055                    0.0315                   300.71594605295627
0.0065                    -0.0315                  299.9249125170474
0.0065                    -0.0305                  299.9283907595216
0.0065                    -0.0295                  299.9318690019959
0.0065                    -0.0285                  299.9337825167476
0.0065                    -0.0275                  299.93269526056275
0.0065                    -0.0265                  299.93045728689174
0.0065                    -0.0255                  299.92877447758593
0.0065                    -0.0245                  299.93060569187264
0.0065                    -0.0235                  299.93031522387736
0.0065                    -0.0225                  299.92970547851223
0.0065                    -0.0215                  299.9291392708003
0.0065                    -0.0205                  299.927718102883
0.0065                    -0.0195                  299.92540260736206
0.0065                    -0.0185                  299.9242624605806
0.0065                    -0.0175                  299.92516106373904
0.0065                    -0.0165                  299.5055373187513
0.0065                    -0.0155                  298.0539808947258
0.0065                    -0.0145                  296.82026519974437
0.0065                    -0.0135                  296.04805248250756
0.0065                    -0.0125                  295.7176867171954
0.0065                    -0.0115                  295.4945422804555
0.0065                    -0.0105                  294.6489118464958
0.0065                    -0.0095                  293.8291961907628
0.0065                    -0.0085                  293.307036710946
0.0065                    -0.0075                  293.28453507550057
0.0065                    -0.0065                  293.5692763569284
0.0065                    -0.0055                  294.0836848621632
0.0065                    -0.0045                  294.3296571121263
0.0065                    -0.0035                  294.44535197749747
0.0065                    -0.0025                  294.39496264198954
0.0065                    -0.0015                  294.3881028695257
0.0065                    -5.0E-4                  294.379571977189
0.0065                    5.0E-4                   294.3443095026146
0.0065                    0.0015                   294.26586721259656
0.0065                    0.0025                   294.16502629951077
0.0065                    0.0035                   294.06495505130664
0.0065                    0.0045                   295.2115279845186
0.0065                    0.0055                   297.6867173018713
0.0065                    0.0065                   297.97978162322295
0.0065                    0.0075                   298.24460037294034
0.0065                    0.0085                   298.487132848279
0.0065                    0.0095                   298.71334526957605
0.0065                    0.0105                   298.9114988879794
0.0065                    0.0115                   299.1075512540755