% Model:              模型结构导入comsolBench.mph
% Version:            COMSOL 6.2.0.339
% Date:               May 29 2026, 11:31
% Dimension:          2
% Nodes:              4096
% Expressions:        1
% Description:        温度
% Length unit:        m
% x                       y                        T (K)
5.0E-4                    -0.0315                  297.2913850335304
5.0E-4                    -0.0305                  297.28017386984806
5.0E-4                    -0.0295                  297.2597774958693
5.0E-4                    -0.0285                  297.22555332886395
5.0E-4                    -0.0275                  297.17880519038886
5.0E-4                    -0.0265                  297.12169805179457
5.0E-4                    -0.0255                  297.06446064982936
5.0E-4                    -0.0245                  294.5336621810003
5.0E-4                    -0.0235                  293.1565661923171
5.0E-4                    -0.0225                  293.1652923448682
5.0E-4                    -0.0215                  293.2531692170025
5.0E-4                    -0.0205                  293.6061458696492
5.0E-4                    -0.0195                  293.67550420108023
5.0E-4                    -0.0185                  293.6721161515019
5.0E-4                    -0.0175                  293.65794437160866
5.0E-4                    -0.0165                  293.2630990753857
5.0E-4                    -0.0155                  293.15606214201756
5.0E-4                    -0.0145                  293.1538414481164
5.0E-4                    -0.0135                  293.1532382424297
5.0E-4                    -0.0125                  293.15287018950266
5.0E-4                    -0.0115                  293.15267971667686
5.0E-4                    -0.0105                  293.1526008153752
5.0E-4                    -0.0095                  293.1528695511242
5.0E-4                    -0.0085                  293.16144125585276
5.0E-4                    -0.0075                  295.3160503593856
5.0E-4                    -0.0065                  296.76680456005136
5.0E-4                    -0.0055                  296.77650780285546
5.0E-4                    -0.0045                  296.7265101192944
5.0E-4                    -0.0035                  296.68908801877046
5.0E-4                    -0.0025                  296.6611152621541
5.0E-4                    -0.0015                  296.62351110309737
5.0E-4                    -5.0E-4                  296.5867877836423
5.0E-4                    5.0E-4                   296.55524359179566
5.0E-4                    0.0015                   296.52227797207433
5.0E-4                    0.0025                   296.5068462025803
5.0E-4                    0.0035                   296.5260468271256
5.0E-4                    0.0045                   296.55740992634605
5.0E-4                    0.0055                   296.56957812571954
5.0E-4                    0.0065                   296.5643096585556
5.0E-4                    0.0075                   296.5269779083004
5.0E-4                    0.0085                   296.4705158943028
5.0E-4                    0.0095                   296.5066918902942
5.0E-4                    0.0105                   296.78799131034066
5.0E-4                    0.0115                   297.4541000188576
5.0E-4                    0.0125                   298.0868884525748
5.0E-4                    0.0135                   298.2668436646885
5.0E-4                    0.0145                   298.2870050114501
5.0E-4                    0.0155                   298.3218109983262
5.0E-4                    0.0165                   298.3652229479406
5.0E-4                    0.0175                   298.4138478525398
5.0E-4                    0.0185                   298.46310077768203
5.0E-4                    0.0195                   298.51076199339116
5.0E-4                    0.0205                   298.55754784641834
5.0E-4                    0.0215                   298.599306754831
5.0E-4                    0.0225                   298.63795238045
5.0E-4                    0.0235                   298.67659800606907
5.0E-4                    0.0245                   298.7071354084127
5.0E-4                    0.0255                   298.73239278531173
5.0E-4                    0.0265                   298.75765016221084
5.0E-4                    0.0275                   298.78260470729253
5.0E-4                    0.0285                   298.79661710642074
5.0E-4                    0.0295                   298.80565501375145
5.0E-4                    0.0305                   298.8146929210821
5.0E-4                    0.0315                   298.8237104939861
0.0015                    -0.0315                  297.29804288088815
0.0015                    -0.0305                  297.28777294476635
0.0015                    -0.0295                  297.2644114517889
0.0015                    -0.0285                  297.2323707924612
0.0015                    -0.0275                  297.18381858770255
0.0015                    -0.0265                  297.1206304247959
0.0015                    -0.0255                  297.03562719622676
0.0015                    -0.0245                  293.72367664069515
0.0015                    -0.0235                  293.16495589741976
0.0015                    -0.0225                  293.2113076453921
0.0015                    -0.0215                  293.4631975069586
0.0015                    -0.0205                  293.69559181577847
0.0015                    -0.0195                  293.6947853347198
0.0015                    -0.0185                  293.69074691249415
0.0015                    -0.0175                  293.6849920739798
0.0015                    -0.0165                  293.347993130671
0.0015                    -0.0155                  293.17397332349003
0.0015                    -0.0145                  293.1619443827934
0.0015                    -0.0135                  293.15989632100127
0.0015                    -0.0125                  293.15866457980417
0.0015                    -0.0115                  293.15804879513064
0.0015                    -0.0105                  293.1577942542687
0.0015                    -0.0095                  293.15807568641696
0.0015                    -0.0085                  293.1534474586974
0.0015                    -0.0075                  293.8589170016359
0.0015                    -0.0065                  295.7360692215103
0.0015                    -0.0055                  296.1110848285372
0.0015                    -0.0045                  296.07198925998347
0.0015                    -0.0035                  296.0446215089853
0.0015                    -0.0025                  295.97986779365374
0.0015                    -0.0015                  295.8978212373061
0.0015                    -5.0E-4                  295.8360660392998
0.0015                    5.0E-4                   295.7700089789262
0.0015                    0.0015                   295.7451959547226
0.0015                    0.0025                   295.74574054601686
0.0015                    0.0035                   295.7389991391178
0.0015                    0.0045                   295.76023247452673
0.0015                    0.0055                   295.79434335321037
0.0015                    0.0065                   295.71777617396936
0.0015                    0.0075                   295.5455400022021
0.0015                    0.0085                   295.3619082973267
0.0015                    0.0095                   295.2292529324516
0.0015                    0.0105                   295.47139072497407
0.0015                    0.0115                   296.109119684312
0.0015                    0.0125                   297.4958898416878
0.0015                    0.0135                   298.2386841130175
0.0015                    0.0145                   298.2681379238648
0.0015                    0.0155                   298.3075629490207
0.0015                    0.0165                   298.35741272309235
0.0015                    0.0175                   298.40864814930666
0.0015                    0.0185                   298.45941996348637
0.0015                    0.0195                   298.5090622045664
0.0015                    0.0205                   298.55410878730595
0.0015                    0.0215                   298.5984499517473
0.0015                    0.0225                   298.6379693957485
0.0015                    0.0235                   298.67290296451256
0.0015                    0.0245                   298.70608193593694
0.0015                    0.0255                   298.73281573424146
0.0015                    0.0265                   298.7580731111405
0.0015                    0.0275                   298.77853519042264
0.0015                    0.0285                   298.7968475057856
0.0015                    0.0295                   298.8063440600566
0.0015                    0.0305                   298.8153209641072
0.0015                    0.0315                   298.8210377299167
0.0025                    -0.0315                  297.30749193684676
0.0025                    -0.0305                  297.30154837074315
0.0025                    -0.0295                  297.27951377148423
0.0025                    -0.0285                  297.2478398952071
0.0025                    -0.0275                  297.20126641730286
0.0025                    -0.0265                  297.1348780093485
0.0025                    -0.0255                  297.0119685931715
0.0025                    -0.0245                  293.8193735114665
0.0025                    -0.0235                  293.1780904996586
0.0025                    -0.0225                  293.27228538071586
0.0025                    -0.0215                  293.5487707869715
0.0025                    -0.0205                  293.7125540268303
0.0025                    -0.0195                  293.71128476080617
0.0025                    -0.0185                  293.7072973316586
0.0025                    -0.0175                  293.7026138670103
0.0025                    -0.0165                  293.5176246342401
0.0025                    -0.0155                  293.2084804800669
0.0025                    -0.0145                  293.17380532396606
0.0025                    -0.0135                  293.16778884968676
0.0025                    -0.0125                  293.16516609321945
0.0025                    -0.0115                  293.16389576413684
0.0025                    -0.0105                  293.1633290082988
0.0025                    -0.0095                  293.16340076114005
0.0025                    -0.0085                  293.1631326858708
0.0025                    -0.0075                  293.3081660267305
0.0025                    -0.0065                  294.31285807066035
0.0025                    -0.0055                  295.07196531268795
0.0025                    -0.0045                  295.32868923711214
0.0025                    -0.0035                  295.39201752340745
0.0025                    -0.0025                  295.4730806051318
0.0025                    -0.0015                  295.5056544878625
0.0025                    -5.0E-4                  295.42259335973824
0.0025                    5.0E-4                   295.3804097979147
0.0025                    0.0015                   295.26565740289755
0.0025                    0.0025                   295.18068366406266
0.0025                    0.0035                   295.2049157313138
0.0025                    0.0045                   295.2225855471037
0.0025                    0.0055                   295.23013833848796
0.0025                    0.0065                   295.18367016807673
0.0025                    0.0075                   295.0866956761612
0.0025                    0.0085                   294.9790430994012
0.0025                    0.0095                   294.88768434170964
0.0025                    0.0105                   294.8731960943803
0.0025                    0.0115                   295.24767529240734
0.0025                    0.0125                   296.90324021940035
0.0025                    0.0135                   298.182667009921
0.0025                    0.0145                   298.22624103034155
0.0025                    0.0155                   298.2831891807059
0.0025                    0.0165                   298.34135152992474
0.0025                    0.0175                   298.3979323020485
0.0025                    0.0185                   298.4507985220132
0.0025                    0.0195                   298.5035847144178
0.0025                    0.0205                   298.5499514597439
0.0025                    0.0215                   298.5946188088338
0.0025                    0.0225                   298.6358820286137
0.0025                    0.0235                   298.6690632411687
0.0025                    0.0245                   298.7022422125931
0.0025                    0.0255                   298.7332386831711
0.0025                    0.0265                   298.7561533581899
0.0025                    0.0275                   298.7744656735528
0.0025                    0.0285                   298.7927779889157
0.0025                    0.0295                   298.8069314342283
0.0025                    0.0305                   298.81264820003776
0.0025                    0.0315                   298.81836496584737
0.0035                    -0.0315                  297.3255353789143
0.0035                    -0.0305                  297.3165451311364
0.0035                    -0.0295                  297.2976552019003
0.0035                    -0.0285                  297.27239205355863
0.0035                    -0.0275                  297.23256679344627
0.0035                    -0.0265                  297.18081547811994
0.0035                    -0.0255                  295.7234680345597
0.0035                    -0.0245                  293.66946116865574
0.0035                    -0.0235                  293.20455517410755
0.0035                    -0.0225                  293.33948960693675
0.0035                    -0.0215                  293.623465799343
0.0035                    -0.0205                  293.7278265444255
0.0035                    -0.0195                  293.72533377443517
0.0035                    -0.0185                  293.7204926123418
0.0035                    -0.0175                  293.71270739966934
0.0035                    -0.0165                  293.69507581895994
0.0035                    -0.0155                  293.3863359113824
0.0035                    -0.0145                  293.1945319853685
0.0035                    -0.0135                  293.1756964660194
0.0035                    -0.0125                  293.17231147981096
0.0035                    -0.0115                  293.1704034567813
0.0035                    -0.0105                  293.1694459490712
0.0035                    -0.0095                  293.169217747281
0.0035                    -0.0085                  293.1698631328056
0.0035                    -0.0075                  293.2039391426981
0.0035                    -0.0065                  293.3769753310279
0.0035                    -0.0055                  293.8877252231687
0.0035                    -0.0045                  294.2305104118567
0.0035                    -0.0035                  294.5028806809647
0.0035                    -0.0025                  294.5555852058252
0.0035                    -0.0015                  294.5882261066683
0.0035                    -5.0E-4                  294.62553583519224
0.0035                    5.0E-4                   294.6561492508282
0.0035                    0.0015                   294.637107595712
0.0035                    0.0025                   294.64077622422576
0.0035                    0.0035                   294.6654003353498
0.0035                    0.0045                   294.6972367327979
0.0035                    0.0055                   294.77582256540074
0.0035                    0.0065                   294.8848793557766
0.0035                    0.0075                   294.8985812639478
0.0035                    0.0085                   295.02517922245363
0.0035                    0.0095                   294.8680787857038
0.0035                    0.0105                   294.784892642955
0.0035                    0.0115                   294.7002564320078
0.0035                    0.0125                   295.96862484899515
0.0035                    0.0135                   298.07291111455436
0.0035                    0.0145                   298.1796580191267
0.0035                    0.0155                   298.25202523266233
0.0035                    0.0165                   298.32073226559237
0.0035                    0.0175                   298.3821419628496
0.0035                    0.0185                   298.4434149430901
0.0035                    0.0195                   298.49688642228256
0.0035                    0.0205                   298.5450080951706
0.0035                    0.0215                   298.58905779460736
0.0035                    0.0225                   298.6319683055207
0.0035                    0.0235                   298.6651665848741
0.0035                    0.0245                   298.6983648642275
0.0035                    0.0255                   298.73136921598183
0.0035                    0.0265                   298.7525071001192
0.0035                    0.0275                   298.7710069351857
0.0035                    0.0285                   298.7895067702522
0.0035                    0.0295                   298.8027787701576
0.0035                    0.0305                   298.8098099594353
0.0035                    0.0315                   298.81569220177795
0.0045                    -0.0315                  297.3450600335742
0.0045                    -0.0305                  297.33938180863015
0.0045                    -0.0295                  297.32426438989137
0.0045                    -0.0285                  297.30105319587597
0.0045                    -0.0275                  297.2698188160288
0.0045                    -0.0265                  297.2282980051487
0.0045                    -0.0255                  294.91699944350745
0.0045                    -0.0245                  293.38889339697516
0.0045                    -0.0235                  293.2152699147326
0.0045                    -0.0225                  293.4222014989142
0.0045                    -0.0215                  293.6838747963837
0.0045                    -0.0205                  293.74023748556965
0.0045                    -0.0195                  293.7365495181961
0.0045                    -0.0185                  293.73085213435394
0.0045                    -0.0175                  293.7229167211625
0.0045                    -0.0165                  293.7135336735571
0.0045                    -0.0155                  293.4834589752054
0.0045                    -0.0145                  293.2352000983901
0.0045                    -0.0135                  293.1864165516229
0.0045                    -0.0125                  293.18049217183403
0.0045                    -0.0115                  293.1778898627968
0.0045                    -0.0105                  293.176527385158
0.0045                    -0.0095                  293.1761276028797
0.0045                    -0.0085                  293.17683335101094
0.0045                    -0.0075                  293.18149142629113
0.0045                    -0.0065                  293.2509965878976
0.0045                    -0.0055                  293.3244175024606
0.0045                    -0.0045                  293.5627587870414
0.0045                    -0.0035                  293.6843784774957
0.0045                    -0.0025                  293.79572680340226
0.0045                    -0.0015                  293.8491838051167
0.0045                    -5.0E-4                  293.87174174386763
0.0045                    5.0E-4                   293.9221655781809
0.0045                    0.0015                   293.94830179414544
0.0045                    0.0025                   293.98734764963604
0.0045                    0.0035                   294.0457889379785
0.0045                    0.0045                   294.09015181290414
0.0045                    0.0055                   294.18292644265705
0.0045                    0.0065                   294.27982037966905
0.0045                    0.0075                   294.3793064704886
0.0045                    0.0085                   294.4901000893453
0.0045                    0.0095                   294.6441654530715
0.0045                    0.0105                   294.64185912886467
0.0045                    0.0115                   294.55172395238293
0.0045                    0.0125                   294.5532624668949
0.0045                    0.0135                   296.5044820860446
0.0045                    0.0145                   298.1369935193942
0.0045                    0.0155                   298.21954501554717
0.0045                    0.0165                   298.300939762398
0.0045                    0.0175                   298.3714647711014
0.0045                    0.0185                   298.43319645058375
0.0045                    0.0195                   298.48884419899423
0.0045                    0.0205                   298.53943821869535
0.0045                    0.0215                   298.582648080421
0.0045                    0.0225                   298.6258579421465
0.0045                    0.0235                   298.661252861781
0.0045                    0.0245                   298.6936292981343
0.0045                    0.0255                   298.72549812432635
0.0045                    0.0265                   298.7482459954968
0.0045                    0.0275                   298.76820495307027
0.0045                    0.0285                   298.78670478813683
0.0045                    0.0295                   298.79754893999916
0.0045                    0.0305                   298.8045801292768
0.0045                    0.0315                   298.8116060592997
0.0055                    -0.0315                  297.36886272524873
0.0055                    -0.0305                  297.36316294873257
0.0055                    -0.0295                  297.3504736256582
0.0055                    -0.0285                  297.3341321785389
0.0055                    -0.0275                  297.31267122139786
0.0055                    -0.0265                  296.61575402250855
0.0055                    -0.0255                  294.17671745188284
0.0055                    -0.0245                  293.35603400166815
0.0055                    -0.0235                  293.27605617797565
0.0055                    -0.0225                  293.53554069215795
0.0055                    -0.0215                  293.74681329420605
0.0055                    -0.0205                  293.747959043737
0.0055                    -0.0195                  293.7445109363232
0.0055                    -0.0185                  293.73849985251695
0.0055                    -0.0175                  293.7302530910996
0.0055                    -0.0165                  293.72118908118347
0.0055                    -0.0155                  293.50911187041334
0.0055                    -0.0145                  293.2578805496174
0.0055                    -0.0135                  293.1990568653631
0.0055                    -0.0125                  293.1897873002495
0.0055                    -0.0115                  293.18739577564065
0.0055                    -0.0105                  293.1851854281357
0.0055                    -0.0095                  293.1841381648693
0.0055                    -0.0085                  293.1844502809131
0.0055                    -0.0075                  293.188455115343
0.0055                    -0.0065                  293.191055873234
0.0055                    -0.0055                  293.21545924483866
0.0055                    -0.0045                  293.2285784506757
0.0055                    -0.0035                  293.2610671212486
0.0055                    -0.0025                  293.3329947899015
0.0055                    -0.0015                  293.3725700638086
0.0055                    -5.0E-4                  293.43604373350877
0.0055                    5.0E-4                   293.42067512239925
0.0055                    0.0015                   293.4487076237017
0.0055                    0.0025                   293.4710952937368
0.0055                    0.0035                   293.47666884830505
0.0055                    0.0045                   293.5475796877754
0.0055                    0.0055                   293.61769390554133
0.0055                    0.0065                   293.6966464469074
0.0055                    0.0075                   293.81747365752636
0.0055                    0.0085                   293.90895446949827
0.0055                    0.0095                   294.0173888496844
0.0055                    0.0105                   294.19528683216953
0.0055                    0.0115                   294.30196388238636
0.0055                    0.0125                   294.3129872882938
0.0055                    0.0135                   295.43113629380593
0.0055                    0.0145                   298.0599689031353
0.0055                    0.0155                   298.18820205629936
0.0055                    0.0165                   298.28386114677215
0.0055                    0.0175                   298.3601556463276
0.0055                    0.0185                   298.4249942571632
0.0055                    0.0195                   298.48298134871203
0.0055                    0.0205                   298.53341781307245
0.0055                    0.0215                   298.5765398192953
0.0055                    0.0225                   298.6193081075289
0.0055                    0.0235                   298.65588938028685
0.0055                    0.0245                   298.6879933515488
0.0055                    0.0255                   298.71850191079636
0.0055                    0.0265                   298.7412497819668
0.0055                    0.0275                   298.7639976531373
0.0055                    0.0285                   298.7839028060214
0.0055                    0.0295                   298.79231910984066
0.0055                    0.0305                   298.7992006664476
0.0055                    0.0315                   298.80605187430933
0.0065                    -0.0315                  297.39268917462005
0.0065                    -0.0305                  297.3878301931134
0.0065                    -0.0295                  297.3797925713799
0.0065                    -0.0285                  297.36623217576783
0.0065                    -0.0275                  297.3536923002853
0.0065                    -0.0265                  296.0601477111722
0.0065                    -0.0255                  293.88590518833104
0.0065                    -0.0245                  293.3503377428402
0.0065                    -0.0235                  293.33516808106873
0.0065                    -0.0225                  293.57872403577437
0.0065                    -0.0215                  293.75393879726397
0.0065                    -0.0205                  293.7535211669506
0.0065                    -0.0195                  293.74996842847776
0.0065                    -0.0185                  293.7436133911625
0.0065                    -0.0175                  293.7340513085501
0.0065                    -0.0165                  293.7203139247303
0.0065                    -0.0155                  293.50597195446187
0.0065                    -0.0145                  293.2607241472422
0.0065                    -0.0135                  293.2082514404286
0.0065                    -0.0125                  293.2011638699933
0.0065                    -0.0115                  293.204937342333
0.0065                    -0.0105                  293.2046698621298
0.0065                    -0.0095                  293.1960407771125
0.0065                    -0.0085                  293.19489801812324
0.0065                    -0.0075                  293.19636150201535
0.0065                    -0.0065                  293.1983244272385
0.0065                    -0.0055                  293.20198225132407
0.0065                    -0.0045                  293.20923953081865
0.0065                    -0.0035                  293.2115162238962
0.0065                    -0.0025                  293.22031532610123
0.0065                    -0.0015                  293.24037138009857
0.0065                    -5.0E-4                  293.25802113045825
0.0065                    5.0E-4                   293.2736281548983
0.0065                    0.0015                   293.2854574085409
0.0065                    0.0025                   293.2966201161221
0.0065                    0.0035                   293.32928557211346
0.0065                    0.0045                   293.35500158111984
0.0065                    0.0055                   293.38515313709667
0.0065                    0.0065                   293.4607457845666
0.0065                    0.0075                   293.55735581475574
0.0065                    0.0085                   293.60749066783274
0.0065                    0.0095                   293.6695179598712
0.0065                    0.0105                   293.7383542268525