% Model:              模型结构导入comsolBench.mph
% Version:            COMSOL 6.2.0.339
% Date:               May 29 2026, 11:29
% Dimension:          2
% Nodes:              4096
% Expressions:        1
% Description:        温度
% Length unit:        m
% x                       y                        T (K)
5.0E-4                    -0.0315                  307.0647926548793
5.0E-4                    -0.0305                  307.04811028138613
5.0E-4                    -0.0295                  307.03142790789303
5.0E-4                    -0.0285                  307.0147455343998
5.0E-4                    -0.0275                  306.9805442746109
5.0E-4                    -0.0265                  306.93116266507894
5.0E-4                    -0.0255                  306.881781055547
5.0E-4                    -0.0245                  306.8232022816084
5.0E-4                    -0.0235                  306.7453232957043
5.0E-4                    -0.0225                  306.6638053493807
5.0E-4                    -0.0215                  306.5631146535969
5.0E-4                    -0.0205                  306.4520320602249
5.0E-4                    -0.0195                  306.32803395415294
5.0E-4                    -0.0185                  306.19814181887676
5.0E-4                    -0.0175                  306.07995544416053
5.0E-4                    -0.0165                  298.42459478628734
5.0E-4                    -0.0155                  293.1894389173408
5.0E-4                    -0.0145                  293.1626376240506
5.0E-4                    -0.0135                  293.16851739017767
5.0E-4                    -0.0125                  293.49705901918185
5.0E-4                    -0.0115                  295.9963613061751
5.0E-4                    -0.0105                  297.4649256105522
5.0E-4                    -0.0095                  297.48548807813063
5.0E-4                    -0.0085                  297.44964932194705
5.0E-4                    -0.0075                  294.41898033523387
5.0E-4                    -0.0065                  293.172408612605
5.0E-4                    -0.0055                  293.15976175628475
5.0E-4                    -0.0045                  293.1580506336384
5.0E-4                    -0.0035                  293.15700786638627
5.0E-4                    -0.0025                  293.15643929573616
5.0E-4                    -0.0015                  293.156538502967
5.0E-4                    -5.0E-4                  293.1589354273097
5.0E-4                    5.0E-4                   297.9773664182614
5.0E-4                    0.0015                   302.737456942458
5.0E-4                    0.0025                   302.876471925628
5.0E-4                    0.0035                   303.0343237397776
5.0E-4                    0.0045                   303.1361545047432
5.0E-4                    0.0055                   303.17155232676595
5.0E-4                    0.0065                   303.43898899077124
5.0E-4                    0.0075                   304.4762154394998
5.0E-4                    0.0085                   306.4009106096223
5.0E-4                    0.0095                   308.5061495148461
5.0E-4                    0.0105                   309.5773822852443
5.0E-4                    0.0115                   309.60055221421237
5.0E-4                    0.0125                   309.63535513413694
5.0E-4                    0.0135                   309.67687969391386
5.0E-4                    0.0145                   309.72156863349807
5.0E-4                    0.0155                   309.76664705704763
5.0E-4                    0.0165                   309.81050675820825
5.0E-4                    0.0175                   309.85318918511007
5.0E-4                    0.0185                   309.89162916877535
5.0E-4                    0.0195                   309.9300691524406
5.0E-4                    0.0205                   309.96427432420415
5.0E-4                    0.0215                   309.99372176081346
5.0E-4                    0.0225                   310.0231691974227
5.0E-4                    0.0235                   310.05151783011235
5.0E-4                    0.0245                   310.0722664112169
5.0E-4                    0.0255                   310.09035381606554
5.0E-4                    0.0265                   310.1084412209141
5.0E-4                    0.0275                   310.12652862576266
5.0E-4                    0.0285                   310.13660297727563
5.0E-4                    0.0295                   310.14281328993604
5.0E-4                    0.0305                   310.14902360259646
5.0E-4                    0.0315                   310.155231135935
0.0015                    -0.0315                  307.07037079039975
0.0015                    -0.0305                  307.0569865867466
0.0015                    -0.0295                  307.0403042132534
0.0015                    -0.0285                  307.02120034034306
0.0015                    -0.0275                  306.9894408978861
0.0015                    -0.0265                  306.9409596455951
0.0015                    -0.0255                  306.8873721120905
0.0015                    -0.0245                  306.82620661723644
0.0015                    -0.0235                  306.756811122602
0.0015                    -0.0225                  306.66684196803806
0.0015                    -0.0215                  306.57221125612296
0.0015                    -0.0205                  306.4593446930129
0.0015                    -0.0195                  306.329424339469
0.0015                    -0.0185                  306.1854137556738
0.0015                    -0.0175                  306.0249427758537
0.0015                    -0.0165                  297.87378018590397
0.0015                    -0.0155                  293.1854745550395
0.0015                    -0.0145                  293.1815420070929
0.0015                    -0.0135                  293.24770570492785
0.0015                    -0.0125                  294.2790372016783
0.0015                    -0.0115                  296.7254511965237
0.0015                    -0.0105                  297.58153658112025
0.0015                    -0.0095                  297.58026312151287
0.0015                    -0.0085                  297.57077677807274
0.0015                    -0.0075                  295.1991711962099
0.0015                    -0.0065                  293.34401167591824
0.0015                    -0.0055                  293.1813391428825
0.0015                    -0.0045                  293.17518842801564
0.0015                    -0.0035                  293.1717729205776
0.0015                    -0.0025                  293.1698463397671
0.0015                    -0.0015                  293.16914571524944
0.0015                    -5.0E-4                  293.1780593110253
0.0015                    5.0E-4                   293.5398335303006
0.0015                    0.0015                   298.41556005410825
0.0015                    0.0025                   300.015716412006
0.0015                    0.0035                   300.3107777340481
0.0015                    0.0045                   300.2502282917592
0.0015                    0.0055                   299.75370922023893
0.0015                    0.0065                   299.2108535090306
0.0015                    0.0075                   299.8734557180853
0.0015                    0.0085                   302.0410801557931
0.0015                    0.0095                   306.7589755894753
0.0015                    0.0105                   309.55272471553565
0.0015                    0.0115                   309.58443513713456
0.0015                    0.0125                   309.623882547483
0.0015                    0.0135                   309.66900396654313
0.0015                    0.0145                   309.71697692063503
0.0015                    0.0155                   309.76325856130575
0.0015                    0.0165                   309.80743477877985
0.0015                    0.0175                   309.84943656828716
0.0015                    0.0185                   309.89000382245064
0.0015                    0.0195                   309.92647058312485
0.0015                    0.0205                   309.9606317089032
0.0015                    0.0215                   309.99243842886733
0.0015                    0.0225                   310.0218858654766
0.0015                    0.0235                   310.0462261736169
0.0015                    0.0245                   310.0699412669491
0.0015                    0.0255                   310.0886068534386
0.0015                    0.0265                   310.1066942582871
0.0015                    0.0275                   310.12162693732165
0.0015                    0.0285                   310.13426030318124
0.0015                    0.0295                   310.1410382745196
0.0015                    0.0305                   310.14724024921463
0.0015                    0.0315                   310.1501921612095
0.0025                    -0.0315                  307.0755305663971
0.0025                    -0.0305                  307.06340144131343
0.0025                    -0.0295                  307.04918051861387
0.0025                    -0.0285                  307.02393754571114
0.0025                    -0.0275                  306.9921781032542
0.0025                    -0.0265                  306.9504431729763
0.0025                    -0.0255                  306.8892776781223
0.0025                    -0.0245                  306.83207720941
0.0025                    -0.0235                  306.7697664137904
0.0025                    -0.0225                  306.6856188039801
0.0025                    -0.0215                  306.59008801896573
0.0025                    -0.0205                  306.47910365382955
0.0025                    -0.0195                  306.3450220862055
0.0025                    -0.0185                  306.18273972568664
0.0025                    -0.0175                  305.9790785183627
0.0025                    -0.0165                  298.2735211845272
0.0025                    -0.0155                  293.3003140947173
0.0025                    -0.0145                  293.2177317716445
0.0025                    -0.0135                  293.4484261692312
0.0025                    -0.0125                  294.9289392139324
0.0025                    -0.0115                  297.086483486327
0.0025                    -0.0105                  297.6924222301992
0.0025                    -0.0095                  297.6837926342092
0.0025                    -0.0085                  297.6879055821674
0.0025                    -0.0075                  296.5389868537829
0.0025                    -0.0065                  293.79071905988053
0.0025                    -0.0055                  293.2280605594031
0.0025                    -0.0045                  293.1975501002097
0.0025                    -0.0035                  293.18932620296016
0.0025                    -0.0025                  293.1855793659677
0.0025                    -0.0015                  293.1826867224124
0.0025                    -5.0E-4                  293.18448227239867
0.0025                    5.0E-4                   293.3872464210692
0.0025                    0.0015                   294.44647524916616
0.0025                    0.0025                   297.0743358255444
0.0025                    0.0035                   298.45686399681125
0.0025                    0.0045                   298.64840064567954
0.0025                    0.0055                   298.1537652998873
0.0025                    0.0065                   297.65394779079486
0.0025                    0.0075                   297.62293098981434
0.0025                    0.0085                   299.198995960802
0.0025                    0.0095                   305.12156587524504
0.0025                    0.0105                   309.5093866433778
0.0025                    0.0115                   309.55200183431987
0.0025                    0.0125                   309.6033756247527
0.0025                    0.0135                   309.6558778421461
0.0025                    0.0145                   309.7067903603057
0.0025                    0.0155                   309.7543067245419
0.0025                    0.0165                   309.80126822579666
0.0025                    0.0175                   309.843964504049
0.0025                    0.0185                   309.8863518637749
0.0025                    0.0195                   309.9217243251682
0.0025                    0.0205                   309.9562359011067
0.0025                    0.0215                   309.99039702688503
0.0025                    0.0225                   310.01721942378936
0.0025                    0.0235                   310.0409345171215
0.0025                    0.0245                   310.06464961045367
0.0025                    0.0255                   310.0868598908115
0.0025                    0.0265                   310.1039562362167
0.0025                    0.0275                   310.11658960207626
0.0025                    0.0285                   310.1292229679359
0.0025                    0.0295                   310.1392493624942
0.0025                    0.0305                   310.1422012744891
0.0025                    0.0315                   310.145153186484
0.0035                    -0.0315                  307.08069034239446
0.0035                    -0.0305                  307.06856121731073
0.0035                    -0.0295                  307.0587706509028
0.0035                    -0.0285                  307.0316480988435
0.0035                    -0.0275                  307.0012377124745
0.0035                    -0.0265                  306.9633609905767
0.0035                    -0.0255                  306.9088794220697
0.0035                    -0.0245                  306.8534268097976
0.0035                    -0.0235                  306.7846807682525
0.0035                    -0.0225                  306.70644821733697
0.0035                    -0.0215                  306.6156492148567
0.0035                    -0.0205                  306.51122078721977
0.0035                    -0.0195                  306.38101888139147
0.0035                    -0.0185                  306.21637769217756
0.0035                    -0.0175                  305.9326992680792
0.0035                    -0.0165                  298.4882315536811
0.0035                    -0.0155                  293.291868878093
0.0035                    -0.0145                  293.3048799016949
0.0035                    -0.0135                  293.74355599205154
0.0035                    -0.0125                  295.8599704298775
0.0035                    -0.0115                  297.78857422486107
0.0035                    -0.0105                  297.7799691688192
0.0035                    -0.0095                  297.77531797370233
0.0035                    -0.0085                  297.78024854719445
0.0035                    -0.0075                  297.79191999045776
0.0035                    -0.0065                  295.4452485488139
0.0035                    -0.0055                  293.4748902766674
0.0035                    -0.0045                  293.2512606286438
0.0035                    -0.0035                  293.21465789131634
0.0035                    -0.0025                  293.2044537627284
0.0035                    -0.0015                  293.1995311566115
0.0035                    -5.0E-4                  293.19637664570075
0.0035                    5.0E-4                   293.24079346975464
0.0035                    0.0015                   293.57562489087377
0.0035                    0.0025                   294.27954399421327
0.0035                    0.0035                   295.95429666200647
0.0035                    0.0045                   296.8680190855405
0.0035                    0.0055                   297.3821247965984
0.0035                    0.0065                   297.38396262386095
0.0035                    0.0075                   297.0889962924509
0.0035                    0.0085                   297.9050827158501
0.0035                    0.0095                   303.7612239818828
0.0035                    0.0105                   309.44035047060316
0.0035                    0.0115                   309.50762063578526
0.0035                    0.0125                   309.5760591229647
0.0035                    0.0135                   309.63884742780783
0.0035                    0.0145                   309.6936877099044
0.0035                    0.0155                   309.7455134776225
0.0035                    0.0165                   309.7936685497557
0.0035                    0.0175                   309.8361077821527
0.0035                    0.0185                   309.8771674020566
0.0035                    0.0195                   309.91447379982196
0.0035                    0.0205                   309.9490176494762
0.0035                    0.0215                   309.9818268187525
0.0035                    0.0225                   310.0098233555993
0.0035                    0.0235                   310.034067976624
0.0035                    0.0245                   310.05831259764864
0.0035                    0.0255                   310.08255721867334
0.0035                    0.0265                   310.09791340423874
0.0035                    0.0275                   310.10981899088375
0.0035                    0.0285                   310.12172457752877
0.0035                    0.0295                   310.13134658522364
0.0035                    0.0305                   310.13674897370424
0.0035                    0.0315                   310.14011421175843
0.0045                    -0.0315                  307.090621523462
0.0045                    -0.0305                  307.08261756063905
0.0045                    -0.0295                  307.0746135978161
0.0045                    -0.0285                  307.04808469002694
0.0045                    -0.0275                  307.01801228504655
0.0045                    -0.0265                  306.9788168015027
0.0045                    -0.0255                  306.9278421976139
0.0045                    -0.0245                  306.87488707626324
0.0045                    -0.0235                  306.8097988853065
0.0045                    -0.0225                  306.73956407944775
0.0045                    -0.0215                  306.65658358258946
0.0045                    -0.0205                  306.5594477245237
0.0045                    -0.0195                  306.4475966620129
0.0045                    -0.0185                  306.30917916364643
0.0045                    -0.0175                  303.3086211900582
0.0045                    -0.0165                  296.3147279279156
0.0045                    -0.0155                  293.3165089124402
0.0045                    -0.0145                  293.3821113112749
0.0045                    -0.0135                  294.09386769313903
0.0045                    -0.0125                  296.3769210292205
0.0045                    -0.0115                  297.85444380910116
0.0045                    -0.0105                  297.8532276107265
0.0045                    -0.0095                  297.8519920106312
0.0045                    -0.0085                  297.8564274830736
0.0045                    -0.0075                  297.8666306520791
0.0045                    -0.0065                  297.059669744188
0.0045                    -0.0055                  294.1677540285228
0.0045                    -0.0045                  293.36961099246986
0.0045                    -0.0035                  293.27925432652876
0.0045                    -0.0025                  293.2312225798288
0.0045                    -0.0015                  293.2218767913512
0.0045                    -5.0E-4                  293.2161182330725
0.0045                    5.0E-4                   293.22040722782737
0.0045                    0.0015                   293.2526724643053
0.0045                    0.0025                   293.55335852826613
0.0045                    0.0035                   294.33119134825074
0.0045                    0.0045                   295.14281083549696
0.0045                    0.0055                   296.14020118843354
0.0045                    0.0065                   296.61017277513565
0.0045                    0.0075                   296.7988352565648
0.0045                    0.0085                   296.5079350006774
0.0045                    0.0095                   301.7268507001191
0.0045                    0.0105                   309.3120206241328
0.0045                    0.0115                   309.46404481510655
0.0045                    0.0125                   309.5521848771349
0.0045                    0.0135                   309.62175335313185
0.0045                    0.0145                   309.6811041422632
0.0045                    0.0155                   309.7333078908196
0.0045                    0.0165                   309.7841763210952
0.0045                    0.0175                   309.8269233204344
0.0045                    0.0185                   309.86798294033827
0.0045                    0.0195                   309.9072232744757
0.0045                    0.0205                   309.94021546471004
0.0045                    0.0215                   309.9712381197599
0.0045                    0.0225                   310.0014898529778
0.0045                    0.0235                   310.0257344740025
0.0045                    0.0245                   310.04949922577003
0.0045                    0.0255                   310.0703733538195
0.0045                    0.0265                   310.08707496745103
0.0045                    0.0275                   310.10071197556084
0.0045                    0.0285                   310.11261756220586
0.0045                    0.0295                   310.1215159599688
0.0045                    0.0305                   310.1269183484494
0.0045                    0.0315                   310.1322044167527
0.0055                    -0.0315                  307.10787242274625
0.0055                    -0.0305                  307.0984605075523
0.0055                    -0.0295                  307.08945894408754
0.0055                    -0.0285                  307.0623488677529
0.0055                    -0.0275                  307.0337121780562
0.0055                    -0.0265                  306.9954716627333
0.0055                    -0.0255                  306.95222260439016
0.0055                    -0.0245                  306.9007855595088
0.0055                    -0.0235                  306.84047966554647
0.0055                    -0.0225                  306.7746391602522
0.0055                    -0.0215                  306.69970183114253
0.0055                    -0.0205                  306.61894949733187
0.0055                    -0.0195                  306.534404131355
0.0055                    -0.0185                  304.7563029194908
0.0055                    -0.0175                  298.93219837025214
0.0055                    -0.0165                  294.36261640864643
0.0055                    -0.0155                  293.36042366784216
0.0055                    -0.0145                  293.58847183181933
0.0055                    -0.0135                  294.76360310350503
0.0055                    -0.0125                  296.95884555877115
0.0055                    -0.0115                  297.9229409009085
0.0055                    -0.0105                  297.91857128986493
0.0055                    -0.0095                  297.9185741530989
0.0055                    -0.0085                  297.92112128785413
0.0055                    -0.0075                  297.9303748667304
0.0055                    -0.0065                  297.9468617982841
0.0055                    -0.0055                  296.49204042033455
0.0055                    -0.0045                  294.0342434909717
0.0055                    -0.0035                  293.47968388056717
0.0055                    -0.0025                  293.3023142385515
0.0055                    -0.0015                  293.272113430514
0.0055                    -5.0E-4                  293.2453410644321
0.0055                    5.0E-4                   293.239699585291
0.0055                    0.0015                   293.2436067525788
0.0055                    0.0025                   293.2942825247539
0.0055                    0.0035                   293.4252798600355
0.0055                    0.0045                   293.922426036816
0.0055                    0.0055                   294.61862792404605
0.0055                    0.0065                   295.4405739175316
0.0055                    0.0075                   296.0009411785127
0.0055                    0.0085                   296.24985039739914
0.0055                    0.0095                   297.05030314279827
0.0055                    0.0105                   303.5298287636108
0.0055                    0.0115                   309.4508000434505
0.0055                    0.0125                   309.5375942850167
0.0055                    0.0135                   309.60836401577313
0.0055                    0.0145                   309.66873621898935
0.0055                    0.0155                   309.7220689284595
0.0055                    0.0165                   309.7714899441079
0.0055                    0.0175                   309.81589001446923
0.0055                    0.0185                   309.8575847548123
0.0055                    0.0195                   309.89765685335
0.0055                    0.0205                   309.929267061911
0.0055                    0.0215                   309.9606494207673
0.0055                    0.0225                   309.9916720758172
0.0055                    0.0235                   310.0159880713475
0.0055                    0.0245                   310.036862199397
0.0055                    0.0255                   310.0577363274464
0.0055                    0.0265                   310.0746068035379
0.0055                    0.0275                   310.089362468246
0.0055                    0.0285                   310.10351054688294
0.0055                    0.0295                   310.1116853347141
0.0055                    0.0305                   310.11529597393064
0.0055                    0.0315                   310.118384851187
0.0065                    -0.0315                  307.12560520144416
0.0065                    -0.0305                  307.1156791086097
0.0065                    -0.0295                  307.1037231218136
0.0065                    -0.0285                  307.0794370129729
0.0065                    -0.0275                  307.0554656889668
0.0065                    -0.0265                  307.018492077978
0.0065                    -0.0255                  306.9783860073309
0.0065                    -0.0245                  306.92725674475713
0.0065                    -0.0235                  306.87300988878997
0.0065                    -0.0225                  306.8125276077874
0.0065                    -0.0215                  306.74643077645925
0.0065                    -0.0205                  306.67747186885856
0.0065                    -0.0195                  306.6071940496646
0.0065                    -0.0185                  301.74811261972366
0.0065                    -0.0175                  295.96915677090044
0.0065                    -0.0165                  293.9133809058711
0.0065                    -0.0155                  293.49851361454193
0.0065                    -0.0145                  293.87871685411335
0.0065                    -0.0135                  296.00774847255224
0.0065                    -0.0125                  297.9683428270086
0.0065                    -0.0115                  297.9784365121242
0.0065                    -0.0105                  297.9768451322917
0.0065                    -0.0095                  297.97641211997205
0.0065                    -0.0085                  297.97671505748787
0.0065                    -0.0075                  297.98066928644414
0.0065                    -0.0065                  297.98536954423287
0.0065                    -0.0055                  297.9891629315922
0.0065                    -0.0045                  296.68352974108006
0.0065                    -0.0035                  294.74524185329955
0.0065                    -0.0025                  293.76571383206704
0.0065                    -0.0015                  293.4054224301817
0.0065                    -5.0E-4                  293.32981518050923
0.0065                    5.0E-4                   293.28250641377633
0.0065                    0.0015                   293.268027016388
0.0065                    0.0025                   293.2616956449292
0.0065                    0.0035                   293.2778413433855
0.0065                    0.0045                   293.39013841553805
0.0065                    0.0055                   293.6739422116627
0.0065                    0.0065                   294.19480074552536
0.0065                    0.0075                   294.80572966328134
0.0065                    0.0085                   295.41881315210196
0.0065                    0.0095                   295.84438503596994
0.0065                    0.0105                   297.1504571090505
0.0065                    0.0115                   304.117489598236