% Model:              模型结构导入comsolBench极细.mph
% Version:            COMSOL 6.2.0.339
% Date:               May 29 2026, 14:53
% Dimension:          2
% Nodes:              4096
% Expressions:        1
% Description:        温度
% Length unit:        m
% x                       y                        T (K)
5.0E-4                    -0.0315                  296.98445196826754
5.0E-4                    -0.0305                  296.98164130977926
5.0E-4                    -0.0295                  296.97643627586035
5.0E-4                    -0.0285                  296.96911703421506
5.0E-4                    -0.0275                  296.9600553097216
5.0E-4                    -0.0265                  296.9500349275976
5.0E-4                    -0.0255                  296.93987969656655
5.0E-4                    -0.0245                  296.9306108448743
5.0E-4                    -0.0235                  296.9227638034871
5.0E-4                    -0.0225                  296.91731438104193
5.0E-4                    -0.0215                  296.37508721158383
5.0E-4                    -0.0205                  296.0567888437638
5.0E-4                    -0.0195                  295.7994769969268
5.0E-4                    -0.0185                  294.82808549452886
5.0E-4                    -0.0175                  293.220011077814
5.0E-4                    -0.0165                  293.15048152264444
5.0E-4                    -0.0155                  293.1476854317412
5.0E-4                    -0.0145                  293.95100542999035
5.0E-4                    -0.0135                  303.9903433790372
5.0E-4                    -0.0125                  306.52069320996327
5.0E-4                    -0.0115                  306.9702982348838
5.0E-4                    -0.0105                  307.03862980576326
5.0E-4                    -0.0095                  307.1521909051685
5.0E-4                    -0.0085                  309.07550479863187
5.0E-4                    -0.0075                  311.55291189710056
5.0E-4                    -0.0065                  311.5740942634404
5.0E-4                    -0.0055                  311.6007387314435
5.0E-4                    -0.0045                  311.6326036764412
5.0E-4                    -0.0035                  311.67110013797713
5.0E-4                    -0.0025                  311.7162091685599
5.0E-4                    -0.0015                  311.7677463415118
5.0E-4                    -5.0E-4                  311.825496069002
5.0E-4                    5.0E-4                   311.8889669229134
5.0E-4                    0.0015                   311.95678498609254
5.0E-4                    0.0025                   312.0275461691034
5.0E-4                    0.0035                   312.10005579094445
5.0E-4                    0.0045                   312.1730368025827
5.0E-4                    0.0055                   312.24526685321257
5.0E-4                    0.0065                   312.3158051684249
5.0E-4                    0.0075                   312.38384404313706
5.0E-4                    0.0085                   312.44855410741127
5.0E-4                    0.0095                   312.5095930557816
5.0E-4                    0.0105                   312.5668863206032
5.0E-4                    0.0115                   312.62023722862216
5.0E-4                    0.0125                   312.66931686382367
5.0E-4                    0.0135                   312.7142849186474
5.0E-4                    0.0145                   312.75546740905673
5.0E-4                    0.0155                   312.7929515060724
5.0E-4                    0.0165                   312.8266495345879
5.0E-4                    0.0175                   312.85685035395966
5.0E-4                    0.0185                   312.88396738009664
5.0E-4                    0.0195                   312.908169359366
5.0E-4                    0.0205                   312.9294534942216
5.0E-4                    0.0215                   312.94808834889164
5.0E-4                    0.0225                   312.9644360911856
5.0E-4                    0.0235                   312.9786552442247
5.0E-4                    0.0245                   312.99075424371745
5.0E-4                    0.0255                   313.0009281968271
5.0E-4                    0.0265                   313.00944348238465
5.0E-4                    0.0275                   313.01640931271913
5.0E-4                    0.0285                   313.02179859334836
5.0E-4                    0.0295                   313.02571841640395
5.0E-4                    0.0305                   313.02834108663814
5.0E-4                    0.0315                   313.02975249130395
0.0015                    -0.0315                  296.9818969493691
0.0015                    -0.0305                  296.9790878662161
0.0015                    -0.0295                  296.973508313871
0.0015                    -0.0285                  296.9655800903599
0.0015                    -0.0275                  296.9559389665928
0.0015                    -0.0265                  296.9450039568478
0.0015                    -0.0255                  296.9338277138548
0.0015                    -0.0245                  296.9233869887894
0.0015                    -0.0235                  296.91515583528275
0.0015                    -0.0225                  296.9092837630907
0.0015                    -0.0215                  296.38835105509895
0.0015                    -0.0205                  296.32987228013235
0.0015                    -0.0195                  295.481997356665
0.0015                    -0.0185                  294.56219668001233
0.0015                    -0.0175                  293.24730057518263
0.0015                    -0.0165                  293.1509166937732
0.0015                    -0.0155                  293.142504927742
0.0015                    -0.0145                  294.64351468319785
0.0015                    -0.0135                  303.5486032539854
0.0015                    -0.0125                  306.33369493250916
0.0015                    -0.0115                  308.0953666827638
0.0015                    -0.0105                  308.12790742446373
0.0015                    -0.0095                  307.5097874406366
0.0015                    -0.0085                  308.38112326618165
0.0015                    -0.0075                  311.54142947763927
0.0015                    -0.0065                  311.5636149638703
0.0015                    -0.0055                  311.589539845315
0.0015                    -0.0045                  311.62116653996645
0.0015                    -0.0035                  311.65909656493346
0.0015                    -0.0025                  311.703954394923
0.0015                    -0.0015                  311.75608897235963
0.0015                    -5.0E-4                  311.8149304062632
0.0015                    5.0E-4                   311.87924490158565
0.0015                    0.0015                   311.9483587183461
0.0015                    0.0025                   312.020644531912
0.0015                    0.0035                   312.09445404766905
0.0015                    0.0045                   312.16858238906224
0.0015                    0.0055                   312.24194207988404
0.0015                    0.0065                   312.3133670361797
0.0015                    0.0075                   312.3818022469147
0.0015                    0.0085                   312.4470118449418
0.0015                    0.0095                   312.5085063392051
0.0015                    0.0105                   312.56592496297867
0.0015                    0.0115                   312.6190472282927
0.0015                    0.0125                   312.66817964058697
0.0015                    0.0135                   312.7132439679625
0.0015                    0.0145                   312.7542336963317
0.0015                    0.0155                   312.7912990287816
0.0015                    0.0165                   312.82487289883653
0.0015                    0.0175                   312.85504799177056
0.0015                    0.0185                   312.88190857934194
0.0015                    0.0195                   312.9057053094808
0.0015                    0.0205                   312.926831607894
0.0015                    0.0215                   312.94541728237374
0.0015                    0.0225                   312.96154653330063
0.0015                    0.0235                   312.97544845368816
0.0015                    0.0245                   312.9874181744886
0.0015                    0.0255                   312.9975662048144
0.0015                    0.0265                   313.0059384421309
0.0015                    0.0275                   313.01269426002375
0.0015                    0.0285                   313.018013663538
0.0015                    0.0295                   313.0219574944219
0.0015                    0.0305                   313.0245671325018
0.0015                    0.0315                   313.0257316338532
0.0025                    -0.0315                  296.97723661537725
0.0025                    -0.0305                  296.97404894602346
0.0025                    -0.0295                  296.9679373261943
0.0025                    -0.0285                  296.9589097594462
0.0025                    -0.0275                  296.9478368963283
0.0025                    -0.0265                  296.93530491550723
0.0025                    -0.0255                  296.9223976047928
0.0025                    -0.0245                  296.9099074124301
0.0025                    -0.0235                  296.8996671200807
0.0025                    -0.0225                  296.8931117044499
0.0025                    -0.0215                  296.5228145098047
0.0025                    -0.0205                  296.2921357861818
0.0025                    -0.0195                  294.88977194231865
0.0025                    -0.0185                  294.2829034092348
0.0025                    -0.0175                  293.24604549290996
0.0025                    -0.0165                  293.15177444532594
0.0025                    -0.0155                  293.15797141902897
0.0025                    -0.0145                  295.49712468976435
0.0025                    -0.0135                  302.76113147223043
0.0025                    -0.0125                  305.6346498031128
0.0025                    -0.0115                  308.3129707790646
0.0025                    -0.0105                  308.61981991542814
0.0025                    -0.0095                  307.9002083201986
0.0025                    -0.0085                  308.5369105933692
0.0025                    -0.0075                  311.52355681624124
0.0025                    -0.0065                  311.54396301152127
0.0025                    -0.0055                  311.5683793951639
0.0025                    -0.0045                  311.59882858701377
0.0025                    -0.0035                  311.63528083978207
0.0025                    -0.0025                  311.6797980636371
0.0025                    -0.0015                  311.7330316666134
0.0025                    -5.0E-4                  311.7938520183942
0.0025                    5.0E-4                   311.86068116362515
0.0025                    0.0015                   311.93214872955434
0.0025                    0.0025                   312.0071834728391
0.0025                    0.0035                   312.0836507097805
0.0025                    0.0045                   312.16022482523385
0.0025                    0.0055                   312.2355724491289
0.0025                    0.0065                   312.30840152752495
0.0025                    0.0075                   312.37811236403763
0.0025                    0.0085                   312.4441883680528
0.0025                    0.0095                   312.50632611345117
0.0025                    0.0105                   312.5638198144118
0.0025                    0.0115                   312.6170002466546
0.0025                    0.0125                   312.6660327796013
0.0025                    0.0135                   312.71099933214566
0.0025                    0.0145                   312.7516032482431
0.0025                    0.0155                   312.7882895629199
0.0025                    0.0165                   312.82144428742083
0.0025                    0.0175                   312.8512694905979
0.0025                    0.0185                   312.87768339674295
0.0025                    0.0195                   312.90103520932087
0.0025                    0.0205                   312.92172878369115
0.0025                    0.0215                   312.9399587110979
0.0025                    0.0225                   312.95572646236667
0.0025                    0.0235                   312.96926625993945
0.0025                    0.0245                   312.9809113499462
0.0025                    0.0255                   312.9908035966126
0.0025                    0.0265                   312.9989635001609
0.0025                    0.0275                   313.0054944037764
0.0025                    0.0285                   313.0106781065506
0.0025                    0.0295                   313.0144931126296
0.0025                    0.0305                   313.0169631917287
0.0025                    0.0315                   313.018071459776
0.0035                    -0.0315                  296.9707247277945
0.0035                    -0.0305                  296.96694244181225
0.0035                    -0.0295                  296.95981423652483
0.0035                    -0.0285                  296.94925072989764
0.0035                    -0.0275                  296.93595756856763
0.0035                    -0.0265                  296.9208633601425
0.0035                    -0.0255                  296.9047370981013
0.0035                    -0.0245                  296.8886494417301
0.0035                    -0.0235                  296.8750574555107
0.0035                    -0.0225                  296.8665160525528
0.0035                    -0.0215                  296.6355415206999
0.0035                    -0.0205                  296.0549682897842
0.0035                    -0.0195                  294.4755650693419
0.0035                    -0.0185                  294.0513198650807
0.0035                    -0.0175                  293.220048302705
0.0035                    -0.0165                  293.150541691033
0.0035                    -0.0155                  293.1998497177542
0.0035                    -0.0145                  296.0451583644343
0.0035                    -0.0135                  302.3319525674577
0.0035                    -0.0125                  305.03497888122627
0.0035                    -0.0115                  308.2453663213377
0.0035                    -0.0105                  308.5367361274856
0.0035                    -0.0095                  307.93496478588196
0.0035                    -0.0085                  309.06866073856395
0.0035                    -0.0075                  311.4986376499397
0.0035                    -0.0065                  311.51520519568936
0.0035                    -0.0055                  311.53621660621076
0.0035                    -0.0045                  311.56270261481745
0.0035                    -0.0035                  311.5981929186878
0.0035                    -0.0025                  311.6422344427565
0.0035                    -0.0015                  311.696041334881
0.0035                    -5.0E-4                  311.7599010215187
0.0035                    5.0E-4                   311.83104570693484
0.0035                    0.0015                   311.9070280410426
0.0035                    0.0025                   311.9864466103882
0.0035                    0.0035                   312.06748234881695
0.0035                    0.0045                   312.1478264414293
0.0035                    0.0055                   312.2262218292307
0.0035                    0.0065                   312.30155905303906
0.0035                    0.0075                   312.37321575260637
0.0035                    0.0085                   312.4405655104722
0.0035                    0.0095                   312.50303428543714
0.0035                    0.0105                   312.5610398289403
0.0035                    0.0115                   312.61434013297804
0.0035                    0.0125                   312.6631573114649
0.0035                    0.0135                   312.7074620127674
0.0035                    0.0145                   312.747723119391
0.0035                    0.0155                   312.78396194733216
0.0035                    0.0165                   312.8164234736293
0.0035                    0.0175                   312.8453919871396
0.0035                    0.0185                   312.8712377966448
0.0035                    0.0195                   312.894049236884
0.0035                    0.0205                   312.9140493115897
0.0035                    0.0215                   312.93153745210464
0.0035                    0.0225                   312.946787581916
0.0035                    0.0235                   312.95989990202503
0.0035                    0.0245                   312.9710227884827
0.0035                    0.0255                   312.9803950535876
0.0035                    0.0265                   312.9881865601467
0.0035                    0.0275                   312.9945473995439
0.0035                    0.0285                   312.99934912453523
0.0035                    0.0295                   313.00291576918926
0.0035                    0.0305                   313.0052877292585
0.0035                    0.0315                   313.00661409239285
0.0045                    -0.0315                  296.9627415215816
0.0045                    -0.0305                  296.9583603165969
0.0045                    -0.0295                  296.9498636672571
0.0045                    -0.0285                  296.9371840235062
0.0045                    -0.0275                  296.9213708642724
0.0045                    -0.0265                  296.9025773823814
0.0045                    -0.0255                  296.8816862821763
0.0045                    -0.0245                  296.860560556516
0.0045                    -0.0235                  296.8405746832181
0.0045                    -0.0225                  296.82624696800434
0.0045                    -0.0215                  296.7263692783747
0.0045                    -0.0205                  295.6476546004312
0.0045                    -0.0195                  294.20949537682543
0.0045                    -0.0185                  293.9149153910315
0.0045                    -0.0175                  293.1918222320632
0.0045                    -0.0165                  293.1389058562066
0.0045                    -0.0155                  293.4265952287189
0.0045                    -0.0145                  296.7939074330268
0.0045                    -0.0135                  302.1557943633045
0.0045                    -0.0125                  304.6908769826486
0.0045                    -0.0115                  308.0356066637238
0.0045                    -0.0105                  308.30794992478803
0.0045                    -0.0095                  307.9790733094411
0.0045                    -0.0085                  309.657649922244
0.0045                    -0.0075                  311.4654906471452
0.0045                    -0.0065                  311.4770032268009
0.0045                    -0.0055                  311.492621613425
0.0045                    -0.0045                  311.51558243608264
0.0045                    -0.0035                  311.5463546458421
0.0045                    -0.0025                  311.5898097599045
0.0045                    -0.0015                  311.64665238919224
0.0045                    -5.0E-4                  311.714480390181
0.0045                    5.0E-4                   311.7916437342898
0.0045                    0.0015                   311.8741887900187
0.0045                    0.0025                   311.9597679621327
0.0045                    0.0035                   312.0466451783442
0.0045                    0.0045                   312.1322474919229
0.0045                    0.0055                   312.215022964136
0.0045                    0.0065                   312.2937208921169
0.0045                    0.0075                   312.36753661594463
0.0045                    0.0085                   312.4360263755418
0.0045                    0.0095                   312.49929056599467
0.0045                    0.0105                   312.5576196131883
0.0045                    0.0115                   312.6111114785144
0.0045                    0.0125                   312.659371576795
0.0045                    0.0135                   312.70305779875525
0.0045                    0.0145                   312.742587934424
0.0045                    0.0155                   312.7781800114985
0.0045                    0.0165                   312.8097577197056
0.0045                    0.0175                   312.8377673133351
0.0045                    0.0185                   312.86267835510074
0.0045                    0.0195                   312.8847219861637
0.0045                    0.0205                   312.9038759538433
0.0045                    0.0215                   312.9205031198732
0.0045                    0.0225                   312.9349638697306
0.0045                    0.0235                   312.94744925529443
0.0045                    0.0245                   312.9579515516282
0.0045                    0.0255                   312.96673697860524
0.0045                    0.0265                   312.9740348876661
0.0045                    0.0275                   312.97993153459254
0.0045                    0.0285                   312.9844039150878
0.0045                    0.0295                   312.9876223899315
0.0045                    0.0305                   312.98984697471775
0.0045                    0.0315                   312.9910024960944
0.0055                    -0.0315                  296.953956197227
0.0055                    -0.0305                  296.94886408580624
0.0055                    -0.0295                  296.93876925064416
0.0055                    -0.0285                  296.9236786419503
0.0055                    -0.0275                  296.9044721472606
0.0055                    -0.0265                  296.8810676773217
0.0055                    -0.0255                  296.8544314443797
0.0055                    -0.0245                  296.8256475190731
0.0055                    -0.0235                  296.7960680515836
0.0055                    -0.0225                  296.76697534695546
0.0055                    -0.0215                  296.8205746928761
0.0055                    -0.0205                  295.02409894730914
0.0055                    -0.0195                  294.1048883565465
0.0055                    -0.0185                  293.71192142324094
0.0055                    -0.0175                  293.18454878824656
0.0055                    -0.0165                  293.1570113138627
0.0055                    -0.0155                  293.8184511220385
0.0055                    -0.0145                  297.40812812307973
0.0055                    -0.0135                  301.91156145321645
0.0055                    -0.0125                  304.3644756178604
0.0055                    -0.0115                  308.0829231152552
0.0055                    -0.0105                  308.23665197972474
0.0055                    -0.0095                  308.2441104934397
0.0055                    -0.0085                  310.07078344001945
0.0055                    -0.0075                  311.4255219967765
0.0055                    -0.0065                  311.4297438249811
0.0055                    -0.0055                  311.43765023655726
0.0055                    -0.0045                  311.4528190149952
0.0055                    -0.0035                  311.4771417475023
0.0055                    -0.0025                  311.51767225780577
0.0055                    -0.0015                  311.5782864527762
0.0055                    -5.0E-4                  311.6548170448315
0.0055                    5.0E-4                   311.74124850941826
0.0055                    0.0015                   311.8331368082352
0.0055                    0.0025                   311.92698874017657
0.0055                    0.0035                   312.0210778398873
0.0055                    0.0045                   312.11465831083274
0.0055                    0.0055                   312.2032664386884
0.0055                    0.0065                   312.28554701147436
0.0055                    0.0075                   312.3618157125387
0.0055                    0.0085                   312.431777573153
0.0055                    0.0095                   312.49588129533436
0.0055                    0.0105                   312.5544202338562
0.0055                    0.0115                   312.6072702894121
0.0055                    0.0125                   312.6551871221512
0.0055                    0.0135                   312.6982342973181
0.0055                    0.0145                   312.7365374087027
0.0055                    0.0155                   312.77085739645685
0.0055                    0.0165                   312.8014327049403
0.0055                    0.0175                   312.82829655988587
0.0055                    0.0185                   312.8519486262587
0.0055                    0.0195                   312.87272439177883
0.0055                    0.0205                   312.89090421396764
0.0055                    0.0215                   312.90651271396774
0.0055                    0.0225                   312.9199296760863
0.0055                    0.0235                   312.93143377009
0.0055                    0.0245                   312.9412248348434
0.0055                    0.0255                   312.9492793077663
0.0055                    0.0265                   312.9558930647117
0.0055                    0.0275                   312.96119651052953
0.0055                    0.0285                   312.9653619268231
0.0055                    0.0295                   312.96853364074366
0.0055                    0.0305                   312.9704149005169
0.0055                    0.0315                   312.97125204412566
0.0065                    -0.0315                  296.9451771135154
0.0065                    -0.0305                  296.93909103386966
0.0065                    -0.0295                  296.9274874316864
0.0065                    -0.0285                  296.9096977901097
0.0065                    -0.0275                  296.8864737627347
0.0065                    -0.0265                  296.857509995019
0.0065                    -0.0255                  296.8238616366858
0.0065                    -0.0245                  296.78644777217033
0.0065                    -0.0235                  296.74544504904736
0.0065                    -0.0225                  296.70229855158914
0.0065                    -0.0215                  296.65447573490724
0.0065                    -0.0205                  294.4778036357001
0.0065                    -0.0195                  294.06643310334346
0.0065                    -0.0185                  293.5166371932515
0.0065                    -0.0175                  293.175114256626
0.0065                    -0.0165                  293.23389921253704
0.0065                    -0.0155                  294.0417077844567
0.0065                    -0.0145                  298.03145602677375
0.0065                    -0.0135                  302.11086221634133
0.0065                    -0.0125                  304.0446495607375
0.0065                    -0.0115                  307.4525353065949
0.0065                    -0.0105                  308.44826958224695
0.0065                    -0.0095                  308.53991494299663
0.0065                    -0.0085                  310.0154655941304
0.0065                    -0.0075                  311.38386497728254
0.0065                    -0.0065                  311.37194779329394
0.0065                    -0.0055                  311.3707219886029
0.0065                    -0.0045                  311.37628411631056
0.0065                    -0.0035                  311.38760239366883
0.0065                    -0.0025                  311.41829323740706
0.0065                    -0.0015                  311.48996635714735
0.0065                    -5.0E-4                  311.5807979254919
0.0065                    5.0E-4                   311.6804927267017
0.0065                    0.0015                   311.78540518567706
0.0065                    0.0025                   311.8889843192045
0.0065                    0.0035                   311.9906635023637
0.0065                    0.0045                   312.0980076105638
0.0065                    0.0055                   312.19212459234564
0.0065                    0.0065                   312.27842606699824
0.0065                    0.0075                   312.35727418745387
0.0065                    0.0085                   312.4284371274829
0.0065                    0.0095                   312.49298487940587
0.0065                    0.0105                   312.5511773691575
0.0065                    0.0115                   312.6036151686057