% Model:              模型结构导入comsolBench极细.mph
% Version:            COMSOL 6.2.0.339
% Date:               May 29 2026, 14:49
% Dimension:          2
% Nodes:              4096
% Expressions:        1
% Description:        温度
% Length unit:        m
% x                       y                        T (K)
5.0E-4                    -0.0315                  295.7014239700515
5.0E-4                    -0.0305                  295.69625224649764
5.0E-4                    -0.0295                  295.6863637194732
5.0E-4                    -0.0285                  295.67166995545847
5.0E-4                    -0.0275                  295.65179890403647
5.0E-4                    -0.0265                  295.62667175390925
5.0E-4                    -0.0255                  295.59669511019183
5.0E-4                    -0.0245                  295.56187934531977
5.0E-4                    -0.0235                  295.52195238225937
5.0E-4                    -0.0225                  295.4769458869242
5.0E-4                    -0.0215                  295.42746522206073
5.0E-4                    -0.0205                  295.373903688259
5.0E-4                    -0.0195                  295.31666607375905
5.0E-4                    -0.0185                  295.2566796152908
5.0E-4                    -0.0175                  295.19557383371455
5.0E-4                    -0.0165                  295.1352670326821
5.0E-4                    -0.0155                  295.07875480873975
5.0E-4                    -0.0145                  295.0299862850021
5.0E-4                    -0.0135                  294.99182345478323
5.0E-4                    -0.0125                  294.9693728325081
5.0E-4                    -0.0115                  294.5865254475656
5.0E-4                    -0.0105                  294.5156245856532
5.0E-4                    -0.0095                  294.3725696710026
5.0E-4                    -0.0085                  294.24452172425225
5.0E-4                    -0.0075                  294.21083159685634
5.0E-4                    -0.0065                  294.22665352285435
5.0E-4                    -0.0055                  294.256485075086
5.0E-4                    -0.0045                  294.31270312335846
5.0E-4                    -0.0035                  294.5828911431166
5.0E-4                    -0.0025                  295.32109097184707
5.0E-4                    -0.0015                  295.21123547557113
5.0E-4                    -5.0E-4                  295.106103516998
5.0E-4                    5.0E-4                   295.00829461850725
5.0E-4                    0.0015                   294.9392673585395
5.0E-4                    0.0025                   294.89026492647486
5.0E-4                    0.0035                   294.84240892395195
5.0E-4                    0.0045                   294.7215206751067
5.0E-4                    0.0055                   294.1903924052161
5.0E-4                    0.0065                   293.19875088514357
5.0E-4                    0.0075                   293.150370492674
5.0E-4                    0.0085                   293.149979435677
5.0E-4                    0.0095                   293.2896795003917
5.0E-4                    0.0105                   294.988987082625
5.0E-4                    0.0115                   295.4168138336312
5.0E-4                    0.0125                   295.5150415876918
5.0E-4                    0.0135                   295.54295716775397
5.0E-4                    0.0145                   295.8377605156678
5.0E-4                    0.0155                   296.81157468368286
5.0E-4                    0.0165                   296.8206482253773
5.0E-4                    0.0175                   296.8271088721528
5.0E-4                    0.0185                   296.831150429307
5.0E-4                    0.0195                   296.8333786392137
5.0E-4                    0.0205                   296.83457180969356
5.0E-4                    0.0215                   296.83523533940325
5.0E-4                    0.0225                   296.8358123203719
5.0E-4                    0.0235                   296.8366067438511
5.0E-4                    0.0245                   296.8377493191259
5.0E-4                    0.0255                   296.83928957931244
5.0E-4                    0.0265                   296.84112759723934
5.0E-4                    0.0275                   296.84308951378216
5.0E-4                    0.0285                   296.8449926637523
5.0E-4                    0.0295                   296.8466187466611
5.0E-4                    0.0305                   296.8478106780781
5.0E-4                    0.0315                   296.8485600572475
0.0015                    -0.0315                  295.7011344818307
0.0015                    -0.0305                  295.6962652410619
0.0015                    -0.0295                  295.68640160692416
0.0015                    -0.0285                  295.6714036466993
0.0015                    -0.0275                  295.6515235010215
0.0015                    -0.0265                  295.62676715193305
0.0015                    -0.0255                  295.59678858443897
0.0015                    -0.0245                  295.5616252131439
0.0015                    -0.0235                  295.5215226774275
0.0015                    -0.0225                  295.4766581820842
0.0015                    -0.0215                  295.426741573742
0.0015                    -0.0205                  295.3723473894189
0.0015                    -0.0195                  295.31414740903017
0.0015                    -0.0185                  295.25300004459444
0.0015                    -0.0175                  295.1895525073838
0.0015                    -0.0165                  295.1265174704498
0.0015                    -0.0155                  295.06652427085305
0.0015                    -0.0145                  295.0129191692595
0.0015                    -0.0135                  294.9708560254385
0.0015                    -0.0125                  294.9452150737899
0.0015                    -0.0115                  294.6412344255438
0.0015                    -0.0105                  294.37042272186966
0.0015                    -0.0095                  294.06737239957596
0.0015                    -0.0085                  294.0407609788818
0.0015                    -0.0075                  294.0665467591981
0.0015                    -0.0065                  294.0768861262911
0.0015                    -0.0055                  294.0901695696426
0.0015                    -0.0045                  294.1330304687405
0.0015                    -0.0035                  294.2247454985789
0.0015                    -0.0025                  294.7113338161163
0.0015                    -0.0015                  295.12741745022146
0.0015                    -5.0E-4                  295.12182030073086
0.0015                    5.0E-4                   295.1087884771587
0.0015                    0.0015                   295.1529226390815
0.0015                    0.0025                   295.1964790997265
0.0015                    0.0035                   295.0114228024347
0.0015                    0.0045                   294.6488196933549
0.0015                    0.0055                   294.20185720028843
0.0015                    0.0065                   293.2215935476685
0.0015                    0.0075                   293.150469721161
0.0015                    0.0085                   293.1499409193365
0.0015                    0.0095                   293.39232036695705
0.0015                    0.0105                   294.91962275414204
0.0015                    0.0115                   295.47441738296885
0.0015                    0.0125                   295.8283972130869
0.0015                    0.0135                   295.74931092958104
0.0015                    0.0145                   295.67206993228984
0.0015                    0.0155                   296.80783262878754
0.0015                    0.0165                   296.8183406649472
0.0015                    0.0175                   296.82437480262263
0.0015                    0.0185                   296.8277712615793
0.0015                    0.0195                   296.8293129978742
0.0015                    0.0205                   296.82985247133774
0.0015                    0.0215                   296.83009186289723
0.0015                    0.0225                   296.8303841838074
0.0015                    0.0235                   296.83100991760716
0.0015                    0.0245                   296.83216990241965
0.0015                    0.0255                   296.83379148172986
0.0015                    0.0265                   296.8357868737952
0.0015                    0.0275                   296.83797396851025
0.0015                    0.0285                   296.84006082664234
0.0015                    0.0295                   296.84188950602106
0.0015                    0.0305                   296.8433242097778
0.0015                    0.0315                   296.84388738302
0.0025                    -0.0315                  295.7007592722723
0.0025                    -0.0305                  295.69582311669143
0.0025                    -0.0295                  295.68607922181684
0.0025                    -0.0285                  295.67104581794536
0.0025                    -0.0275                  295.6512164653422
0.0025                    -0.0265                  295.6265603708847
0.0025                    -0.0255                  295.596668001333
0.0025                    -0.0245                  295.5613330971672
0.0025                    -0.0235                  295.5210270997188
0.0025                    -0.0225                  295.4757613166604
0.0025                    -0.0215                  295.4253411096726
0.0025                    -0.0205                  295.3696983506635
0.0025                    -0.0195                  295.30966586004354
0.0025                    -0.0185                  295.24576428613176
0.0025                    -0.0175                  295.17899101731257
0.0025                    -0.0165                  295.1103935773634
0.0025                    -0.0155                  295.0429252098717
0.0025                    -0.0145                  294.98038387064344
0.0025                    -0.0135                  294.9285386930773
0.0025                    -0.0125                  294.8934002275257
0.0025                    -0.0115                  294.57227562471223
0.0025                    -0.0105                  294.0216862362396
0.0025                    -0.0095                  294.0657221830975
0.0025                    -0.0085                  294.2225509737843
0.0025                    -0.0075                  294.29038804708983
0.0025                    -0.0065                  294.25244076906057
0.0025                    -0.0055                  294.1702434175583
0.0025                    -0.0045                  294.109613750615
0.0025                    -0.0035                  294.12395842238413
0.0025                    -0.0025                  294.23935269087184
0.0025                    -0.0015                  294.64654003506115
0.0025                    -5.0E-4                  294.9721357597864
0.0025                    5.0E-4                   295.1109330549561
0.0025                    0.0015                   295.07661255186827
0.0025                    0.0025                   294.91557964779975
0.0025                    0.0035                   294.67902424789787
0.0025                    0.0045                   294.4367141386912
0.0025                    0.0055                   294.0729280238106
0.0025                    0.0065                   293.2254641552116
0.0025                    0.0075                   293.1512011780435
0.0025                    0.0085                   293.1541913219033
0.0025                    0.0095                   293.5180806941906
0.0025                    0.0105                   294.8169729982994
0.0025                    0.0115                   295.41737685034457
0.0025                    0.0125                   296.0265127755327
0.0025                    0.0135                   295.94315294520294
0.0025                    0.0145                   295.71946323638366
0.0025                    0.0155                   296.807577266318
0.0025                    0.0165                   296.8149509878262
0.0025                    0.0175                   296.81915809090094
0.0025                    0.0185                   296.82105368687445
0.0025                    0.0195                   296.82129196978474
0.0025                    0.0205                   296.82068090553247
0.0025                    0.0215                   296.8199717911243
0.0025                    0.0225                   296.8196353940218
0.0025                    0.0235                   296.8200166864845
0.0025                    0.0245                   296.82119625024046
0.0025                    0.0255                   296.8230560391758
0.0025                    0.0265                   296.8254165856225
0.0025                    0.0275                   296.82801498192856
0.0025                    0.0285                   296.83055073339807
0.0025                    0.0295                   296.8327216456903
0.0025                    0.0305                   296.8342965446856
0.0025                    0.0315                   296.83502660368435
0.0035                    -0.0315                  295.7001835457144
0.0035                    -0.0305                  295.6952698076143
0.0035                    -0.0295                  295.6854824056985
0.0035                    -0.0285                  295.67093081647704
0.0035                    -0.0275                  295.651131378336
0.0035                    -0.0265                  295.6263643383387
0.0035                    -0.0255                  295.59642462599925
0.0035                    -0.0245                  295.5613497850887
0.0035                    -0.0235                  295.52085015956226
0.0035                    -0.0225                  295.47491683297386
0.0035                    -0.0215                  295.42359764967875
0.0035                    -0.0205                  295.3667199260762
0.0035                    -0.0195                  295.3042961967215
0.0035                    -0.0185                  295.23676420473396
0.0035                    -0.0175                  295.1644361369109
0.0035                    -0.0165                  295.0873580435356
0.0035                    -0.0155                  295.0090805503662
0.0035                    -0.0145                  294.9318022523557
0.0035                    -0.0135                  294.86450935933215
0.0035                    -0.0125                  294.8097678783561
0.0035                    -0.0115                  294.0338682902269
0.0035                    -0.0105                  294.0347950668279
0.0035                    -0.0095                  294.2618354306373
0.0035                    -0.0085                  294.37643148781257
0.0035                    -0.0075                  294.4213928035982
0.0035                    -0.0065                  294.4071782751656
0.0035                    -0.0055                  294.3220943009881
0.0035                    -0.0045                  294.1756235015625
0.0035                    -0.0035                  294.1221181095061
0.0035                    -0.0025                  294.13902183360324
0.0035                    -0.0015                  294.2613407122976
0.0035                    -5.0E-4                  294.36410070201384
0.0035                    5.0E-4                   294.39646734284474
0.0035                    0.0015                   294.39052086260773
0.0035                    0.0025                   294.3611447546194
0.0035                    0.0035                   294.3276649671244
0.0035                    0.0045                   294.2869172680609
0.0035                    0.0055                   293.92907810756964
0.0035                    0.0065                   293.2110419703289
0.0035                    0.0075                   293.1526409767904
0.0035                    0.0085                   293.1704404194118
0.0035                    0.0095                   293.58822755002626
0.0035                    0.0105                   294.7360975913994
0.0035                    0.0115                   295.297723899868
0.0035                    0.0125                   296.0090932544034
0.0035                    0.0135                   295.94899670413236
0.0035                    0.0145                   295.8206272783863
0.0035                    0.0155                   296.80553522697056
0.0035                    0.0165                   296.80987362564707
0.0035                    0.0175                   296.81141068166784
0.0035                    0.0185                   296.81059357419383
0.0035                    0.0195                   296.8085094023679
0.0035                    0.0205                   296.80605938294036
0.0035                    0.0215                   296.80386852363733
0.0035                    0.0225                   296.8026784708451
0.0035                    0.0235                   296.80271197567316
0.0035                    0.0245                   296.803933805358
0.0035                    0.0255                   296.806250233593
0.0035                    0.0265                   296.80926530428786
0.0035                    0.0275                   296.81250824787446
0.0035                    0.0285                   296.8159013457022
0.0035                    0.0295                   296.81870237309255
0.0035                    0.0305                   296.8207732619577
0.0035                    0.0315                   296.8220277813484
0.0045                    -0.0315                  295.69934230372525
0.0045                    -0.0305                  295.6944701929946
0.0045                    -0.0295                  295.68486364681564
0.0045                    -0.0285                  295.6702154351575
0.0045                    -0.0275                  295.6508989691813
0.0045                    -0.0265                  295.62604760925694
0.0045                    -0.0255                  295.5962442469057
0.0045                    -0.0245                  295.56138807865665
0.0045                    -0.0235                  295.5207096193624
0.0045                    -0.0225                  295.47423098038917
0.0045                    -0.0215                  295.42211442706014
0.0045                    -0.0205                  295.3640084488421
0.0045                    -0.0195                  295.2991536826911
0.0045                    -0.0185                  295.2272849813302
0.0045                    -0.0175                  295.1489097081247
0.0045                    -0.0165                  295.0630272478805
0.0045                    -0.0155                  294.9685972843007
0.0045                    -0.0145                  294.87121502464834
0.0045                    -0.0135                  294.7774850856171
0.0045                    -0.0125                  293.996248971496
0.0045                    -0.0115                  293.9088063600784
0.0045                    -0.0105                  294.15835614426214
0.0045                    -0.0095                  294.2932301648406
0.0045                    -0.0085                  294.376383544591
0.0045                    -0.0075                  294.4192796729008
0.0045                    -0.0065                  294.39683354995657
0.0045                    -0.0055                  294.3189202593809
0.0045                    -0.0045                  294.195444375319
0.0045                    -0.0035                  294.1394022509224
0.0045                    -0.0025                  294.1333746325221
0.0045                    -0.0015                  294.16152878325
0.0045                    -5.0E-4                  294.18846748030205
0.0045                    5.0E-4                   294.18797070882346
0.0045                    0.0015                   294.18317573965874
0.0045                    0.0025                   294.1924892994165
0.0045                    0.0035                   294.2138079951902
0.0045                    0.0045                   294.231097856913
0.0045                    0.0055                   293.7558060313562
0.0045                    0.0065                   293.20305928033946
0.0045                    0.0075                   293.15269714829196
0.0045                    0.0085                   293.18471245559147
0.0045                    0.0095                   293.61482203829115
0.0045                    0.0105                   294.57709362111257
0.0045                    0.0115                   295.17232468751
0.0045                    0.0125                   295.9017953146084
0.0045                    0.0135                   295.91813116867735
0.0045                    0.0145                   295.89854953896696
0.0045                    0.0155                   296.79967734670845
0.0045                    0.0165                   296.802690137294
0.0045                    0.0175                   296.80086768961246
0.0045                    0.0185                   296.79641751840654
0.0045                    0.0195                   296.79129984708743
0.0045                    0.0205                   296.78619749221116
0.0045                    0.0215                   296.7820064553527
0.0045                    0.0225                   296.7800061462304
0.0045                    0.0235                   296.7796008448856
0.0045                    0.0245                   296.7809003807919
0.0045                    0.0255                   296.78402260988616
0.0045                    0.0265                   296.78811003262035
0.0045                    0.0275                   296.79250451938015
0.0045                    0.0285                   296.7968208466127
0.0045                    0.0295                   296.80047060175775
0.0045                    0.0305                   296.8032989874695
0.0045                    0.0315                   296.8048163811738
0.0055                    -0.0315                  295.69818662382295
0.0055                    -0.0305                  295.69340089275306
0.0055                    -0.0295                  295.6839804925358
0.0055                    -0.0285                  295.6695109957091
0.0055                    -0.0275                  295.650380876909
0.0055                    -0.0265                  295.6261421892544
0.0055                    -0.0255                  295.5965932566956
0.0055                    -0.0245                  295.56183378026225
0.0055                    -0.0235                  295.5212579747277
0.0055                    -0.0225                  295.47475891627073
0.0055                    -0.0215                  295.4219242247601
0.0055                    -0.0205                  295.3621441111286
0.0055                    -0.0195                  295.29536342460426
0.0055                    -0.0185                  295.220276807421
0.0055                    -0.0175                  295.1365083672297
0.0055                    -0.0165                  295.0407375083989
0.0055                    -0.0155                  294.92863267873815
0.0055                    -0.0145                  294.7967657897758
0.0055                    -0.0135                  294.15407322753987
0.0055                    -0.0125                  293.7283371278312
0.0055                    -0.0115                  293.8801787367398
0.0055                    -0.0105                  294.07584446714714
0.0055                    -0.0095                  294.1912379965338
0.0055                    -0.0085                  294.25675363698514
0.0055                    -0.0075                  294.27757190846455
0.0055                    -0.0065                  294.25776192197304
0.0055                    -0.0055                  294.20131626204187
0.0055                    -0.0045                  294.1601594562072
0.0055                    -0.0035                  294.137439146846
0.0055                    -0.0025                  294.09754027929296
0.0055                    -0.0015                  294.07195368982457
0.0055                    -5.0E-4                  294.0649791754031
0.0055                    5.0E-4                   294.11093359745155
0.0055                    0.0015                   294.14808698497086
0.0055                    0.0025                   294.16763234964225
0.0055                    0.0035                   294.18823480769635
0.0055                    0.0045                   294.11826976244697
0.0055                    0.0055                   293.5719837754206
0.0055                    0.0065                   293.1846625165795
0.0055                    0.0075                   293.15496008557614
0.0055                    0.0085                   293.203995381149
0.0055                    0.0095                   293.65701172702467
0.0055                    0.0105                   294.481153856361
0.0055                    0.0115                   295.0301368209227
0.0055                    0.0125                   295.7911758693518
0.0055                    0.0135                   295.96428317939274
0.0055                    0.0145                   295.88233410682034
0.0055                    0.0155                   296.5392767350842
0.0055                    0.0165                   296.79465322648207
0.0055                    0.0175                   296.78750824288784
0.0055                    0.0185                   296.77822737241263
0.0055                    0.0195                   296.76827323022474
0.0055                    0.0205                   296.7597804699932
0.0055                    0.0215                   296.7533137264354
0.0055                    0.0225                   296.749290037893
0.0055                    0.0235                   296.7488259533335
0.0055                    0.0245                   296.75088989370715
0.0055                    0.0255                   296.7551701595919
0.0055                    0.0265                   296.7608489018892
0.0055                    0.0275                   296.7670376245903
0.0055                    0.0285                   296.77308857392967
0.0055                    0.0295                   296.7783359854302
0.0055                    0.0305                   296.78205135737625
0.0055                    0.0315                   296.78387528753115
0.0065                    -0.0315                  295.6966668031246
0.0065                    -0.0305                  295.6919959432423
0.0065                    -0.0295                  295.68274442049346
0.0065                    -0.0285                  295.66855324306226
0.0065                    -0.0275                  295.64987800823224
0.0065                    -0.0265                  295.6259103937611
0.0065                    -0.0255                  295.59714818063435
0.0065                    -0.0245                  295.562647511231
0.0065                    -0.0235                  295.52281779621495
0.0065                    -0.0225                  295.4762453618957
0.0065                    -0.0215                  295.4235030779144
0.0065                    -0.0205                  295.3627810727048
0.0065                    -0.0195                  295.29384529207755
0.0065                    -0.0185                  295.21676753316785
0.0065                    -0.0175                  295.1304247197128
0.0065                    -0.0165                  295.0302584751667
0.0065                    -0.0155                  294.9021219969163
0.0065                    -0.0145                  294.0969155692485
0.0065                    -0.0135                  293.65982207021904
0.0065                    -0.0125                  293.6558871565125
0.0065                    -0.0115                  293.6778847723436
0.0065                    -0.0105                  293.74597988509925
0.0065                    -0.0095                  293.85559936778515
0.0065                    -0.0085                  293.9503809623154
0.0065                    -0.0075                  294.00478529489976
0.0065                    -0.0065                  293.98797109059797
0.0065                    -0.0055                  293.95366227604154
0.0065                    -0.0045                  293.8489585732568
0.0065                    -0.0035                  293.71066547437675
0.0065                    -0.0025                  293.6243725928882
0.0065                    -0.0015                  293.582891506191
0.0065                    -5.0E-4                  293.5664057177826
0.0065                    5.0E-4                   293.5598497092768
0.0065                    0.0015                   293.5700852539569
0.0065                    0.0025                   293.6153207686324
0.0065                    0.0035                   293.64001776229543
0.0065                    0.0045                   293.5795109546357
0.0065                    0.0055                   293.3523759338599
0.0065                    0.0065                   293.1778705358256
0.0065                    0.0075                   293.1570889211165
0.0065                    0.0085                   293.2116959510561
0.0065                    0.0095                   293.5975137798091
0.0065                    0.0105                   294.42227519845085
0.0065                    0.0115                   294.8802192753137