% Model:              模型结构导入comsolBench.mph
% Version:            COMSOL 6.2.0.339
% Date:               May 28 2026, 17:29
% Dimension:          2
% Nodes:              4096
% Expressions:        1
% Description:        温度
% Length unit:        m
% x                       y                        T (K)
5.0E-4                    -0.0315                  302.8423146069524
5.0E-4                    -0.0305                  302.8296867102282
5.0E-4                    -0.0295                  302.81705608878787
5.0E-4                    -0.0285                  302.8044254673475
5.0E-4                    -0.0275                  302.78492426684807
5.0E-4                    -0.0265                  302.747021857047
5.0E-4                    -0.0255                  302.709119447246
5.0E-4                    -0.0245                  302.67121703744493
5.0E-4                    -0.0235                  302.6246427957849
5.0E-4                    -0.0225                  302.56554553826624
5.0E-4                    -0.0215                  302.50644828074763
5.0E-4                    -0.0205                  302.4418607354593
5.0E-4                    -0.0195                  302.36944774881886
5.0E-4                    -0.0185                  302.295792470104
5.0E-4                    -0.0175                  302.2192933999113
5.0E-4                    -0.0165                  302.1437311119091
5.0E-4                    -0.0155                  302.07554356184727
5.0E-4                    -0.0145                  302.0195529469403
5.0E-4                    -0.0135                  301.9865257507122
5.0E-4                    -0.0125                  301.22873429964204
5.0E-4                    -0.0115                  299.7186050733744
5.0E-4                    -0.0105                  298.16931172636396
5.0E-4                    -0.0095                  297.41781560142334
5.0E-4                    -0.0085                  297.2176116550891
5.0E-4                    -0.0075                  297.22439010432566
5.0E-4                    -0.0065                  297.21157923285637
5.0E-4                    -0.0055                  297.21349034580857
5.0E-4                    -0.0045                  297.2421736571246
5.0E-4                    -0.0035                  297.27829047186844
5.0E-4                    -0.0025                  297.3144125942532
5.0E-4                    -0.0015                  297.34753397046165
5.0E-4                    -5.0E-4                  297.3986675738001
5.0E-4                    5.0E-4                   297.4442301657732
5.0E-4                    0.0015                   297.49155298957305
5.0E-4                    0.0025                   297.5628955122047
5.0E-4                    0.0035                   297.64772608391263
5.0E-4                    0.0045                   297.68647320941585
5.0E-4                    0.0055                   296.82723505076046
5.0E-4                    0.0065                   293.2891476883252
5.0E-4                    0.0075                   293.1522857886801
5.0E-4                    0.0085                   293.15130900354086
5.0E-4                    0.0095                   293.348265507253
5.0E-4                    0.0105                   297.424920714583
5.0E-4                    0.0115                   298.753021104407
5.0E-4                    0.0125                   299.1005802600737
5.0E-4                    0.0135                   299.47643236363945
5.0E-4                    0.0145                   299.9893739443703
5.0E-4                    0.0155                   300.33426528179655
5.0E-4                    0.0165                   299.9722282115941
5.0E-4                    0.0175                   299.9674257977582
5.0E-4                    0.0185                   299.96601595259773
5.0E-4                    0.0195                   299.96781948449757
5.0E-4                    0.0205                   299.9726368703591
5.0E-4                    0.0215                   299.9804213302958
5.0E-4                    0.0225                   299.98983012295434
5.0E-4                    0.0235                   300.0011834099102
5.0E-4                    0.0245                   300.0127469764474
5.0E-4                    0.0255                   300.02460254698
5.0E-4                    0.0265                   300.0351653962111
5.0E-4                    0.0275                   300.0457282454421
5.0E-4                    0.0285                   300.0551898381673
5.0E-4                    0.0295                   300.05960933189397
5.0E-4                    0.0305                   300.0640288256206
5.0E-4                    0.0315                   300.0682206691956
0.0015                    -0.0315                  302.84313688444354
0.0015                    -0.0305                  302.8343127754765
0.0015                    -0.0295                  302.8216903281848
0.0015                    -0.0285                  302.8069669283485
0.0015                    -0.0275                  302.78390776842525
0.0015                    -0.0265                  302.7517681039169
0.0015                    -0.0255                  302.71386569411584
0.0015                    -0.0245                  302.67070199197127
0.0015                    -0.0235                  302.6247329268406
0.0015                    -0.0225                  302.5695390961273
0.0015                    -0.0215                  302.5065663153453
0.0015                    -0.0205                  302.4396731620522
0.0015                    -0.0195                  302.3695311646588
0.0015                    -0.0185                  302.29220588654584
0.0015                    -0.0175                  302.21386048226077
0.0015                    -0.0165                  302.1360450244613
0.0015                    -0.0155                  302.05893356722817
0.0015                    -0.0145                  301.99220244595625
0.0015                    -0.0135                  301.947774082468
0.0015                    -0.0125                  300.0159682975236
0.0015                    -0.0115                  296.9815512241215
0.0015                    -0.0105                  295.6060434863181
0.0015                    -0.0095                  295.53061529046886
0.0015                    -0.0085                  295.7599375246542
0.0015                    -0.0075                  295.7804928010762
0.0015                    -0.0065                  295.9928969872889
0.0015                    -0.0055                  296.0689900058065
0.0015                    -0.0045                  296.23896722940026
0.0015                    -0.0035                  296.3779933399757
0.0015                    -0.0025                  296.465361789678
0.0015                    -0.0015                  296.55486686000745
0.0015                    -5.0E-4                  296.5960609161402
0.0015                    5.0E-4                   296.65266976693215
0.0015                    0.0015                   296.7404302536622
0.0015                    0.0025                   296.77118551802556
0.0015                    0.0035                   296.8662179443167
0.0015                    0.0045                   296.87307722955285
0.0015                    0.0055                   296.2285571650044
0.0015                    0.0065                   293.4672358314157
0.0015                    0.0075                   293.1542276428864
0.0015                    0.0085                   293.14802655848814
0.0015                    0.0095                   293.5019824949643
0.0015                    0.0105                   296.08670489476367
0.0015                    0.0115                   296.7344757840206
0.0015                    0.0125                   297.27719559221566
0.0015                    0.0135                   297.92792922816045
0.0015                    0.0145                   298.90923276902583
0.0015                    0.0155                   299.7161575404266
0.0015                    0.0165                   300.10458566516553
0.0015                    0.0175                   299.9587737381953
0.0015                    0.0185                   299.95709200411363
0.0015                    0.0195                   299.9597922142686
0.0015                    0.0205                   299.96576364595353
0.0015                    0.0215                   299.9742253690419
0.0015                    0.0225                   299.98463989387267
0.0015                    0.0235                   299.99521744462845
0.0015                    0.0245                   300.0072911662116
0.0015                    0.0255                   300.0197715189525
0.0015                    0.0265                   300.031083437835
0.0015                    0.0275                   300.0411778629865
0.0015                    0.0285                   300.05026898009896
0.0015                    0.0295                   300.0575172468759
0.0015                    0.0305                   300.06125379014776
0.0015                    0.0315                   300.063126614633
0.0025                    -0.0315                  302.8439591619348
0.0025                    -0.0305                  302.8351350529677
0.0025                    -0.0295                  302.8263109440006
0.0025                    -0.0285                  302.80515915075705
0.0025                    -0.0275                  302.7820999908338
0.0025                    -0.0265                  302.7565143507868
0.0025                    -0.0255                  302.71463682011984
0.0025                    -0.0245                  302.66866775498926
0.0025                    -0.0235                  302.6226986898586
0.0025                    -0.0225                  302.5715244961468
0.0025                    -0.0215                  302.5049931104214
0.0025                    -0.0205                  302.4384617246961
0.0025                    -0.0195                  302.3657672162575
0.0025                    -0.0185                  302.28479363614997
0.0025                    -0.0175                  302.2028853135521
0.0025                    -0.0165                  302.1157375714363
0.0025                    -0.0155                  302.03024538443583
0.0025                    -0.0145                  301.9435986281526
0.0025                    -0.0135                  301.8674342969123
0.0025                    -0.0125                  298.8648948515126
0.0025                    -0.0115                  295.3869059897303
0.0025                    -0.0105                  295.1015459769993
0.0025                    -0.0095                  295.227175039866
0.0025                    -0.0085                  295.29624702723487
0.0025                    -0.0075                  295.3441080518258
0.0025                    -0.0065                  295.4839153899126
0.0025                    -0.0055                  295.5464662694511
0.0025                    -0.0045                  295.65985468445183
0.0025                    -0.0035                  295.76785425595244
0.0025                    -0.0025                  295.8893211797261
0.0025                    -0.0015                  295.9718690900195
0.0025                    -5.0E-4                  296.04087198616185
0.0025                    5.0E-4                   296.14335177571525
0.0025                    0.0015                   296.2196830399463
0.0025                    0.0025                   296.2878301391137
0.0025                    0.0035                   296.3801150112265
0.0025                    0.0045                   296.4229830244992
0.0025                    0.0055                   295.6854233950519
0.0025                    0.0065                   293.6651699851808
0.0025                    0.0075                   293.15879180588536
0.0025                    0.0085                   293.14100092828886
0.0025                    0.0095                   293.7052894209182
0.0025                    0.0105                   295.1705676484424
0.0025                    0.0115                   295.84772422613196
0.0025                    0.0125                   296.045469063386
0.0025                    0.0135                   296.4163244056301
0.0025                    0.0145                   297.1698474308399
0.0025                    0.0155                   298.48220687330144
0.0025                    0.0165                   299.57286352557986
0.0025                    0.0175                   299.9403537591359
0.0025                    0.0185                   299.9408685299846
0.0025                    0.0195                   299.94433148853125
0.0025                    0.0205                   299.94892164546235
0.0025                    0.0215                   299.9566781623622
0.0025                    0.0225                   299.9687924199493
0.0025                    0.0235                   299.9825338493745
0.0025                    0.0245                   299.9971600791548
0.0025                    0.0255                   300.0117047237781
0.0025                    0.0265                   300.02624936840135
0.0025                    0.0275                   300.03559727448413
0.0025                    0.0285                   300.04427040389345
0.0025                    0.0295                   300.0525097655641
0.0025                    0.0305                   300.0561597355851
0.0025                    0.0315                   300.0580325600704
0.0035                    -0.0315                  302.84478143942596
0.0035                    -0.0305                  302.8363303888803
0.0035                    -0.0295                  302.8287323557277
0.0035                    -0.0285                  302.80886214276745
0.0035                    -0.0275                  302.78478010422464
0.0035                    -0.0265                  302.7599447950024
0.0035                    -0.0255                  302.7188619942411
0.0035                    -0.0245                  302.67450438681254
0.0035                    -0.0235                  302.63014677938395
0.0035                    -0.0225                  302.5759310245337
0.0035                    -0.0215                  302.50901649533256
0.0035                    -0.0205                  302.44092873066404
0.0035                    -0.0195                  302.3635149228952
0.0035                    -0.0185                  302.27733517755485
0.0035                    -0.0175                  302.18947386524115
0.0035                    -0.0165                  302.09312121461386
0.0035                    -0.0155                  301.9939295238203
0.0035                    -0.0145                  301.8864303683971
0.0035                    -0.0135                  301.71724030239346
0.0035                    -0.0125                  297.7002545270896
0.0035                    -0.0115                  294.8179592275676
0.0035                    -0.0105                  295.0852138189441
0.0035                    -0.0095                  295.2333712829063
0.0035                    -0.0085                  295.3577310555692
0.0035                    -0.0075                  295.43896551152227
0.0035                    -0.0065                  295.4447450644439
0.0035                    -0.0055                  295.5600274001432
0.0035                    -0.0045                  295.64139273209656
0.0035                    -0.0035                  295.6759326647391
0.0035                    -0.0025                  295.73897575080247
0.0035                    -0.0015                  295.78566437214346
0.0035                    -5.0E-4                  295.9072806316653
0.0035                    5.0E-4                   295.95529761837327
0.0035                    0.0015                   296.0973219366026
0.0035                    0.0025                   296.14719267687826
0.0035                    0.0035                   296.1225412050067
0.0035                    0.0045                   296.02210276350394
0.0035                    0.0055                   295.0779632790418
0.0035                    0.0065                   293.7147647835453
0.0035                    0.0075                   293.22674206117694
0.0035                    0.0085                   293.15760894314724
0.0035                    0.0095                   293.54023611321975
0.0035                    0.0105                   294.70696135687086
0.0035                    0.0115                   295.6190077102386
0.0035                    0.0125                   295.5644347170145
0.0035                    0.0135                   295.5121593168247
0.0035                    0.0145                   295.8111669940507
0.0035                    0.0155                   296.38180206930826
0.0035                    0.0165                   298.4893428637068
0.0035                    0.0175                   299.91442689561774
0.0035                    0.0185                   299.9184698093991
0.0035                    0.0195                   299.9201413653866
0.0035                    0.0205                   299.9247958242159
0.0035                    0.0215                   299.9382828785219
0.0035                    0.0225                   299.9503717903639
0.0035                    0.0235                   299.9651867242978
0.0035                    0.0245                   299.97988015408595
0.0035                    0.0255                   299.99442479870925
0.0035                    0.0265                   300.0113660976008
0.0035                    0.0275                   300.0248061256753
0.0035                    0.0285                   300.0355888340803
0.0035                    0.0295                   300.04269282190023
0.0035                    0.0305                   300.04849714794886
0.0035                    0.0315                   300.0529385055077
0.0045                    -0.0315                  302.84670395614035
0.0045                    -0.0305                  302.8391059229877
0.0045                    -0.0295                  302.83150788983505
0.0045                    -0.0285                  302.8142644202859
0.0045                    -0.0275                  302.7898119102445
0.0045                    -0.0265                  302.7634441428793
0.0045                    -0.0255                  302.72492779300404
0.0045                    -0.0245                  302.68254080100695
0.0045                    -0.0235                  302.63302056527493
0.0045                    -0.0225                  302.5786467602267
0.0045                    -0.0215                  302.5133819345634
0.0045                    -0.0205                  302.4407771991189
0.0045                    -0.0195                  302.36120759511687
0.0045                    -0.0185                  302.2722557355853
0.0045                    -0.0175                  302.17397225353125
0.0045                    -0.0165                  302.06960780498406
0.0045                    -0.0155                  301.95712774246783
0.0045                    -0.0145                  301.8478591425454
0.0045                    -0.0135                  297.4333531400829
0.0045                    -0.0125                  295.14228328635534
0.0045                    -0.0115                  294.87132000246413
0.0045                    -0.0105                  294.99205821179066
0.0045                    -0.0095                  295.1106943611798
0.0045                    -0.0085                  295.16109484938113
0.0045                    -0.0075                  295.20113238376945
0.0045                    -0.0065                  295.2577624879232
0.0045                    -0.0055                  295.2511572972766
0.0045                    -0.0045                  295.26056227832004
0.0045                    -0.0035                  295.2763544761109
0.0045                    -0.0025                  295.267673843046
0.0045                    -0.0015                  295.33854696464624
0.0045                    -5.0E-4                  295.51228509336477
0.0045                    5.0E-4                   295.5448853030932
0.0045                    0.0015                   295.5303571973602
0.0045                    0.0025                   295.6234463323363
0.0045                    0.0035                   295.5865201327714
0.0045                    0.0045                   295.29728892672335
0.0045                    0.0055                   294.4998756433077
0.0045                    0.0065                   293.6768631269131
0.0045                    0.0075                   293.2421240846528
0.0045                    0.0085                   293.1707500814741
0.0045                    0.0095                   293.3980236908017
0.0045                    0.0105                   294.1358298520944
0.0045                    0.0115                   295.0165502518919
0.0045                    0.0125                   295.4583618410071
0.0045                    0.0135                   295.3933423665753
0.0045                    0.0145                   295.34515258991695
0.0045                    0.0155                   295.3897766405475
0.0045                    0.0165                   296.03092924787967
0.0045                    0.0175                   298.38358818303004
0.0045                    0.0185                   299.89048912648536
0.0045                    0.0195                   299.88619107676016
0.0045                    0.0205                   299.8915363333747
0.0045                    0.0215                   299.9048922363929
0.0045                    0.0225                   299.9245087118011
0.0045                    0.0235                   299.9461076745482
0.0045                    0.0245                   299.96260022901714
0.0045                    0.0255                   299.9793793342184
0.0045                    0.0265                   299.99653209404454
0.0045                    0.0275                   300.0110192724259
0.0045                    0.0285                   300.02338857714216
0.0045                    0.0295                   300.0313023031747
0.0045                    0.0305                   300.0373610121858
0.0045                    0.0315                   300.0434197211969
0.0055                    -0.0315                  302.8513499168371
0.0055                    -0.0305                  302.84273095584115
0.0055                    -0.0295                  302.83428342394245
0.0055                    -0.0285                  302.81966669780434
0.0055                    -0.0275                  302.7933112581214
0.0055                    -0.0265                  302.76694349075615
0.0055                    -0.0255                  302.72966752493903
0.0055                    -0.0245                  302.6905355708563
0.0055                    -0.0235                  302.6402658417376
0.0055                    -0.0225                  302.5860997025229
0.0055                    -0.0215                  302.52068498681535
0.0055                    -0.0205                  302.4468483403746
0.0055                    -0.0195                  302.3635872338681
0.0055                    -0.0185                  302.26977331275725
0.0055                    -0.0175                  302.1637730926037
0.0055                    -0.0165                  302.0435308952518
0.0055                    -0.0155                  301.9151326467056
0.0055                    -0.0145                  301.780072807425
0.0055                    -0.0135                  295.3098823980037
0.0055                    -0.0125                  294.7571440796341
0.0055                    -0.0115                  294.7506493555118
0.0055                    -0.0105                  294.7508302918329
0.0055                    -0.0095                  294.7470992048463
0.0055                    -0.0085                  294.752954440074
0.0055                    -0.0075                  294.7959300030957
0.0055                    -0.0065                  294.732726702806
0.0055                    -0.0055                  294.72347859787516
0.0055                    -0.0045                  294.63355020509755
0.0055                    -0.0035                  294.519590992682
0.0055                    -0.0025                  294.53116412241104
0.0055                    -0.0015                  294.45759803014835
0.0055                    -5.0E-4                  294.4451293265878
0.0055                    5.0E-4                   294.47814870128576
0.0055                    0.0015                   294.49239551386137
0.0055                    0.0025                   294.5264943719829
0.0055                    0.0035                   294.4738266096457
0.0055                    0.0045                   294.27531108460573
0.0055                    0.0055                   293.92491185057304
0.0055                    0.0065                   293.50359058632455
0.0055                    0.0075                   293.23469861880784
0.0055                    0.0085                   293.18912470218373
0.0055                    0.0095                   293.28370862137564
0.0055                    0.0105                   293.68919378377507
0.0055                    0.0115                   294.29536371294785
0.0055                    0.0125                   294.96325365869626
0.0055                    0.0135                   295.2878107575908
0.0055                    0.0145                   295.268654110624
0.0055                    0.0155                   295.19611987468033
0.0055                    0.0165                   295.12273764248135
0.0055                    0.0175                   295.92234431794776
0.0055                    0.0185                   299.013780407416
0.0055                    0.0195                   299.83196731277314
0.0055                    0.0205                   299.84678569678033
0.0055                    0.0215                   299.86909696214036
0.0055                    0.0225                   299.89275794563866
0.0055                    0.0235                   299.91461650729514
0.0055                    0.0245                   299.93922368253965
0.0055                    0.0255                   299.96145634059724
0.0055                    0.0265                   299.9783104385051
0.0055                    0.0275                   299.9956188976571
0.0055                    0.0285                   300.0101937659532
0.0055                    0.0295                   300.0183090863539
0.0055                    0.0305                   300.02419883962307
0.0055                    0.0315                   300.0298289967694
0.0065                    -0.0315                  302.85603103189374
0.0065                    -0.0305                  302.84741207089786
0.0065                    -0.0295                  302.8390025416769
0.0065                    -0.0285                  302.8255438788642
0.0065                    -0.0275                  302.7997515014483
0.0065                    -0.0265                  302.77315222320414
0.0065                    -0.0255                  302.7389624848789
0.0065                    -0.0245                  302.6991927089258
0.0065                    -0.0235                  302.65017968357296
0.0065                    -0.0225                  302.5946077489826
0.0065                    -0.0215                  302.5322140430216
0.0065                    -0.0205                  302.45679967161925
0.0065                    -0.0195                  302.37062578654576
0.0065                    -0.0185                  302.27288128913136
0.0065                    -0.0175                  302.1624682727368
0.0065                    -0.0165                  302.0294913211067
0.0065                    -0.0155                  301.8573287709796
0.0065                    -0.0145                  297.464045644196
0.0065                    -0.0135                  294.72849457846945
0.0065                    -0.0125                  294.61053763207644
0.0065                    -0.0115                  294.5664452402404
0.0065                    -0.0105                  294.5392600459696
0.0065                    -0.0095                  294.5199879654781
0.0065                    -0.0085                  294.49245358600206
0.0065                    -0.0075                  294.4159891577479
0.0065                    -0.0065                  294.38317014650744
0.0065                    -0.0055                  294.2622968573934
0.0065                    -0.0045                  294.2354088373265
0.0065                    -0.0035                  294.1437114837983
0.0065                    -0.0025                  294.0536389757226
0.0065                    -0.0015                  293.97439609110484
0.0065                    -5.0E-4                  293.88022046806753
0.0065                    5.0E-4                   293.8069710742001
0.0065                    0.0015                   293.75892368217416
0.0065                    0.0025                   293.6802248482547
0.0065                    0.0035                   293.6269081924444
0.0065                    0.0045                   293.5693129896742
0.0065                    0.0055                   293.467758514475
0.0065                    0.0065                   293.33795493163353
0.0065                    0.0075                   293.2714041956102
0.0065                    0.0085                   293.7735117670085
0.0065                    0.0095                   293.3251185844064
0.0065                    0.0105                   293.3479399604274
0.0065                    0.0115                   293.6503522597294