% Model:              模型结构导入comsolBench.mph
% Version:            COMSOL 6.2.0.339
% Date:               May 29 2026, 11:20
% Dimension:          2
% Nodes:              4096
% Expressions:        1
% Description:        温度
% Length unit:        m
% x                       y                        T (K)
5.0E-4                    -0.0315                  303.2654454645156
5.0E-4                    -0.0305                  303.25993903994686
5.0E-4                    -0.0295                  303.25441532883906
5.0E-4                    -0.0285                  303.2464629324327
5.0E-4                    -0.0275                  303.2337052955841
5.0E-4                    -0.0265                  303.220063283189
5.0E-4                    -0.0255                  303.203471899591
5.0E-4                    -0.0245                  303.1860355682483
5.0E-4                    -0.0235                  303.1681318502925
5.0E-4                    -0.0225                  303.1511526514596
5.0E-4                    -0.0215                  303.13661248629927
5.0E-4                    -0.0205                  300.6345060846901
5.0E-4                    -0.0195                  293.715903335511
5.0E-4                    -0.0185                  293.16382091661126
5.0E-4                    -0.0175                  293.1562301742674
5.0E-4                    -0.0165                  293.1548888399586
5.0E-4                    -0.0155                  293.15437619973693
5.0E-4                    -0.0145                  293.1543915364349
5.0E-4                    -0.0135                  293.15537939592656
5.0E-4                    -0.0125                  293.2181244656416
5.0E-4                    -0.0115                  298.794878170559
5.0E-4                    -0.0105                  300.56420467136
5.0E-4                    -0.0095                  300.4595510776278
5.0E-4                    -0.0085                  300.341675047223
5.0E-4                    -0.0075                  300.24023619504544
5.0E-4                    -0.0065                  300.16715431542804
5.0E-4                    -0.0055                  300.09814457034486
5.0E-4                    -0.0045                  300.03533978485444
5.0E-4                    -0.0035                  300.01319391616346
5.0E-4                    -0.0025                  299.9939940549019
5.0E-4                    -0.0015                  299.97684949440827
5.0E-4                    -5.0E-4                  299.99423784053914
5.0E-4                    5.0E-4                   300.0355479525265
5.0E-4                    0.0015                   300.1099334598657
5.0E-4                    0.0025                   300.22502059133484
5.0E-4                    0.0035                   300.3424169653478
5.0E-4                    0.0045                   300.48260655563973
5.0E-4                    0.0055                   300.67571463889425
5.0E-4                    0.0065                   300.8535477725126
5.0E-4                    0.0075                   301.0215914948549
5.0E-4                    0.0085                   301.383665926979
5.0E-4                    0.0095                   302.3978545338996
5.0E-4                    0.0105                   304.26734366246535
5.0E-4                    0.0115                   306.3108576420792
5.0E-4                    0.0125                   307.38427437305853
5.0E-4                    0.0135                   307.41469865191095
5.0E-4                    0.0145                   307.46262127285263
5.0E-4                    0.0155                   307.5207614778735
5.0E-4                    0.0165                   307.5862006753521
5.0E-4                    0.0175                   307.65170754053867
5.0E-4                    0.0185                   307.71620906465336
5.0E-4                    0.0195                   307.77802743065564
5.0E-4                    0.0205                   307.8381243368305
5.0E-4                    0.0215                   307.8877710935519
5.0E-4                    0.0225                   307.93691590133454
5.0E-4                    0.0235                   307.9847150737458
5.0E-4                    0.0245                   308.02093065825716
5.0E-4                    0.0255                   308.05194703083976
5.0E-4                    0.0265                   308.08296340342224
5.0E-4                    0.0275                   308.1132297755191
5.0E-4                    0.0285                   308.1292746994181
5.0E-4                    0.0295                   308.1397550328611
5.0E-4                    0.0305                   308.1502353663042
5.0E-4                    0.0315                   308.16063962238337
0.0015                    -0.0315                  303.2615180858011
0.0015                    -0.0305                  303.25834054409466
0.0015                    -0.0295                  303.2528686926043
0.0015                    -0.0285                  303.2433381157443
0.0015                    -0.0275                  303.23240606823947
0.0015                    -0.0265                  303.2170830333571
0.0015                    -0.0255                  303.2004338160896
0.0015                    -0.0245                  303.1812606524247
0.0015                    -0.0235                  303.1617344520302
0.0015                    -0.0225                  303.1437118853621
0.0015                    -0.0215                  303.12613571234533
0.0015                    -0.0205                  300.156039099918
0.0015                    -0.0195                  294.09088048520294
0.0015                    -0.0185                  293.2307217855425
0.0015                    -0.0175                  293.1688904494636
0.0015                    -0.0165                  293.1645520266017
0.0015                    -0.0155                  293.16319052555485
0.0015                    -0.0145                  293.1630402110151
0.0015                    -0.0135                  293.1616753073951
0.0015                    -0.0125                  293.19793887344866
0.0015                    -0.0115                  296.68379944539583
0.0015                    -0.0105                  299.5629031267041
0.0015                    -0.0095                  299.56645490306653
0.0015                    -0.0085                  299.41391484434905
0.0015                    -0.0075                  299.25274499081024
0.0015                    -0.0065                  299.04060499397065
0.0015                    -0.0055                  298.87957287199254
0.0015                    -0.0045                  298.762339215019
0.0015                    -0.0035                  298.5615152250305
0.0015                    -0.0025                  298.42263960590645
0.0015                    -0.0015                  298.3609610138441
0.0015                    -5.0E-4                  298.27634815001403
0.0015                    5.0E-4                   298.2112788954475
0.0015                    0.0015                   298.1920229408223
0.0015                    0.0025                   298.1436739751959
0.0015                    0.0035                   298.12833057830306
0.0015                    0.0045                   298.1684432664589
0.0015                    0.0055                   298.13345156981023
0.0015                    0.0065                   298.0126882683137
0.0015                    0.0075                   297.85689357111715
0.0015                    0.0085                   297.42943309840473
0.0015                    0.0095                   297.852666727154
0.0015                    0.0105                   299.62812845944325
0.0015                    0.0115                   304.4529435372056
0.0015                    0.0125                   307.35138895870824
0.0015                    0.0135                   307.3930176815019
0.0015                    0.0145                   307.44674079050463
0.0015                    0.0155                   307.51240632315256
0.0015                    0.0165                   307.58102733248177
0.0015                    0.0175                   307.6482400924953
0.0015                    0.0185                   307.7152531268225
0.0015                    0.0195                   307.7766000986829
0.0015                    0.0205                   307.8354411541287
0.0015                    0.0215                   307.8901117416308
0.0015                    0.0225                   307.93925654941336
0.0015                    0.0235                   307.9813083541824
0.0015                    0.0245                   308.0225034808559
0.0015                    0.0255                   308.05502571543025
0.0015                    0.0265                   308.0860420880128
0.0015                    0.0275                   308.1097205610709
0.0015                    0.0285                   308.13044110953956
0.0015                    0.0295                   308.14231458165887
0.0015                    0.0305                   308.15256668301055
0.0015                    0.0315                   308.15910925505085
0.0025                    -0.0315                  303.2575907070865
0.0025                    -0.0305                  303.2544131653802
0.0025                    -0.0295                  303.25071747966877
0.0025                    -0.0285                  303.2388115991386
0.0025                    -0.0275                  303.22684599138495
0.0025                    -0.0265                  303.2105295044914
0.0025                    -0.0255                  303.1928912018476
0.0025                    -0.0245                  303.1727439037041
0.0025                    -0.0235                  303.15030799687344
0.0025                    -0.0225                  303.12872998409983
0.0025                    -0.0215                  303.1089062912386
0.0025                    -0.0205                  300.0603930628195
0.0025                    -0.0195                  294.95851186031683
0.0025                    -0.0185                  293.37264001990144
0.0025                    -0.0175                  293.18797834087883
0.0025                    -0.0165                  293.17607573066414
0.0025                    -0.0155                  293.1724970508013
0.0025                    -0.0145                  293.17193592065274
0.0025                    -0.0135                  293.1676691360401
0.0025                    -0.0125                  293.2392911193109
0.0025                    -0.0115                  294.9817754082674
0.0025                    -0.0105                  298.20573187357456
0.0025                    -0.0095                  298.69205989115164
0.0025                    -0.0085                  298.60984899920487
0.0025                    -0.0075                  298.4416090748144
0.0025                    -0.0065                  298.24646238527214
0.0025                    -0.0055                  298.0935009729219
0.0025                    -0.0045                  297.8970554028429
0.0025                    -0.0035                  297.7420564463734
0.0025                    -0.0025                  297.5965505062106
0.0025                    -0.0015                  297.3150486939156
0.0025                    -5.0E-4                  297.1520958264316
0.0025                    5.0E-4                   296.98189170735407
0.0025                    0.0015                   296.8651050872725
0.0025                    0.0025                   296.8583423268125
0.0025                    0.0035                   296.794987690185
0.0025                    0.0045                   296.7250424777039
0.0025                    0.0055                   296.76705277468767
0.0025                    0.0065                   296.73348192817684
0.0025                    0.0075                   296.62993747194696
0.0025                    0.0085                   296.48459102829133
0.0025                    0.0095                   296.2961797135498
0.0025                    0.0105                   297.0691134983547
0.0025                    0.0115                   302.69107207948116
0.0025                    0.0125                   307.28966114638683
0.0025                    0.0135                   307.3495059594261
0.0025                    0.0145                   307.42005554143424
0.0025                    0.0155                   307.49303069494465
0.0025                    0.0165                   307.5681194820634
0.0025                    0.0175                   307.6403828308938
0.0025                    0.0185                   307.70910246372296
0.0025                    0.0195                   307.7740805492217
0.0025                    0.0205                   307.8328003254208
0.0025                    0.0215                   307.89159902687265
0.0025                    0.0225                   307.9367065079455
0.0025                    0.0235                   307.97790163461895
0.0025                    0.0245                   308.0190967612924
0.0025                    0.0255                   308.0581044000207
0.0025                    0.0265                   308.0854907981543
0.0025                    0.0275                   308.1062113466229
0.0025                    0.0285                   308.12693189509145
0.0025                    0.0295                   308.1444937436377
0.0025                    0.0305                   308.151036315678
0.0025                    0.0315                   308.15757888771833
0.0035                    -0.0315                  303.25364240970924
0.0035                    -0.0305                  303.24832647918566
0.0035                    -0.0295                  303.2430105486621
0.0035                    -0.0285                  303.2318948815124
0.0035                    -0.0275                  303.2200657942871
0.0035                    -0.0265                  303.2027917610156
0.0035                    -0.0255                  303.18184242590524
0.0035                    -0.0245                  303.15980646059415
0.0035                    -0.0235                  303.1338475675747
0.0035                    -0.0225                  303.10731747316476
0.0035                    -0.0215                  303.08049487761804
0.0035                    -0.0205                  299.86090546453636
0.0035                    -0.0195                  294.7497175157783
0.0035                    -0.0185                  293.3906202048875
0.0035                    -0.0175                  293.213180357991
0.0035                    -0.0165                  293.1899983030585
0.0035                    -0.0155                  293.1823980624479
0.0035                    -0.0145                  293.1810903984529
0.0035                    -0.0135                  293.17538916097493
0.0035                    -0.0125                  293.20861293565173
0.0035                    -0.0115                  293.9463522457042
0.0035                    -0.0105                  296.2809591390271
0.0035                    -0.0095                  297.62257106860375
0.0035                    -0.0085                  297.96918147698545
0.0035                    -0.0075                  297.99798965334037
0.0035                    -0.0065                  298.04366331839765
0.0035                    -0.0055                  297.7350227574706
0.0035                    -0.0045                  297.50701847516325
0.0035                    -0.0035                  297.30115094159447
0.0035                    -0.0025                  296.9335894540704
0.0035                    -0.0015                  296.5963914639113
0.0035                    -5.0E-4                  296.38401653644553
0.0035                    5.0E-4                   296.2024629541692
0.0035                    0.0015                   296.06258574908
0.0035                    0.0025                   295.9980361091946
0.0035                    0.0035                   295.9486387909632
0.0035                    0.0045                   295.8949390670888
0.0035                    0.0055                   295.9467128923069
0.0035                    0.0065                   296.0093835783251
0.0035                    0.0075                   296.08885483731444
0.0035                    0.0085                   296.2062874878483
0.0035                    0.0095                   296.18048272083
0.0035                    0.0105                   295.7671621867443
0.0035                    0.0115                   300.91714883337653
0.0035                    0.0125                   307.17457406068183
0.0035                    0.0135                   307.2946008770036
0.0035                    0.0145                   307.38412856076496
0.0035                    0.0155                   307.4715933877027
0.0035                    0.0165                   307.5543029161896
0.0035                    0.0175                   307.6319122321929
0.0035                    0.0185                   307.7039821397666
0.0035                    0.0195                   307.7718348875273
0.0035                    0.0205                   307.8307271487969
0.0035                    0.0215                   307.89071465257484
0.0035                    0.0225                   307.9374972207941
0.0035                    0.0235                   307.9780149049453
0.0035                    0.0245                   308.01853258909654
0.0035                    0.0255                   308.05851938752
0.0035                    0.0265                   308.0835761090775
0.0035                    0.0275                   308.1048603227626
0.0035                    0.0285                   308.1261445364478
0.0035                    0.0295                   308.14305411635894
0.0035                    0.0305                   308.14952468449553
0.0035                    0.0315                   308.1560485203858
0.0045                    -0.0315                  303.24497270852294
0.0045                    -0.0305                  303.240445876141
0.0045                    -0.0295                  303.2351299456175
0.0045                    -0.0285                  303.2243963568513
0.0045                    -0.0275                  303.2091604155343
0.0045                    -0.0265                  303.1927763838372
0.0045                    -0.0255                  303.17070183248063
0.0045                    -0.0245                  303.14593297916036
0.0045                    -0.0235                  303.1152885848958
0.0045                    -0.0225                  303.0798635130728
0.0045                    -0.0215                  303.0388194882214
0.0045                    -0.0205                  300.3422760797499
0.0045                    -0.0195                  295.44224986473836
0.0045                    -0.0185                  293.57855484085735
0.0045                    -0.0175                  293.25713922166074
0.0045                    -0.0165                  293.2061326653021
0.0045                    -0.0155                  293.1936554962748
0.0045                    -0.0145                  293.19071663513193
0.0045                    -0.0135                  293.18694343185865
0.0045                    -0.0125                  293.18961068866867
0.0045                    -0.0115                  293.5128550336028
0.0045                    -0.0105                  294.72721247955786
0.0045                    -0.0095                  295.9163886075397
0.0045                    -0.0085                  296.65402808041716
0.0045                    -0.0075                  296.9299995834157
0.0045                    -0.0065                  296.9087659909765
0.0045                    -0.0055                  296.6559728778633
0.0045                    -0.0045                  296.3162784135648
0.0045                    -0.0035                  295.9757740310248
0.0045                    -0.0025                  295.72804313176727
0.0045                    -0.0015                  295.46769787271774
0.0045                    -5.0E-4                  295.2052759478558
0.0045                    5.0E-4                   295.1031362441955
0.0045                    0.0015                   294.9940752612056
0.0045                    0.0025                   294.96634697464424
0.0045                    0.0035                   294.9289206076954
0.0045                    0.0045                   295.0005773045591
0.0045                    0.0055                   295.0700172819679
0.0045                    0.0065                   295.1889310353422
0.0045                    0.0075                   295.32469712292345
0.0045                    0.0085                   295.460653945725
0.0045                    0.0095                   295.5928752741327
0.0045                    0.0105                   295.65241542530555
0.0045                    0.0115                   296.2726183313102
0.0045                    0.0125                   302.28610801494307
0.0045                    0.0135                   307.2376278831058
0.0045                    0.0145                   307.3422443465967
0.0045                    0.0155                   307.44529114198167
0.0045                    0.0165                   307.5381070364865
0.0045                    0.0175                   307.6257501412005
0.0045                    0.0185                   307.699199570165
0.0045                    0.0195                   307.77025265610354
0.0045                    0.0205                   307.8312537139163
0.0045                    0.0215                   307.88803700513483
0.0045                    0.0225                   307.93840935115196
0.0045                    0.0235                   307.9808265056824
0.0045                    0.0245                   308.0200793581921
0.0045                    0.0255                   308.05792218969293
0.0045                    0.0265                   308.0820172208255
0.0045                    0.0275                   308.104892460766
0.0045                    0.0285                   308.1261837342758
0.0045                    0.0295                   308.1416421337177
0.0045                    0.0305                   308.1481127018543
0.0045                    0.0315                   308.15456470982394
0.0055                    -0.0315                  303.2349721661951
0.0055                    -0.0305                  303.23119363015917
0.0055                    -0.0295                  303.2272493425728
0.0055                    -0.0285                  303.21393094336395
0.0055                    -0.0275                  303.1979836258655
0.0055                    -0.0265                  303.18198062258637
0.0055                    -0.0255                  303.15665704067226
0.0055                    -0.0245                  303.1314845502618
0.0055                    -0.0235                  303.0962276157725
0.0055                    -0.0225                  303.0537452544951
0.0055                    -0.0215                  302.99800155796856
0.0055                    -0.0205                  302.9092108858801
0.0055                    -0.0195                  297.67315822739306
0.0055                    -0.0185                  293.66584097511776
0.0055                    -0.0175                  293.28789898476396
0.0055                    -0.0165                  293.2262975784633
0.0055                    -0.0155                  293.20680154130923
0.0055                    -0.0145                  293.2020758203574
0.0055                    -0.0135                  293.198920398779
0.0055                    -0.0125                  293.20596356591705
0.0055                    -0.0115                  293.3590757315857
0.0055                    -0.0105                  293.6248964422433
0.0055                    -0.0095                  294.5718759585345
0.0055                    -0.0085                  295.0698264672865
0.0055                    -0.0075                  295.30562106009785
0.0055                    -0.0065                  295.24221245382
0.0055                    -0.0055                  294.97999099277695
0.0055                    -0.0045                  294.7181741282212
0.0055                    -0.0035                  294.42903295047824
0.0055                    -0.0025                  294.1936597115936
0.0055                    -0.0015                  294.0641129236765
0.0055                    -5.0E-4                  294.12327559443975
0.0055                    5.0E-4                   294.0911971965129
0.0055                    0.0015                   294.1613796025677
0.0055                    0.0025                   294.19279880277367
0.0055                    0.0035                   294.2381774904132
0.0055                    0.0045                   294.2213725024692
0.0055                    0.0055                   294.26003703625753
0.0055                    0.0065                   294.3496405826968
0.0055                    0.0075                   294.4984948983083
0.0055                    0.0085                   294.6476548526386
0.0055                    0.0095                   294.8366882159367
0.0055                    0.0105                   294.98213532039534
0.0055                    0.0115                   295.2032652716207
0.0055                    0.0125                   298.92012143071736
0.0055                    0.0135                   307.15559173579237
0.0055                    0.0145                   307.30618298070533
0.0055                    0.0155                   307.4247583548117
0.0055                    0.0165                   307.5286914892347
0.0055                    0.0175                   307.61747897976096
0.0055                    0.0185                   307.6963622771783
0.0055                    0.0195                   307.7678832367546
0.0055                    0.0205                   307.83094113373096
0.0055                    0.0215                   307.8865371075396
0.0055                    0.0225                   307.93725924461665
0.0055                    0.0235                   307.98187860682634
0.0055                    0.0245                   308.019482160365
0.0055                    0.0255                   308.0570324328395
0.0055                    0.0265                   308.07990767277994
0.0055                    0.0275                   308.10278291272044
0.0055                    0.0285                   308.12565815266095
0.0055                    0.0295                   308.1401227778152
0.0055                    0.0305                   308.1461896024569
0.0055                    0.0315                   308.1522564270986
0.0065                    -0.0315                  303.2249716238674
0.0065                    -0.0305                  303.2211930878314
0.0065                    -0.0295                  303.2149760290756
0.0065                    -0.0285                  303.20172400182145
0.0065                    -0.0275                  303.185855059726
0.0065                    -0.0265                  303.16985205644676
0.0065                    -0.0255                  303.1443500262254
0.0065                    -0.0245                  303.11733823786267
0.0065                    -0.0235                  303.07951488623326
0.0065                    -0.0225                  303.033683515561
0.0065                    -0.0215                  302.97365783123985
0.0065                    -0.0205                  302.9003301032304
0.0065                    -0.0195                  298.0630318585681
0.0065                    -0.0185                  293.82738564845965
0.0065                    -0.0175                  293.3332670698551
0.0065                    -0.0165                  293.2456972414586
0.0065                    -0.0155                  293.22230077380425
0.0065                    -0.0145                  293.21663383194897
0.0065                    -0.0135                  293.21263642184795
0.0065                    -0.0125                  293.21330850314166
0.0065                    -0.0115                  293.2150286168381
0.0065                    -0.0105                  293.36801155153785
0.0065                    -0.0095                  293.5108122347797
0.0065                    -0.0085                  293.8304681109573
0.0065                    -0.0075                  293.96808177340876
0.0065                    -0.0065                  293.8278416844622
0.0065                    -0.0055                  293.66602598068346
0.0065                    -0.0045                  293.6798651537292
0.0065                    -0.0035                  293.71815020714234
0.0065                    -0.0025                  293.82034886566254
0.0065                    -0.0015                  293.84561422950236
0.0065                    -5.0E-4                  293.9029191089962
0.0065                    5.0E-4                   293.9551594229901
0.0065                    0.0015                   293.9717711731103
0.0065                    0.0025                   294.0340213930008
0.0065                    0.0035                   294.07259460353674
0.0065                    0.0045                   294.1362969734456
0.0065                    0.0055                   294.19484453347974
0.0065                    0.0065                   294.2600902977299
0.0065                    0.0075                   294.28293938308974
0.0065                    0.0085                   294.34700920146906
0.0065                    0.0095                   294.3857274738916
0.0065                    0.0105                   294.5398750921411
0.0065                    0.0115                   294.7211626094487