% Model:              模型结构导入comsolBench.mph
% Version:            COMSOL 6.2.0.339
% Date:               May 28 2026, 17:45
% Dimension:          2
% Nodes:              4096
% Expressions:        1
% Description:        温度
% Length unit:        m
% x                       y                        T (K)
5.0E-4                    -0.0315                  295.4786639787105
5.0E-4                    -0.0305                  295.4670894771194
5.0E-4                    -0.0295                  295.45551497552833
5.0E-4                    -0.0285                  295.4439404739372
5.0E-4                    -0.0275                  295.4237636883532
5.0E-4                    -0.0265                  295.3898306733452
5.0E-4                    -0.0255                  295.35589765833726
5.0E-4                    -0.0245                  295.31958876639794
5.0E-4                    -0.0235                  295.26805268876564
5.0E-4                    -0.0225                  295.21261548049955
5.0E-4                    -0.0215                  295.150638000329
5.0E-4                    -0.0205                  295.0780132344744
5.0E-4                    -0.0195                  294.999579014792
5.0E-4                    -0.0185                  294.9189999600241
5.0E-4                    -0.0175                  294.84617489977484
5.0E-4                    -0.0165                  294.796315100687
5.0E-4                    -0.0155                  294.66197643123934
5.0E-4                    -0.0145                  294.65894590548305
5.0E-4                    -0.0135                  293.964736405953
5.0E-4                    -0.0125                  293.5978651566385
5.0E-4                    -0.0115                  293.49269189542747
5.0E-4                    -0.0105                  293.43644346642134
5.0E-4                    -0.0095                  293.40356449992703
5.0E-4                    -0.0085                  293.38428110561654
5.0E-4                    -0.0075                  293.3754624195376
5.0E-4                    -0.0065                  293.37407476463613
5.0E-4                    -0.0055                  293.37203924809313
5.0E-4                    -0.0045                  293.37399298915165
5.0E-4                    -0.0035                  293.3794236019938
5.0E-4                    -0.0025                  293.3841424057352
5.0E-4                    -0.0015                  293.3884596365922
5.0E-4                    -5.0E-4                  293.3952219768883
5.0E-4                    5.0E-4                   293.402901732062
5.0E-4                    0.0015                   293.4107915473203
5.0E-4                    0.0025                   293.42044201743374
5.0E-4                    0.0035                   293.4330138354499
5.0E-4                    0.0045                   293.4504986910428
5.0E-4                    0.0055                   293.4721122034607
5.0E-4                    0.0065                   293.4984841804047
5.0E-4                    0.0075                   293.52957428324476
5.0E-4                    0.0085                   293.56645529071716
5.0E-4                    0.0095                   293.6067667092592
5.0E-4                    0.0105                   293.63156189389946
5.0E-4                    0.0115                   293.505063696604
5.0E-4                    0.0125                   293.1618433918561
5.0E-4                    0.0135                   293.150949800955
5.0E-4                    0.0145                   293.1507910244718
5.0E-4                    0.0155                   293.1507806316109
5.0E-4                    0.0165                   293.1507955161828
5.0E-4                    0.0175                   293.1508384373118
5.0E-4                    0.0185                   293.15090964084715
5.0E-4                    0.0195                   293.250099985269
5.0E-4                    0.0205                   294.6956210327752
5.0E-4                    0.0215                   295.2124850404628
5.0E-4                    0.0225                   295.58506026646114
5.0E-4                    0.0235                   295.95632231745486
5.0E-4                    0.0245                   295.8447367719449
5.0E-4                    0.0255                   295.067817792038
5.0E-4                    0.0265                   295.0606824582345
5.0E-4                    0.0275                   295.0534311908618
5.0E-4                    0.0285                   295.04718925253917
5.0E-4                    0.0295                   295.0420422607346
5.0E-4                    0.0305                   295.0391436523937
5.0E-4                    0.0315                   295.0380854392358
0.0015                    -0.0315                  295.4780436622785
0.0015                    -0.0305                  295.470493464865
0.0015                    -0.0295                  295.4589189632739
0.0015                    -0.0285                  295.445474460909
0.0015                    -0.0275                  295.42360094902506
0.0015                    -0.0265                  295.394657557563
0.0015                    -0.0255                  295.36072454255503
0.0015                    -0.0245                  295.3189106116005
0.0015                    -0.0235                  295.27404345789006
0.0015                    -0.0225                  295.2163610885676
0.0015                    -0.0215                  295.150887437234
0.0015                    -0.0205                  295.0794892480978
0.0015                    -0.0195                  295.00017779137056
0.0015                    -0.0185                  294.91005820872715
0.0015                    -0.0175                  294.81691102418364
0.0015                    -0.0165                  294.73649283762506
0.0015                    -0.0155                  294.26833502883426
0.0015                    -0.0145                  293.6931053131659
0.0015                    -0.0135                  293.45651139876236
0.0015                    -0.0125                  293.3833989098694
0.0015                    -0.0115                  293.3497211133997
0.0015                    -0.0105                  293.33177215521306
0.0015                    -0.0095                  293.320973302641
0.0015                    -0.0085                  293.31458157539794
0.0015                    -0.0075                  293.31111804185593
0.0015                    -0.0065                  293.31040205012636
0.0015                    -0.0055                  293.3160445546132
0.0015                    -0.0045                  293.32269453715185
0.0015                    -0.0035                  293.3353514433407
0.0015                    -0.0025                  293.3474652271765
0.0015                    -0.0015                  293.3597053164148
0.0015                    -5.0E-4                  293.3774041356837
0.0015                    5.0E-4                   293.3894735494649
0.0015                    0.0015                   293.40418966343236
0.0015                    0.0025                   293.41487442719244
0.0015                    0.0035                   293.4228309041688
0.0015                    0.0045                   293.432307567915
0.0015                    0.0055                   293.44262038862837
0.0015                    0.0065                   293.4575886474481
0.0015                    0.0075                   293.4773674990769
0.0015                    0.0085                   293.4957791391582
0.0015                    0.0095                   293.5144563118714
0.0015                    0.0105                   293.51796281792576
0.0015                    0.0115                   293.398561964611
0.0015                    0.0125                   293.1664655799319
0.0015                    0.0135                   293.152624911773
0.0015                    0.0145                   293.1522570262784
0.0015                    0.0155                   293.1521325956089
0.0015                    0.0165                   293.15223841105524
0.0015                    0.0175                   293.1524573303591
0.0015                    0.0185                   293.15252330862415
0.0015                    0.0195                   293.3479893289414
0.0015                    0.0205                   294.2991381564801
0.0015                    0.0215                   294.45342602555075
0.0015                    0.0225                   294.95286011101064
0.0015                    0.0235                   295.7017488533975
0.0015                    0.0245                   295.8731920467866
0.0015                    0.0255                   295.0634177304887
0.0015                    0.0265                   295.0556438542671
0.0015                    0.0275                   295.0476539098269
0.0015                    0.0285                   295.04146988870565
0.0015                    0.0295                   295.0361331429286
0.0015                    0.0305                   295.0320971597087
0.0015                    0.0315                   295.0299229730725
0.0025                    -0.0315                  295.4772003716845
0.0025                    -0.0305                  295.4703190967569
0.0025                    -0.0295                  295.4623229510195
0.0025                    -0.0285                  295.4436258998878
0.0025                    -0.0275                  295.42175238800394
0.0025                    -0.0265                  295.3994844417808
0.0025                    -0.0255                  295.36075160364976
0.0025                    -0.0245                  295.31823245680295
0.0025                    -0.0235                  295.276692351673
0.0025                    -0.0225                  295.2204134763012
0.0025                    -0.0215                  295.1584504290712
0.0025                    -0.0205                  295.0840617567276
0.0025                    -0.0195                  294.9985589856454
0.0025                    -0.0185                  294.90041450496085
0.0025                    -0.0175                  294.7813909969759
0.0025                    -0.0165                  294.63187786377256
0.0025                    -0.0155                  293.93382920260507
0.0025                    -0.0145                  293.4194507111621
0.0025                    -0.0135                  293.3394997211698
0.0025                    -0.0125                  293.3135084737897
0.0025                    -0.0115                  293.30236131875256
0.0025                    -0.0105                  293.29430575401443
0.0025                    -0.0095                  293.28869058891723
0.0025                    -0.0085                  293.28467746815716
0.0025                    -0.0075                  293.28166630877934
0.0025                    -0.0065                  293.27913708616427
0.0025                    -0.0055                  293.2791162970977
0.0025                    -0.0045                  293.2830115588687
0.0025                    -0.0035                  293.29208728370907
0.0025                    -0.0025                  293.3058983054331
0.0025                    -0.0015                  293.32221113330877
0.0025                    -5.0E-4                  293.3462143744015
0.0025                    5.0E-4                   293.36746415956503
0.0025                    0.0015                   293.39171907355023
0.0025                    0.0025                   293.41930823605674
0.0025                    0.0035                   293.438144866421
0.0025                    0.0045                   293.4437649372348
0.0025                    0.0055                   293.4492695925777
0.0025                    0.0065                   293.45623308420363
0.0025                    0.0075                   293.4686186674284
0.0025                    0.0085                   293.48174320236
0.0025                    0.0095                   293.4872128991675
0.0025                    0.0105                   293.4902504760317
0.0025                    0.0115                   293.3074855774734
0.0025                    0.0125                   293.17510675581997
0.0025                    0.0135                   293.15449836521395
0.0025                    0.0145                   293.15380352144825
0.0025                    0.0155                   293.1536120099355
0.0025                    0.0165                   293.15381085679206
0.0025                    0.0175                   293.1539496421689
0.0025                    0.0185                   293.16415026035276
0.0025                    0.0195                   293.4122865877904
0.0025                    0.0205                   293.9532705233263
0.0025                    0.0215                   294.13698846893084
0.0025                    0.0225                   294.3316288020457
0.0025                    0.0235                   294.8903326409429
0.0025                    0.0245                   295.4059392957993
0.0025                    0.0255                   295.05555823409196
0.0025                    0.0265                   295.0447086982941
0.0025                    0.0275                   295.03565103868175
0.0025                    0.0285                   295.02847654773063
0.0025                    0.0295                   295.02305628660946
0.0025                    0.0305                   295.0186643647598
0.0025                    0.0315                   295.0189834953997
0.0035                    -0.0315                  295.47635708109055
0.0035                    -0.0305                  295.46986559442826
0.0035                    -0.0295                  295.46379959346416
0.0035                    -0.0285                  295.4456765838771
0.0035                    -0.0275                  295.4237809920403
0.0035                    -0.0265                  295.40131923272793
0.0035                    -0.0255                  295.3678748323056
0.0035                    -0.0245                  295.32717924202313
0.0035                    -0.0235                  295.28415986917344
0.0035                    -0.0225                  295.23027064187863
0.0035                    -0.0215                  295.1689333277899
0.0035                    -0.0205                  295.09562638011533
0.0035                    -0.0195                  295.00688379819985
0.0035                    -0.0185                  294.8978535201277
0.0035                    -0.0175                  294.76263477170676
0.0035                    -0.0165                  294.52784132976734
0.0035                    -0.0155                  293.77605721847584
0.0035                    -0.0145                  293.31422651464857
0.0035                    -0.0135                  293.3052654645435
0.0035                    -0.0125                  293.29755688126494
0.0035                    -0.0115                  293.2919720033002
0.0035                    -0.0105                  293.2871678893874
0.0035                    -0.0095                  293.2842225347928
0.0035                    -0.0085                  293.28024536641306
0.0035                    -0.0075                  293.2770437594914
0.0035                    -0.0065                  293.2706051985223
0.0035                    -0.0055                  293.2671259016775
0.0035                    -0.0045                  293.26500737186893
0.0035                    -0.0035                  293.2577180259847
0.0035                    -0.0025                  293.2675982490256
0.0035                    -0.0015                  293.27885945569835
0.0035                    -5.0E-4                  293.2899214952691
0.0035                    5.0E-4                   293.31772127108684
0.0035                    0.0015                   293.34102936138913
0.0035                    0.0025                   293.3748812429675
0.0035                    0.0035                   293.40251626267195
0.0035                    0.0045                   293.43118970410626
0.0035                    0.0055                   293.45689183166445
0.0035                    0.0065                   293.4603883426786
0.0035                    0.0075                   293.4582341932809
0.0035                    0.0085                   293.4609909803167
0.0035                    0.0095                   293.4515703049035
0.0035                    0.0105                   293.37963412917543
0.0035                    0.0115                   293.24052668135363
0.0035                    0.0125                   293.16724895138003
0.0035                    0.0135                   293.15624734758666
0.0035                    0.0145                   293.15522929250636
0.0035                    0.0155                   293.15515418177847
0.0035                    0.0165                   293.15553178249826
0.0035                    0.0175                   293.15472581510863
0.0035                    0.0185                   293.15578237595776
0.0035                    0.0195                   293.3865037581294
0.0035                    0.0205                   293.71027238439393
0.0035                    0.0215                   293.9855819899465
0.0035                    0.0225                   294.07295685260533
0.0035                    0.0235                   294.32975271895725
0.0035                    0.0245                   294.8976847649341
0.0035                    0.0255                   295.1187278189225
0.0035                    0.0265                   295.02696803100173
0.0035                    0.0275                   295.01690765176556
0.0035                    0.0285                   295.0085401896614
0.0035                    0.0295                   295.0026432449512
0.0035                    0.0305                   294.99768836520224
0.0035                    0.0315                   294.99492065692084
0.0045                    -0.0315                  295.47700148741615
0.0045                    -0.0305                  295.47113266575826
0.0045                    -0.0295                  295.46361225069677
0.0045                    -0.0285                  295.4484319421003
0.0045                    -0.0275                  295.4283133844844
0.0045                    -0.0265                  295.40388954566754
0.0045                    -0.0255                  295.3728927674283
0.0045                    -0.0245                  295.33698605751994
0.0045                    -0.0235                  295.2922313548674
0.0045                    -0.0225                  295.2436458011442
0.0045                    -0.0215                  295.1830476553427
0.0045                    -0.0205                  295.1165713936692
0.0045                    -0.0195                  295.0310154227261
0.0045                    -0.0185                  294.92298228093085
0.0045                    -0.0175                  294.79257565305045
0.0045                    -0.0165                  294.0763584987385
0.0045                    -0.0155                  293.3712207602279
0.0045                    -0.0145                  293.3045385786492
0.0045                    -0.0135                  293.3039542734223
0.0045                    -0.0125                  293.3063165006903
0.0045                    -0.0115                  293.3098768861182
0.0045                    -0.0105                  293.31025345030287
0.0045                    -0.0095                  293.30509703164205
0.0045                    -0.0085                  293.3013474163527
0.0045                    -0.0075                  293.29920214106517
0.0045                    -0.0065                  293.2961995184709
0.0045                    -0.0055                  293.28879842390626
0.0045                    -0.0045                  293.2747951364224
0.0045                    -0.0035                  293.26718317231996
0.0045                    -0.0025                  293.2493783161111
0.0045                    -0.0015                  293.2492216482013
0.0045                    -5.0E-4                  293.2535947791526
0.0045                    5.0E-4                   293.25810740886266
0.0045                    0.0015                   293.27513582573215
0.0045                    0.0025                   293.30007343544725
0.0045                    0.0035                   293.31976867510855
0.0045                    0.0045                   293.35452685092156
0.0045                    0.0055                   293.37850855674435
0.0045                    0.0065                   293.39961518145174
0.0045                    0.0075                   293.40712120021317
0.0045                    0.0085                   293.3884647157389
0.0045                    0.0095                   293.34459187481195
0.0045                    0.0105                   293.27949346356445
0.0045                    0.0115                   293.1954178298429
0.0045                    0.0125                   293.16245711079785
0.0045                    0.0135                   293.1587378624565
0.0045                    0.0145                   293.1568030890141
0.0045                    0.0155                   293.15690974233195
0.0045                    0.0165                   293.15712117079056
0.0045                    0.0175                   293.1556061210818
0.0045                    0.0185                   293.17281229634284
0.0045                    0.0195                   293.32036252287514
0.0045                    0.0205                   293.5735053651582
0.0045                    0.0215                   293.8086485810704
0.0045                    0.0225                   293.94249691351797
0.0045                    0.0235                   294.04927745923
0.0045                    0.0245                   294.39397130140094
0.0045                    0.0255                   294.8697239819253
0.0045                    0.0265                   295.00471861822166
0.0045                    0.0275                   294.99127519940134
0.0045                    0.0285                   294.9813144670041
0.0045                    0.0295                   294.9745479253074
0.0045                    0.0305                   294.97098169328
0.0045                    0.0315                   294.9693570769896
0.0055                    -0.0315                  295.47646600274896
0.0055                    -0.0305                  295.4721875393042
0.0055                    -0.0295                  295.4633479157962
0.0055                    -0.0285                  295.44816760719965
0.0055                    -0.0275                  295.432507005299
0.0055                    -0.0265                  295.4074062267132
0.0055                    -0.0255                  295.38015123162586
0.0055                    -0.0245                  295.3463585120901
0.0055                    -0.0235                  295.30724190591366
0.0055                    -0.0225                  295.25848929642746
0.0055                    -0.0215                  295.20627497437437
0.0055                    -0.0205                  295.1431702169642
0.0055                    -0.0195                  295.0743525632049
0.0055                    -0.0185                  294.81685911186275
0.0055                    -0.0175                  294.16841494364667
0.0055                    -0.0165                  293.43270249919675
0.0055                    -0.0155                  293.30856431181314
0.0055                    -0.0145                  293.3158913854908
0.0055                    -0.0135                  293.341876906636
0.0055                    -0.0125                  293.38074254092896
0.0055                    -0.0115                  293.43978261921905
0.0055                    -0.0105                  293.47167995306444
0.0055                    -0.0095                  293.38966645987324
0.0055                    -0.0085                  293.38132924219155
0.0055                    -0.0075                  293.3811973604672
0.0055                    -0.0065                  293.38275950338607
0.0055                    -0.0055                  293.3617877428548
0.0055                    -0.0045                  293.3296597836945
0.0055                    -0.0035                  293.29851416286886
0.0055                    -0.0025                  293.2693954700075
0.0055                    -0.0015                  293.2536913282839
0.0055                    -5.0E-4                  293.24234556438023
0.0055                    5.0E-4                   293.2362321130279
0.0055                    0.0015                   293.2320656516748
0.0055                    0.0025                   293.2311965134559
0.0055                    0.0035                   293.244407385582
0.0055                    0.0045                   293.25935192519603
0.0055                    0.0055                   293.27674912769305
0.0055                    0.0065                   293.2943510631293
0.0055                    0.0075                   293.29544154139296
0.0055                    0.0085                   293.29012135853213
0.0055                    0.0095                   293.2574884386937
0.0055                    0.0105                   293.2006399221817
0.0055                    0.0115                   293.1753931944244
0.0055                    0.0125                   293.16255944948784
0.0055                    0.0135                   293.15970750856064
0.0055                    0.0145                   293.1586550295562
0.0055                    0.0155                   293.15930523714553
0.0055                    0.0165                   293.1591712525235
0.0055                    0.0175                   293.1586789354442
0.0055                    0.0185                   293.1588785572724
0.0055                    0.0195                   293.2494275429475
0.0055                    0.0205                   293.4146763096113
0.0055                    0.0215                   293.63021552441
0.0055                    0.0225                   293.821329524824
0.0055                    0.0235                   293.9054897048885
0.0055                    0.0245                   294.02106952578544
0.0055                    0.0255                   294.40349484652285
0.0055                    0.0265                   294.86781009907367
0.0055                    0.0275                   294.9564545411344
0.0055                    0.0285                   294.9461350027335
0.0055                    0.0295                   294.93898673342716
0.0055                    0.0305                   294.93477669205623
0.0055                    0.0315                   294.932051471249
0.0065                    -0.0315                  295.4759305180818
0.0065                    -0.0305                  295.4714407926508
0.0065                    -0.0295                  295.46404614379867
0.0065                    -0.0285                  295.4503102323923
0.0065                    -0.0275                  295.4342089575772
0.0065                    -0.0265                  295.41342481956644
0.0065                    -0.0255                  295.386159680613
0.0065                    -0.0245                  295.3564339931832
0.0065                    -0.0235                  295.31975310366005
0.0065                    -0.0225                  295.2784041686769
0.0065                    -0.0215                  295.23082593214406
0.0065                    -0.0205                  295.1768635400402
0.0065                    -0.0195                  294.65675471000856
0.0065                    -0.0185                  293.96174067093045
0.0065                    -0.0175                  293.4471007293239
0.0065                    -0.0165                  293.3188844340531
0.0065                    -0.0155                  293.3273018104378
0.0065                    -0.0145                  293.3624587060972
0.0065                    -0.0135                  293.4479216407321
0.0065                    -0.0125                  293.5993829534416
0.0065                    -0.0115                  293.76772549476107
0.0065                    -0.0105                  293.77631800542275
0.0065                    -0.0095                  293.57495960330465
0.0065                    -0.0085                  293.50872793679486
0.0065                    -0.0075                  293.5285925133617
0.0065                    -0.0065                  293.5369938167836
0.0065                    -0.0055                  293.5368870238678
0.0065                    -0.0045                  293.5119634726196
0.0065                    -0.0035                  293.4618248601568
0.0065                    -0.0025                  293.4030439452082
0.0065                    -0.0015                  293.3163489382014
0.0065                    -5.0E-4                  293.28050526368304
0.0065                    5.0E-4                   293.243873429589
0.0065                    0.0015                   293.22472846286064
0.0065                    0.0025                   293.2156127535128
0.0065                    0.0035                   293.2089633668836
0.0065                    0.0045                   293.2016062394563
0.0065                    0.0055                   293.1993631288908
0.0065                    0.0065                   293.20280587426066
0.0065                    0.0075                   293.20851575571965
0.0065                    0.0085                   293.19865000404724
0.0065                    0.0095                   293.18313057289305
0.0065                    0.0105                   293.17338511683874
0.0065                    0.0115                   293.1662476133789