% Model:              模型结构导入comsolBench.mph
% Version:            COMSOL 6.2.0.339
% Date:               May 29 2026, 11:29
% Dimension:          2
% Nodes:              4096
% Expressions:        1
% Description:        温度
% Length unit:        m
% x                       y                        T (K)
5.0E-4                    -0.0315                  306.1038664759285
5.0E-4                    -0.0305                  306.0916100521264
5.0E-4                    -0.0295                  306.07935362832427
5.0E-4                    -0.0285                  306.0670972045222
5.0E-4                    -0.0275                  306.0387597111854
5.0E-4                    -0.0265                  306.00463817624035
5.0E-4                    -0.0255                  305.969180733236
5.0E-4                    -0.0245                  305.9205342222797
5.0E-4                    -0.0235                  305.86761621517985
5.0E-4                    -0.0225                  305.8056384317475
5.0E-4                    -0.0215                  305.73697193770084
5.0E-4                    -0.0205                  305.66395075863164
5.0E-4                    -0.0195                  305.5931523602129
5.0E-4                    -0.0185                  305.5412377622694
5.0E-4                    -0.0175                  303.46391990531333
5.0E-4                    -0.0165                  297.3319323942751
5.0E-4                    -0.0155                  293.1731224189237
5.0E-4                    -0.0145                  293.1608148475516
5.0E-4                    -0.0135                  293.16087623570917
5.0E-4                    -0.0125                  293.1643353342813
5.0E-4                    -0.0115                  293.49010688141107
5.0E-4                    -0.0105                  298.2167229566584
5.0E-4                    -0.0095                  299.46961857082675
5.0E-4                    -0.0085                  299.45606960232465
5.0E-4                    -0.0075                  295.26795278399413
5.0E-4                    -0.0065                  293.17398344850153
5.0E-4                    -0.0055                  293.1622577801897
5.0E-4                    -0.0045                  293.1593903484064
5.0E-4                    -0.0035                  293.157951469748
5.0E-4                    -0.0025                  293.1570882687213
5.0E-4                    -0.0015                  293.15707259327667
5.0E-4                    -5.0E-4                  293.16092154532123
5.0E-4                    5.0E-4                   298.2522427045767
5.0E-4                    0.0015                   304.0243786174211
5.0E-4                    0.0025                   304.07578734586724
5.0E-4                    0.0035                   304.18978843562047
5.0E-4                    0.0045                   304.3431735384255
5.0E-4                    0.0055                   304.45412701518785
5.0E-4                    0.0065                   304.68027031084586
5.0E-4                    0.0075                   305.37573034157913
5.0E-4                    0.0085                   306.63968006671587
5.0E-4                    0.0095                   308.50440397429327
5.0E-4                    0.0105                   310.2758793193369
5.0E-4                    0.0115                   310.97791289168987
5.0E-4                    0.0125                   310.9934886591302
5.0E-4                    0.0135                   311.0167636831703
5.0E-4                    0.0145                   311.04477680759004
5.0E-4                    0.0155                   311.07489867152714
5.0E-4                    0.0165                   311.10524579605266
5.0E-4                    0.0175                   311.1349537092737
5.0E-4                    0.0185                   311.16297770425064
5.0E-4                    0.0195                   311.1904497055365
5.0E-4                    0.0205                   311.2140518229977
5.0E-4                    0.0215                   311.2359316254723
5.0E-4                    0.0225                   311.25781142794693
5.0E-4                    0.0235                   311.2776614487147
5.0E-4                    0.0245                   311.2921835335395
5.0E-4                    0.0255                   311.3055646704805
5.0E-4                    0.0265                   311.3189458074214
5.0E-4                    0.0275                   311.33179853568566
5.0E-4                    0.0285                   311.33876750125796
5.0E-4                    0.0295                   311.3433390478813
5.0E-4                    0.0305                   311.3479105945046
5.0E-4                    0.0315                   311.3523056431856
0.0015                    -0.0315                  306.10558128027117
0.0015                    -0.0305                  306.0960921549697
0.0015                    -0.0295                  306.08383573116765
0.0015                    -0.0285                  306.06759101745797
0.0015                    -0.0275                  306.0416292687347
0.0015                    -0.0265                  306.0093778277094
0.0015                    -0.0255                  305.9687338595127
0.0015                    -0.0245                  305.92479640749235
0.0015                    -0.0235                  305.86720381327166
0.0015                    -0.0225                  305.80864102108796
0.0015                    -0.0215                  305.7372135168512
0.0015                    -0.0205                  305.6562018272091
0.0015                    -0.0195                  305.57365353943294
0.0015                    -0.0185                  305.4885365381647
0.0015                    -0.0175                  300.7478306861867
0.0015                    -0.0165                  293.8692079510314
0.0015                    -0.0155                  293.1601552413736
0.0015                    -0.0145                  293.1809749739832
0.0015                    -0.0135                  293.1840326711439
0.0015                    -0.0125                  293.31277016412207
0.0015                    -0.0115                  295.77769268835596
0.0015                    -0.0105                  299.59254164055307
0.0015                    -0.0095                  299.5988741008597
0.0015                    -0.0085                  299.6055103196402
0.0015                    -0.0075                  297.7866065262365
0.0015                    -0.0065                  293.5319918985739
0.0015                    -0.0055                  293.1900160147869
0.0015                    -0.0045                  293.1798352905576
0.0015                    -0.0035                  293.17473910450025
0.0015                    -0.0025                  293.1721067722691
0.0015                    -0.0015                  293.1703892244439
0.0015                    -5.0E-4                  293.1688387369475
0.0015                    5.0E-4                   293.7707820705064
0.0015                    0.0015                   298.82993070724166
0.0015                    0.0025                   301.4374464703267
0.0015                    0.0035                   301.6030807057016
0.0015                    0.0045                   301.44428851238916
0.0015                    0.0055                   301.10774785368955
0.0015                    0.0065                   300.791602336606
0.0015                    0.0075                   300.783602473907
0.0015                    0.0085                   302.340834419815
0.0015                    0.0095                   305.09165028978634
0.0015                    0.0105                   309.1318991635848
0.0015                    0.0115                   310.9582680761436
0.0015                    0.0125                   310.98049821518845
0.0015                    0.0135                   311.0072361943598
0.0015                    0.0145                   311.038332640275
0.0015                    0.0155                   311.07099042338064
0.0015                    0.0165                   311.1012847335444
0.0015                    0.0175                   311.131458971974
0.0015                    0.0185                   311.16019510059004
0.0015                    0.0195                   311.1854884190594
0.0015                    0.0205                   311.21078173752886
0.0015                    0.0215                   311.2330218573928
0.0015                    0.0225                   311.2541394439993
0.0015                    0.0235                   311.2715931713145
0.0015                    0.0245                   311.28904689862975
0.0015                    0.0255                   311.30260738101106
0.0015                    0.0265                   311.31598851795195
0.0015                    0.0275                   311.3261573169584
0.0015                    0.0285                   311.3353375890516
0.0015                    0.0295                   311.3407075793739
0.0015                    0.0305                   311.3447496321702
0.0015                    0.0315                   311.34576710505416
0.0025                    -0.0315                  306.10708169638804
0.0025                    -0.0305                  306.09823573576426
0.0025                    -0.0295                  306.088317834011
0.0025                    -0.0285                  306.0670510655517
0.0025                    -0.0275                  306.04166890717454
0.0025                    -0.0265                  306.0133583083564
0.0025                    -0.0255                  305.9729661956922
0.0025                    -0.0245                  305.92987013006586
0.0025                    -0.0235                  305.8757389606093
0.0025                    -0.0225                  305.81256377052017
0.0025                    -0.0215                  305.7409293521313
0.0025                    -0.0205                  305.6547703286699
0.0025                    -0.0195                  305.5475234591583
0.0025                    -0.0185                  305.4029360924011
0.0025                    -0.0175                  299.1294573970655
0.0025                    -0.0165                  293.5666727354966
0.0025                    -0.0155                  293.1960112385177
0.0025                    -0.0145                  293.2013116573064
0.0025                    -0.0135                  293.28002107565317
0.0025                    -0.0125                  293.7696272820828
0.0025                    -0.0115                  297.1231124261114
0.0025                    -0.0105                  299.71443002088057
0.0025                    -0.0095                  299.72278980027653
0.0025                    -0.0085                  299.7314705536495
0.0025                    -0.0075                  299.739377527062
0.0025                    -0.0065                  295.8661936316473
0.0025                    -0.0055                  293.36224227356615
0.0025                    -0.0045                  293.209672624162
0.0025                    -0.0035                  293.1964528384874
0.0025                    -0.0025                  293.18992306389913
0.0025                    -0.0015                  293.1860308611566
0.0025                    -5.0E-4                  293.18718558094696
0.0025                    5.0E-4                   293.3350456195251
0.0025                    0.0015                   294.4871366282743
0.0025                    0.0025                   297.18879532325604
0.0025                    0.0035                   299.06777053794036
0.0025                    0.0045                   299.48291280087295
0.0025                    0.0055                   299.25392191113855
0.0025                    0.0065                   298.8360108956543
0.0025                    0.0075                   298.5633083986096
0.0025                    0.0085                   299.1704274057595
0.0025                    0.0095                   301.43662377624435
0.0025                    0.0105                   307.32253152306413
0.0025                    0.0115                   310.92274971605457
0.0025                    0.0125                   310.9551944930069
0.0025                    0.0135                   310.9904152372661
0.0025                    0.0145                   311.0260120182991
0.0025                    0.0155                   311.05913942545027
0.0025                    0.0165                   311.09189068157656
0.0025                    0.0175                   311.1231162575045
0.0025                    0.0185                   311.15293533867487
0.0025                    0.0195                   311.1795793900653
0.0025                    0.0205                   311.2058204510518
0.0025                    0.0215                   311.2301120893133
0.0025                    0.0225                   311.2480711665992
0.0025                    0.0235                   311.2655248939144
0.0025                    0.0245                   311.28297862122963
0.0025                    0.0255                   311.29965009154154
0.0025                    0.0265                   311.311335826138
0.0025                    0.0275                   311.32051609823117
0.0025                    0.0285                   311.3296963703243
0.0025                    0.0295                   311.3371936211547
0.0025                    0.0305                   311.33821109403874
0.0025                    0.0315                   311.33922856692277
0.0035                    -0.0315                  306.10858211250485
0.0035                    -0.0305                  306.0997361518811
0.0035                    -0.0295                  306.0926536746481
0.0035                    -0.0285                  306.07200129501825
0.0035                    -0.0275                  306.04844456791045
0.0035                    -0.0265                  306.0184612995315
0.0035                    -0.0255                  305.981819396084
0.0035                    -0.0245                  305.935396955744
0.0035                    -0.0235                  305.8843524381556
0.0035                    -0.0225                  305.82463914874927
0.0035                    -0.0215                  305.7534499070497
0.0035                    -0.0205                  305.6657365972437
0.0035                    -0.0195                  305.54751013449277
0.0035                    -0.0185                  305.33272281637187
0.0035                    -0.0175                  298.3714594322786
0.0035                    -0.0165                  293.36424491284254
0.0035                    -0.0155                  293.22091636399807
0.0035                    -0.0145                  293.2308385458712
0.0035                    -0.0135                  293.3580825101123
0.0035                    -0.0125                  294.6059620790743
0.0035                    -0.0115                  298.3137746761943
0.0035                    -0.0105                  299.8448291831292
0.0035                    -0.0095                  299.83981943831355
0.0035                    -0.0085                  299.845720114128
0.0035                    -0.0075                  299.8575047245316
0.0035                    -0.0065                  298.40660338127924
0.0035                    -0.0055                  294.19039192109597
0.0035                    -0.0045                  293.3167056899891
0.0035                    -0.0035                  293.23397405341854
0.0035                    -0.0025                  293.2146591356386
0.0035                    -0.0015                  293.2048305197921
0.0035                    -5.0E-4                  293.1964636319899
0.0035                    5.0E-4                   293.21891827451765
0.0035                    0.0015                   293.4911892863632
0.0035                    0.0025                   294.5824331447304
0.0035                    0.0035                   296.27121873936807
0.0035                    0.0045                   297.8832279839204
0.0035                    0.0055                   297.9634130167088
0.0035                    0.0065                   298.4138254851394
0.0035                    0.0075                   298.0964738415603
0.0035                    0.0085                   297.8561146453567
0.0035                    0.0095                   298.61242350413244
0.0035                    0.0105                   304.6553267378327
0.0035                    0.0115                   310.8623465277773
0.0035                    0.0125                   310.92566779174587
0.0035                    0.0135                   310.96864651490785
0.0035                    0.0145                   311.00844826004055
0.0035                    0.0155                   311.0467900563427
0.0035                    0.0165                   311.08107718339454
0.0035                    0.0175                   311.1123183027933
0.0035                    0.0185                   311.14278466994784
0.0035                    0.0195                   311.1694287213383
0.0035                    0.0205                   311.19549315633634
0.0035                    0.0215                   311.2194153871101
0.0035                    0.0225                   311.2385822076759
0.0035                    0.0235                   311.2563530771225
0.0035                    0.0245                   311.27412394656915
0.0035                    0.0255                   311.2912108781481
0.0035                    0.0265                   311.30271181358967
0.0035                    0.0275                   311.31100196565757
0.0035                    0.0285                   311.3192902262576
0.0035                    0.0295                   311.3265505019448
0.0035                    0.0305                   311.3305323358418
0.0035                    0.0315                   311.3326900287914
0.0045                    -0.0315                  306.11238864435313
0.0045                    -0.0305                  306.10544554956766
0.0045                    -0.0295                  306.09850245478225
0.0045                    -0.0285                  306.0778449979162
0.0045                    -0.0275                  306.0552202286462
0.0045                    -0.0265                  306.02302377292415
0.0045                    -0.0255                  305.9884735977501
0.0045                    -0.0245                  305.9454946437977
0.0045                    -0.0235                  305.89748400762073
0.0045                    -0.0225                  305.83846370569586
0.0045                    -0.0215                  305.7752237336424
0.0045                    -0.0205                  305.69717098836384
0.0045                    -0.0195                  305.5988083956297
0.0045                    -0.0185                  302.0735300353399
0.0045                    -0.0175                  295.4644134054261
0.0045                    -0.0165                  293.2682466335169
0.0045                    -0.0155                  293.24710390666127
0.0045                    -0.0145                  293.3300506277476
0.0045                    -0.0135                  293.8309592298809
0.0045                    -0.0125                  296.4237072206605
0.0045                    -0.0115                  299.9514794837067
0.0045                    -0.0105                  299.9473554778534
0.0045                    -0.0095                  299.9437918274941
0.0045                    -0.0085                  299.9505633731653
0.0045                    -0.0075                  299.9626901686602
0.0045                    -0.0065                  299.9821834573439
0.0045                    -0.0055                  296.7995594444171
0.0045                    -0.0045                  293.91338354874654
0.0045                    -0.0035                  293.33721016582615
0.0045                    -0.0025                  293.2719032633913
0.0045                    -0.0015                  293.23348378050366
0.0045                    -5.0E-4                  293.2203278339701
0.0045                    5.0E-4                   293.21910235291585
0.0045                    0.0015                   293.22609795021054
0.0045                    0.0025                   293.4409913485727
0.0045                    0.0035                   294.25839160878155
0.0045                    0.0045                   295.6263838288478
0.0045                    0.0055                   296.71973963961966
0.0045                    0.0065                   297.289004904934
0.0045                    0.0075                   297.9538539123077
0.0045                    0.0085                   297.85236544184573
0.0045                    0.0095                   297.60434686279814
0.0045                    0.0105                   298.9310207292806
0.0045                    0.0115                   307.35314460413383
0.0045                    0.0125                   310.89717875083664
0.0045                    0.0135                   310.9441473929072
0.0045                    0.0145                   310.9894207413919
0.0045                    0.0155                   311.0295640299214
0.0045                    0.0165                   311.0678644808394
0.0045                    0.0175                   311.1002427890259
0.0045                    0.0185                   311.1322874598936
0.0045                    0.0195                   311.1573702124956
0.0045                    0.0205                   311.18235511464195
0.0045                    0.0215                   311.2052191073967
0.0045                    0.0225                   311.2270470227294
0.0045                    0.0235                   311.24481789217606
0.0045                    0.0245                   311.2616269864852
0.0045                    0.0255                   311.27659507809796
0.0045                    0.0265                   311.2883346324828
0.0045                    0.0275                   311.298619851207
0.0045                    0.0285                   311.3083954734344
0.0045                    0.0295                   311.3155020603117
0.0045                    0.0305                   311.31948389420876
0.0045                    0.0315                   311.32256497754486
0.0055                    -0.0315                  306.1185660646959
0.0055                    -0.0305                  306.1112943297018
0.0055                    -0.0295                  306.10383873484784
0.0055                    -0.0285                  306.0826283925049
0.0055                    -0.0275                  306.0618516682651
0.0055                    -0.0265                  306.03071595889855
0.0055                    -0.0255                  305.99822751726003
0.0055                    -0.0245                  305.95831043911767
0.0055                    -0.0235                  305.91117754819857
0.0055                    -0.0225                  305.86088065106605
0.0055                    -0.0215                  305.8038284659843
0.0055                    -0.0205                  305.744281319246
0.0055                    -0.0195                  303.6211870719465
0.0055                    -0.0185                  297.358562387143
0.0055                    -0.0175                  293.8096038968357
0.0055                    -0.0165                  293.26635628811096
0.0055                    -0.0155                  293.2851742804147
0.0055                    -0.0145                  293.48653219662424
0.0055                    -0.0135                  294.6983752307662
0.0055                    -0.0125                  298.1623483380739
0.0055                    -0.0115                  300.0362505582345
0.0055                    -0.0105                  300.03573126462663
0.0055                    -0.0095                  300.03683330922155
0.0055                    -0.0085                  300.0421517000745
0.0055                    -0.0075                  300.0515780778141
0.0055                    -0.0065                  300.0671027131307
0.0055                    -0.0055                  299.43193900208155
0.0055                    -0.0045                  296.23911900127314
0.0055                    -0.0035                  294.03216615353784
0.0055                    -0.0025                  293.4704584415434
0.0055                    -0.0015                  293.3226045943292
0.0055                    -5.0E-4                  293.2744859227012
0.0055                    5.0E-4                   293.2378691287405
0.0055                    0.0015                   293.2359715892395
0.0055                    0.0025                   293.2573580488008
0.0055                    0.0035                   293.47786196058985
0.0055                    0.0045                   293.9914367757274
0.0055                    0.0055                   295.0215451731773
0.0055                    0.0065                   295.9540293609281
0.0055                    0.0075                   296.84536966399617
0.0055                    0.0085                   297.3540255725623
0.0055                    0.0095                   297.4695616953001
0.0055                    0.0105                   297.36931450598286
0.0055                    0.0115                   302.4622060228064
0.0055                    0.0125                   310.8523575066546
0.0055                    0.0135                   310.91793158027065
0.0055                    0.0145                   310.9696750283496
0.0055                    0.0155                   311.0132484475066
0.0055                    0.0165                   311.05120935881985
0.0055                    0.0175                   311.084811692708
0.0055                    0.0185                   311.1160549279453
0.0055                    0.0195                   311.14351313293776
0.0055                    0.0205                   311.169143235388
0.0055                    0.0215                   311.19102282768335
0.0055                    0.0225                   311.21290241997866
0.0055                    0.0235                   311.2320430948223
0.0055                    0.0245                   311.2470111864351
0.0055                    0.0255                   311.26197927804776
0.0055                    0.0265                   311.27395745137596
0.0055                    0.0275                   311.2842426701002
0.0055                    0.0285                   311.2934660601187
0.0055                    0.0295                   311.3002299986491
0.0055                    0.0305                   311.3022476622722
0.0055                    0.0315                   311.30404083883616
0.0065                    -0.0315                  306.1248125035685
0.0065                    -0.0305                  306.1174835997084
0.0065                    -0.0295                  306.10875780023355
0.0065                    -0.0285                  306.0889042583169
0.0065                    -0.0275                  306.06905071640034
0.0065                    -0.0265                  306.0395387117314
0.0065                    -0.0255                  306.00776982238426
0.0065                    -0.0245                  305.9692379746858
0.0065                    -0.0235                  305.9270505123461
0.0065                    -0.0225                  305.8815610454325
0.0065                    -0.0215                  305.832098533314
0.0065                    -0.0205                  305.77930452430365
0.0065                    -0.0195                  300.4744261084001
0.0065                    -0.0185                  295.06651382240835
0.0065                    -0.0175                  293.54363539645726
0.0065                    -0.0165                  293.29140388420376
0.0065                    -0.0155                  293.37596639781674
0.0065                    -0.0145                  293.8878067016959
0.0065                    -0.0135                  296.894001703992
0.0065                    -0.0125                  300.08435050849073
0.0065                    -0.0115                  300.11203145055117
0.0065                    -0.0105                  300.11731537431115
0.0065                    -0.0095                  300.12038357851065
0.0065                    -0.0085                  300.12410707769436
0.0065                    -0.0075                  300.13155235589056
0.0065                    -0.0065                  300.1409373061232
0.0065                    -0.0055                  300.1557514789133
0.0065                    -0.0045                  300.1534434194509
0.0065                    -0.0035                  297.56994154320313
0.0065                    -0.0025                  295.21250628011745
0.0065                    -0.0015                  293.71468493237495
0.0065                    -5.0E-4                  293.47412355647566
0.0065                    5.0E-4                   293.31921743427574
0.0065                    0.0015                   293.293883194543
0.0065                    0.0025                   293.24928329498795
0.0065                    0.0035                   293.3305490434236
0.0065                    0.0045                   293.47063329481267
0.0065                    0.0055                   293.6795695097495
0.0065                    0.0065                   294.3370701320989
0.0065                    0.0075                   295.28109684852205
0.0065                    0.0085                   296.23765964248685
0.0065                    0.0095                   296.76332841569376
0.0065                    0.0105                   296.91240456704566
0.0065                    0.0115                   297.6926435283798