% Model:              模型结构导入comsolBench.mph
% Version:            COMSOL 6.2.0.339
% Date:               May 29 2026, 11:34
% Dimension:          2
% Nodes:              4096
% Expressions:        1
% Description:        温度
% Length unit:        m
% x                       y                        T (K)
5.0E-4                    -0.0315                  294.1454395674676
5.0E-4                    -0.0305                  294.12995007758354
5.0E-4                    -0.0295                  294.09814402489394
5.0E-4                    -0.0285                  294.03670172920243
5.0E-4                    -0.0275                  293.9592627783631
5.0E-4                    -0.0265                  293.8760179764961
5.0E-4                    -0.0255                  293.3743281920963
5.0E-4                    -0.0245                  293.15699028383267
5.0E-4                    -0.0235                  293.1472793493482
5.0E-4                    -0.0225                  293.1479805616112
5.0E-4                    -0.0215                  293.1499585903788
5.0E-4                    -0.0205                  293.1515436854881
5.0E-4                    -0.0195                  293.1520018025964
5.0E-4                    -0.0185                  293.15156523808133
5.0E-4                    -0.0175                  293.1510066727833
5.0E-4                    -0.0165                  293.2006359675961
5.0E-4                    -0.0155                  294.37765659754353
5.0E-4                    -0.0145                  294.6943626249083
5.0E-4                    -0.0135                  294.6894761958894
5.0E-4                    -0.0125                  294.6249163782643
5.0E-4                    -0.0115                  294.5251736523545
5.0E-4                    -0.0105                  294.4273989803516
5.0E-4                    -0.0095                  294.34704144432396
5.0E-4                    -0.0085                  294.2871018155678
5.0E-4                    -0.0075                  294.2411939822456
5.0E-4                    -0.0065                  294.20622970314207
5.0E-4                    -0.0055                  294.17561518712205
5.0E-4                    -0.0045                  294.150855179445
5.0E-4                    -0.0035                  294.1290514810417
5.0E-4                    -0.0025                  294.10959125082
5.0E-4                    -0.0015                  294.0913577712248
5.0E-4                    -5.0E-4                  294.07428430181676
5.0E-4                    5.0E-4                   294.05817338945496
5.0E-4                    0.0015                   294.0421343993479
5.0E-4                    0.0025                   294.02689829072915
5.0E-4                    0.0035                   294.0134639257783
5.0E-4                    0.0045                   294.00482360762186
5.0E-4                    0.0055                   294.00746918859016
5.0E-4                    0.0065                   294.01849356729525
5.0E-4                    0.0075                   294.03564280106434
5.0E-4                    0.0085                   294.0729949458355
5.0E-4                    0.0095                   294.1286228478949
5.0E-4                    0.0105                   294.1971863981289
5.0E-4                    0.0115                   294.3009235878904
5.0E-4                    0.0125                   294.52816065563474
5.0E-4                    0.0135                   295.33420342936824
5.0E-4                    0.0145                   297.29755331891954
5.0E-4                    0.0155                   298.2996008634268
5.0E-4                    0.0165                   298.32048796226024
5.0E-4                    0.0175                   298.3530375321426
5.0E-4                    0.0185                   298.39049267745133
5.0E-4                    0.0195                   298.430057834431
5.0E-4                    0.0205                   298.4700830136131
5.0E-4                    0.0215                   298.50840431440616
5.0E-4                    0.0225                   298.54448590352615
5.0E-4                    0.0235                   298.5761020876123
5.0E-4                    0.0245                   298.60732171582816
5.0E-4                    0.0255                   298.6316407401517
5.0E-4                    0.0265                   298.651933691431
5.0E-4                    0.0275                   298.67222664271037
5.0E-4                    0.0285                   298.6879653670779
5.0E-4                    0.0295                   298.6951835055923
5.0E-4                    0.0305                   298.7024016441067
5.0E-4                    0.0315                   298.70943578469553
0.0015                    -0.0315                  294.1566915380066
0.0015                    -0.0305                  294.14244178649045
0.0015                    -0.0295                  294.1127696707623
0.0015                    -0.0285                  294.0735731060013
0.0015                    -0.0275                  294.0228894647319
0.0015                    -0.0265                  293.97658583400107
0.0015                    -0.0255                  293.4956583729703
0.0015                    -0.0245                  293.1737903909633
0.0015                    -0.0235                  293.1499837594317
0.0015                    -0.0225                  293.1500453564535
0.0015                    -0.0215                  293.15190477428854
0.0015                    -0.0205                  293.15342230058303
0.0015                    -0.0195                  293.15396007505484
0.0015                    -0.0185                  293.15397104490893
0.0015                    -0.0175                  293.1505502776364
0.0015                    -0.0165                  293.2418302823208
0.0015                    -0.0155                  294.1950320207485
0.0015                    -0.0145                  294.4169254255153
0.0015                    -0.0135                  294.42909753813524
0.0015                    -0.0125                  294.3895925392729
0.0015                    -0.0115                  294.3445428801884
0.0015                    -0.0105                  294.2897173397783
0.0015                    -0.0095                  294.2554050359954
0.0015                    -0.0085                  294.21990795519355
0.0015                    -0.0075                  294.2001394341129
0.0015                    -0.0065                  294.17776295412216
0.0015                    -0.0055                  294.1708905831759
0.0015                    -0.0045                  294.1486399132924
0.0015                    -0.0035                  294.1443931987718
0.0015                    -0.0025                  294.135291260423
0.0015                    -0.0015                  294.11979525191487
0.0015                    -5.0E-4                  294.09844231483396
0.0015                    5.0E-4                   294.07119896034055
0.0015                    0.0015                   294.0393034820571
0.0015                    0.0025                   294.00334745048406
0.0015                    0.0035                   293.9626597416319
0.0015                    0.0045                   293.9229894593496
0.0015                    0.0055                   293.89712878600704
0.0015                    0.0065                   293.8854811474905
0.0015                    0.0075                   293.8875745923397
0.0015                    0.0085                   293.9010795162512
0.0015                    0.0095                   293.9273766714075
0.0015                    0.0105                   293.9694501498648
0.0015                    0.0115                   294.02298710645823
0.0015                    0.0125                   294.1218936124611
0.0015                    0.0135                   294.38187642568425
0.0015                    0.0145                   295.9702306507119
0.0015                    0.0155                   298.2756229958803
0.0015                    0.0165                   298.30687768861713
0.0015                    0.0175                   298.34293438009547
0.0015                    0.0185                   298.3834270837447
0.0015                    0.0195                   298.42575467203835
0.0015                    0.0205                   298.46705753442075
0.0015                    0.0215                   298.50577375299497
0.0015                    0.0225                   298.54188752216436
0.0015                    0.0235                   298.57595621900253
0.0015                    0.0245                   298.60381985521474
0.0015                    0.0255                   298.63079314921043
0.0015                    0.0265                   298.65279642062865
0.0015                    0.0275                   298.6696102521595
0.0015                    0.0285                   298.68566387326956
0.0015                    0.0295                   298.6948270807418
0.0015                    0.0305                   298.70149322547945
0.0015                    0.0315                   298.7058440434308
0.0025                    -0.0315                  294.17284392250843
0.0025                    -0.0305                  294.1669557800834
0.0025                    -0.0295                  294.1419808959252
0.0025                    -0.0285                  294.11257649010093
0.0025                    -0.0275                  294.0791384634198
0.0025                    -0.0265                  294.04675439982964
0.0025                    -0.0255                  293.5774429493339
0.0025                    -0.0245                  293.1920049317305
0.0025                    -0.0235                  293.1533576833899
0.0025                    -0.0225                  293.1521850208152
0.0025                    -0.0215                  293.1538319077528
0.0025                    -0.0205                  293.1552175181314
0.0025                    -0.0195                  293.1559578596819
0.0025                    -0.0185                  293.1558708994405
0.0025                    -0.0175                  293.1508515431095
0.0025                    -0.0165                  293.2713027233235
0.0025                    -0.0155                  293.9919496628865
0.0025                    -0.0145                  294.32840498777256
0.0025                    -0.0135                  294.3490427542145
0.0025                    -0.0125                  294.3240676677998
0.0025                    -0.0115                  294.29035754229176
0.0025                    -0.0105                  294.2608782911731
0.0025                    -0.0095                  294.24148920064454
0.0025                    -0.0085                  294.22602318228036
0.0025                    -0.0075                  294.2256112938811
0.0025                    -0.0065                  294.23223527538266
0.0025                    -0.0055                  294.2428082126045
0.0025                    -0.0045                  294.2553334452931
0.0025                    -0.0035                  294.24932332483405
0.0025                    -0.0025                  294.23189911480085
0.0025                    -0.0015                  294.2037669171017
0.0025                    -5.0E-4                  294.16596758192776
0.0025                    5.0E-4                   294.1135242832045
0.0025                    0.0015                   294.0541679938674
0.0025                    0.0025                   293.98944833523154
0.0025                    0.0035                   293.9192760940024
0.0025                    0.0045                   293.8637285607131
0.0025                    0.0055                   293.83331799676444
0.0025                    0.0065                   293.82579996953325
0.0025                    0.0075                   293.8281135682305
0.0025                    0.0085                   293.8376219005403
0.0025                    0.0095                   293.85305120976636
0.0025                    0.0105                   293.8770784431057
0.0025                    0.0115                   293.9102170791389
0.0025                    0.0125                   293.9629424054359
0.0025                    0.0135                   294.0741498554248
0.0025                    0.0145                   295.00568501738087
0.0025                    0.0155                   298.24379135189514
0.0025                    0.0165                   298.28283590235645
0.0025                    0.0175                   298.3241511984719
0.0025                    0.0185                   298.37087259045336
0.0025                    0.0195                   298.4163308712419
0.0025                    0.0205                   298.45879990936317
0.0025                    0.0215                   298.50158867232363
0.0025                    0.0225                   298.5378651516549
0.0025                    0.0235                   298.572838673396
0.0025                    0.0245                   298.60069699007187
0.0025                    0.0255                   298.62764505535586
0.0025                    0.0265                   298.65044743865263
0.0025                    0.0275                   298.66635272521864
0.0025                    0.0285                   298.68225801178477
0.0025                    0.0295                   298.69355066626343
0.0025                    0.0305                   298.6979014842147
0.0025                    0.0315                   298.702252302166
0.0035                    -0.0315                  294.1996968074587
0.0035                    -0.0305                  294.19141572968397
0.0035                    -0.0295                  294.17411412530896
0.0035                    -0.0285                  294.1536995362538
0.0035                    -0.0275                  294.12676171208994
0.0035                    -0.0265                  294.10195934161914
0.0035                    -0.0255                  293.63262626371954
0.0035                    -0.0245                  293.20402491538823
0.0035                    -0.0235                  293.15706504612217
0.0035                    -0.0225                  293.1546860600776
0.0035                    -0.0215                  293.1556867174677
0.0035                    -0.0205                  293.1571498611231
0.0035                    -0.0195                  293.1580345748026
0.0035                    -0.0185                  293.15735812790217
0.0035                    -0.0175                  293.1622697067363
0.0035                    -0.0165                  293.3109914130474
0.0035                    -0.0155                  293.8621706697978
0.0035                    -0.0145                  294.2740827849311
0.0035                    -0.0135                  294.34155440582384
0.0035                    -0.0125                  294.3184723004978
0.0035                    -0.0115                  294.29388689399457
0.0035                    -0.0105                  294.28411360461314
0.0035                    -0.0095                  294.26849024545606
0.0035                    -0.0085                  294.27619790277504
0.0035                    -0.0075                  294.28638762911754
0.0035                    -0.0065                  294.30436995367756
0.0035                    -0.0055                  294.3204853456675
0.0035                    -0.0045                  294.3145675775307
0.0035                    -0.0035                  294.31604583131826
0.0035                    -0.0025                  294.277565125751
0.0035                    -0.0015                  294.2389244627696
0.0035                    -5.0E-4                  294.17138924505764
0.0035                    5.0E-4                   294.10057046339284
0.0035                    0.0015                   294.00343818747456
0.0035                    0.0025                   293.91236202750093
0.0035                    0.0035                   293.8377744717687
0.0035                    0.0045                   293.8026198026014
0.0035                    0.0055                   293.79291657500863
0.0035                    0.0065                   293.79242733616087
0.0035                    0.0075                   293.8059204273327
0.0035                    0.0085                   293.8179400796239
0.0035                    0.0095                   293.8326564859538
0.0035                    0.0105                   293.8517104041759
0.0035                    0.0115                   293.8678552895219
0.0035                    0.0125                   293.9009162402441
0.0035                    0.0135                   293.95734656456005
0.0035                    0.0145                   294.16269596796644
0.0035                    0.0155                   296.6907702529425
0.0035                    0.0165                   298.2440507073851
0.0035                    0.0175                   298.2964425732598
0.0035                    0.0185                   298.3514457921746
0.0035                    0.0195                   298.4027694776643
0.0035                    0.0205                   298.45122764673386
0.0035                    0.0215                   298.4956675780384
0.0035                    0.0225                   298.5327698816691
0.0035                    0.0235                   298.56658304190523
0.0035                    0.0245                   298.59795370731723
0.0035                    0.0255                   298.62421022940043
0.0035                    0.0265                   298.6456826230493
0.0035                    0.0275                   298.6637697162171
0.0035                    0.0285                   298.6778683995832
0.0035                    0.0295                   298.688180458699
0.0035                    0.0305                   298.6936972334783
0.0035                    0.0315                   298.6986605609013
0.0045                    -0.0315                  294.22752406929624
0.0045                    -0.0305                  294.22243231418395
0.0045                    -0.0295                  294.2095947041959
0.0045                    -0.0285                  294.19155380796326
0.0045                    -0.0275                  294.1689185626615
0.0045                    -0.0265                  294.14519208022165
0.0045                    -0.0255                  293.64941493076117
0.0045                    -0.0245                  293.216544833887
0.0045                    -0.0235                  293.1624913992314
0.0045                    -0.0225                  293.1571160274782
0.0045                    -0.0215                  293.1576002595813
0.0045                    -0.0205                  293.159045631366
0.0045                    -0.0195                  293.15990919516094
0.0045                    -0.0185                  293.15969325850176
0.0045                    -0.0175                  293.16225343917944
0.0045                    -0.0165                  293.3040709258976
0.0045                    -0.0155                  293.750217811146
0.0045                    -0.0145                  294.221247965328
0.0045                    -0.0135                  294.3327111166443
0.0045                    -0.0125                  294.3279722637022
0.0045                    -0.0115                  294.32046187350295
0.0045                    -0.0105                  294.31645601959417
0.0045                    -0.0095                  294.32579102732427
0.0045                    -0.0085                  294.3327845387684
0.0045                    -0.0075                  294.34030274779434
0.0045                    -0.0065                  294.3510897146624
0.0045                    -0.0055                  294.3375721075817
0.0045                    -0.0045                  294.3288992182279
0.0045                    -0.0035                  294.2772829735324
0.0045                    -0.0025                  294.23675909071653
0.0045                    -0.0015                  294.1674699158324
0.0045                    -5.0E-4                  294.090163874563
0.0045                    5.0E-4                   293.9937886524428
0.0045                    0.0015                   293.8984542557887
0.0045                    0.0025                   293.8069207608792
0.0045                    0.0035                   293.7794452072235
0.0045                    0.0045                   293.75804723456395
0.0045                    0.0055                   293.7760839031721
0.0045                    0.0065                   293.7953714540871
0.0045                    0.0075                   293.81230485258095
0.0045                    0.0085                   293.832386597364
0.0045                    0.0095                   293.8521385078394
0.0045                    0.0105                   293.861103709378
0.0045                    0.0115                   293.8652690970866
0.0045                    0.0125                   293.8795803827319
0.0045                    0.0135                   293.9107601402367
0.0045                    0.0145                   293.9849466923217
0.0045                    0.0155                   295.351221135776
0.0045                    0.0165                   298.18638456815614
0.0045                    0.0175                   298.26636841910977
0.0045                    0.0185                   298.3291789500357
0.0045                    0.0195                   298.3895380100898
0.0045                    0.0205                   298.4404149588289
0.0045                    0.0215                   298.4884164717434
0.0045                    0.0225                   298.52715713739565
0.0045                    0.0235                   298.56050889755466
0.0045                    0.0245                   298.5941405706508
0.0045                    0.0255                   298.6186250560005
0.0045                    0.0265                   298.6399181064507
0.0045                    0.0275                   298.65804664578275
0.0045                    0.0285                   298.6717648210719
0.0045                    0.0295                   298.68215387130016
0.0045                    0.0305                   298.6876706460795
0.0045                    0.0315                   298.69232398568835
0.0055                    -0.0315                  294.25889097177867
0.0055                    -0.0305                  294.2542483603733
0.0055                    -0.0295                  294.2425043371261
0.0055                    -0.0285                  294.22925695168146
0.0055                    -0.0275                  294.20789427715454
0.0055                    -0.0265                  294.17502842976734
0.0055                    -0.0255                  293.6475208854653
0.0055                    -0.0245                  293.2136768046257
0.0055                    -0.0235                  293.16293821660923
0.0055                    -0.0225                  293.15981668568816
0.0055                    -0.0215                  293.15971877585275
0.0055                    -0.0205                  293.1609738795845
0.0055                    -0.0195                  293.1615379453943
0.0055                    -0.0185                  293.1606910603627
0.0055                    -0.0175                  293.1740821505527
0.0055                    -0.0165                  293.29665513698717
0.0055                    -0.0155                  293.6719264725439
0.0055                    -0.0145                  294.06324691318605
0.0055                    -0.0135                  294.2095692097521
0.0055                    -0.0125                  294.29614048285333
0.0055                    -0.0115                  294.328246452036
0.0055                    -0.0105                  294.2800102362772
0.0055                    -0.0095                  294.32993408716266
0.0055                    -0.0085                  294.32848979028216
0.0055                    -0.0075                  294.32325928700527
0.0055                    -0.0065                  294.30201633156327
0.0055                    -0.0055                  294.28946172430676
0.0055                    -0.0045                  294.22715967267595
0.0055                    -0.0035                  294.16353448465026
0.0055                    -0.0025                  294.1079451212316
0.0055                    -0.0015                  294.02078329727345
0.0055                    -5.0E-4                  293.9364332689417
0.0055                    5.0E-4                   293.849127644781
0.0055                    0.0015                   293.7544593527046
0.0055                    0.0025                   293.7168619293441
0.0055                    0.0035                   293.72461849450735
0.0055                    0.0045                   293.7602715044436
0.0055                    0.0055                   293.77695833405414
0.0055                    0.0065                   293.83906623556385
0.0055                    0.0075                   293.9026702467481
0.0055                    0.0085                   293.94897043438056
0.0055                    0.0095                   293.95341810443443
0.0055                    0.0105                   293.9121901715197
0.0055                    0.0115                   293.90088198251215
0.0055                    0.0125                   293.89332972537096
0.0055                    0.0135                   293.90407296186925
0.0055                    0.0145                   293.913458088623
0.0055                    0.0155                   294.3190689127155
0.0055                    0.0165                   296.96312165784246
0.0055                    0.0175                   298.2320723878225
0.0055                    0.0185                   298.30642242505087
0.0055                    0.0195                   298.37834358935
0.0055                    0.0205                   298.43379166708064
0.0055                    0.0215                   298.481647103025
0.0055                    0.0225                   298.5229166441851
0.0055                    0.0235                   298.556268404344
0.0055                    0.0245                   298.58837203097653
0.0055                    0.0255                   298.61248980229567
0.0055                    0.0265                   298.63379390479406
0.0055                    0.0275                   298.65101526107014
0.0055                    0.0285                   298.6652045274371
0.0055                    0.0295                   298.675458425162
0.0055                    0.0305                   298.6792679767737
0.0055                    0.0315                   298.68307752838547
0.0065                    -0.0315                  294.28940659127124
0.0065                    -0.0305                  294.28524184900925
0.0065                    -0.0295                  294.278432337288
0.0065                    -0.0285                  294.265961328766
0.0065                    -0.0275                  294.2507506331151
0.0065                    -0.0265                  294.1085385307989
0.0065                    -0.0255                  293.59981610770376
0.0065                    -0.0245                  293.22738726487864
0.0065                    -0.0235                  293.16724855538143
0.0065                    -0.0225                  293.162316581091
0.0065                    -0.0215                  293.16208544965457
0.0065                    -0.0205                  293.1627636495224
0.0065                    -0.0195                  293.163590320895
0.0065                    -0.0185                  293.16314499831816
0.0065                    -0.0175                  293.1701103440827
0.0065                    -0.0165                  293.2570092144003
0.0065                    -0.0155                  293.5524260394536
0.0065                    -0.0145                  293.87219066954407
0.0065                    -0.0135                  294.0326989491486
0.0065                    -0.0125                  294.09380859218055
0.0065                    -0.0115                  294.08253414968226
0.0065                    -0.0105                  294.09993778664585
0.0065                    -0.0095                  294.07845586120095
0.0065                    -0.0085                  294.0637753043525
0.0065                    -0.0075                  294.0409489314926
0.0065                    -0.0065                  294.0497405685685
0.0065                    -0.0055                  294.0247375105008
0.0065                    -0.0045                  293.9820584619942
0.0065                    -0.0035                  293.91006076144635
0.0065                    -0.0025                  293.8747924454403
0.0065                    -0.0015                  293.7875780194977
0.0065                    -5.0E-4                  293.72746243188067
0.0065                    5.0E-4                   293.67211702926187
0.0065                    0.0015                   293.6657369433444
0.0065                    0.0025                   293.71132301809797
0.0065                    0.0035                   293.78660349527513
0.0065                    0.0045                   293.83599486640287
0.0065                    0.0055                   293.9680944864931
0.0065                    0.0065                   294.12417253100585
0.0065                    0.0075                   294.25560846488787
0.0065                    0.0085                   294.2928022161018
0.0065                    0.0095                   294.2395217138981
0.0065                    0.0105                   294.19248957595005
0.0065                    0.0115                   294.0757589151738