% Model:              模型结构导入comsolBench.mph
% Version:            COMSOL 6.2.0.339
% Date:               May 28 2026, 17:47
% Dimension:          2
% Nodes:              4096
% Expressions:        1
% Description:        温度
% Length unit:        m
% x                       y                        T (K)
5.0E-4                    -0.0315                  306.76526075717004
5.0E-4                    -0.0305                  306.75547231797225
5.0E-4                    -0.0295                  306.74566963077365
5.0E-4                    -0.0285                  306.735866943575
5.0E-4                    -0.0275                  306.7194398069346
5.0E-4                    -0.0265                  306.6917621589966
5.0E-4                    -0.0255                  306.6640845110586
5.0E-4                    -0.0245                  306.63640686312056
5.0E-4                    -0.0235                  306.60413802564136
5.0E-4                    -0.0225                  306.561756330404
5.0E-4                    -0.0215                  306.5190137006855
5.0E-4                    -0.0205                  306.47627107096696
5.0E-4                    -0.0195                  306.4304609230133
5.0E-4                    -0.0185                  306.37808655988744
5.0E-4                    -0.0175                  306.32536268958745
5.0E-4                    -0.0165                  306.27263881928747
5.0E-4                    -0.0155                  306.2184731068946
5.0E-4                    -0.0145                  306.16386372336126
5.0E-4                    -0.0135                  306.11008247325674
5.0E-4                    -0.0125                  306.0563012231523
5.0E-4                    -0.0115                  306.00328873404226
5.0E-4                    -0.0105                  305.9576092086189
5.0E-4                    -0.0095                  305.9119296831956
5.0E-4                    -0.0085                  305.874315256764
5.0E-4                    -0.0075                  305.8412138692316
5.0E-4                    -0.0065                  305.81540500007657
5.0E-4                    -0.0055                  305.79602738211565
5.0E-4                    -0.0045                  305.7828516998228
5.0E-4                    -0.0035                  305.7754863108336
5.0E-4                    -0.0025                  305.77045775945385
5.0E-4                    -0.0015                  304.8974547038023
5.0E-4                    -5.0E-4                  303.5055660665973
5.0E-4                    5.0E-4                   302.9588060806622
5.0E-4                    0.0015                   302.3679688787996
5.0E-4                    0.0025                   301.6493648698901
5.0E-4                    0.0035                   299.1981497771831
5.0E-4                    0.0045                   293.34608173436715
5.0E-4                    0.0055                   293.151504256943
5.0E-4                    0.0065                   293.1514263976841
5.0E-4                    0.0075                   293.15140365189166
5.0E-4                    0.0085                   293.1514741567436
5.0E-4                    0.0095                   293.156209041095
5.0E-4                    0.0105                   294.7104106334384
5.0E-4                    0.0115                   298.0502225518763
5.0E-4                    0.0125                   298.53061458946456
5.0E-4                    0.0135                   298.8502471980179
5.0E-4                    0.0145                   299.07694116319624
5.0E-4                    0.0155                   299.2630347392048
5.0E-4                    0.0165                   299.4127033269944
5.0E-4                    0.0175                   299.544988513369
5.0E-4                    0.0185                   299.6506752242913
5.0E-4                    0.0195                   299.7552529984414
5.0E-4                    0.0205                   299.83644161573983
5.0E-4                    0.0215                   299.90614221987846
5.0E-4                    0.0225                   299.975842824017
5.0E-4                    0.0235                   300.03846163583466
5.0E-4                    0.0245                   300.08162919378583
5.0E-4                    0.0255                   300.12163459673377
5.0E-4                    0.0265                   300.1616399996817
5.0E-4                    0.0275                   300.2001437208311
5.0E-4                    0.0285                   300.2187821808933
5.0E-4                    0.0295                   300.23176773905516
5.0E-4                    0.0305                   300.2447532972169
5.0E-4                    0.0315                   300.25773885537865
0.0015                    -0.0315                  306.76375946409956
0.0015                    -0.0305                  306.7569147703738
0.0015                    -0.0295                  306.7471548271776
0.0015                    -0.0285                  306.73614427154155
0.0015                    -0.0275                  306.71594757810374
0.0015                    -0.0265                  306.69278798824655
0.0015                    -0.0255                  306.6651103403085
0.0015                    -0.0245                  306.63525737724086
0.0015                    -0.0235                  306.5994747286571
0.0015                    -0.0225                  306.56081465216465
0.0015                    -0.0215                  306.5180720224461
0.0015                    -0.0205                  306.4740644147604
0.0015                    -0.0195                  306.42439847073604
0.0015                    -0.0185                  306.3731711067826
0.0015                    -0.0175                  306.3204472364826
0.0015                    -0.0165                  306.26744164359224
0.0015                    -0.0155                  306.21016113958626
0.0015                    -0.0145                  306.15428931554953
0.0015                    -0.0135                  306.10050806544507
0.0015                    -0.0125                  306.04652264789615
0.0015                    -0.0115                  305.99233052235405
0.0015                    -0.0105                  305.943670292555
0.0015                    -0.0095                  305.90159814511054
0.0015                    -0.0085                  305.86279121300544
0.0015                    -0.0075                  305.83167533483515
0.0015                    -0.0065                  305.8048845104614
0.0015                    -0.0055                  305.785286420628
0.0015                    -0.0045                  305.7735915307525
0.0015                    -0.0035                  305.7670844426069
0.0015                    -0.0025                  305.7639493791086
0.0015                    -0.0015                  304.83637189453407
0.0015                    -5.0E-4                  303.76424320325714
0.0015                    5.0E-4                   302.9322754195996
0.0015                    0.0015                   301.24097109614763
0.0015                    0.0025                   299.1648224418155
0.0015                    0.0035                   297.3178283813381
0.0015                    0.0045                   293.42219475624654
0.0015                    0.0055                   293.1502980457471
0.0015                    0.0065                   293.15431800434794
0.0015                    0.0075                   293.154352230557
0.0015                    0.0085                   293.1537293357003
0.0015                    0.0095                   293.1873002268054
0.0015                    0.0105                   295.3108014936891
0.0015                    0.0115                   298.47293724048575
0.0015                    0.0125                   298.68981154916867
0.0015                    0.0135                   298.9187725403509
0.0015                    0.0145                   299.12264726183685
0.0015                    0.0155                   299.28046436646673
0.0015                    0.0165                   299.4288716233717
0.0015                    0.0175                   299.5493984585696
0.0015                    0.0185                   299.66531063892165
0.0015                    0.0195                   299.75701337130386
0.0015                    0.0205                   299.84263899644225
0.0015                    0.0215                   299.9168377994929
0.0015                    0.0225                   299.9836207289672
0.0015                    0.0235                   300.03729742853056
0.0015                    0.0245                   300.0887548537511
0.0015                    0.0255                   300.128760256699
0.0015                    0.0265                   300.16876565964685
0.0015                    0.0275                   300.19822690392687
0.0015                    0.0285                   300.2232545052632
0.0015                    0.0295                   300.2363013229593
0.0015                    0.0305                   300.24928688112107
0.0015                    0.0315                   300.2580525065863
0.0025                    -0.0315                  306.7622581710291
0.0025                    -0.0305                  306.75541347730336
0.0025                    -0.0295                  306.74856878357764
0.0025                    -0.0285                  306.73237385479644
0.0025                    -0.0275                  306.7121771613586
0.0025                    -0.0265                  306.69198046792076
0.0025                    -0.0255                  306.66613616955846
0.0025                    -0.0245                  306.63059408025674
0.0025                    -0.0235                  306.59481143167295
0.0025                    -0.0225                  306.5590287830891
0.0025                    -0.0215                  306.51713034420675
0.0025                    -0.0205                  306.4680019624832
0.0025                    -0.0195                  306.41833601845883
0.0025                    -0.0185                  306.36825565367775
0.0025                    -0.0175                  306.31553178337776
0.0025                    -0.0165                  306.2591296762839
0.0025                    -0.0155                  306.20184917227806
0.0025                    -0.0145                  306.1447149077378
0.0025                    -0.0135                  306.0908301100026
0.0025                    -0.0125                  306.0366379844605
0.0025                    -0.0115                  305.9824458589185
0.0025                    -0.0105                  305.93022269682507
0.0025                    -0.0095                  305.88423200967463
0.0025                    -0.0085                  305.83824132252425
0.0025                    -0.0075                  305.8044458670824
0.0025                    -0.0065                  305.77397334536994
0.0025                    -0.0055                  305.7609575863231
0.0025                    -0.0045                  305.7534647882517
0.0025                    -0.0035                  305.7515051572699
0.0025                    -0.0025                  305.75360956225063
0.0025                    -0.0015                  305.0985863714795
0.0025                    -5.0E-4                  303.75131949814966
0.0025                    5.0E-4                   301.4462443978069
0.0025                    0.0015                   299.53235467286163
0.0025                    0.0025                   298.28546726698625
0.0025                    0.0035                   296.39957863871376
0.0025                    0.0045                   293.5400832101048
0.0025                    0.0055                   293.1330408444019
0.0025                    0.0065                   293.1561788207964
0.0025                    0.0075                   293.1572282112733
0.0025                    0.0085                   293.1551722488931
0.0025                    0.0095                   293.295042517319
0.0025                    0.0105                   295.752052427992
0.0025                    0.0115                   298.7252719772533
0.0025                    0.0125                   298.8661033397265
0.0025                    0.0135                   299.0288789837749
0.0025                    0.0145                   299.17748411699256
0.0025                    0.0155                   299.33603009424576
0.0025                    0.0165                   299.4623952358562
0.0025                    0.0175                   299.57787801610505
0.0025                    0.0185                   299.68256524773517
0.0025                    0.0195                   299.7652855122547
0.0025                    0.0205                   299.8456113492757
0.0025                    0.0215                   299.9275333791074
0.0025                    0.0225                   299.98245652166304
0.0025                    0.0235                   300.03613322122635
0.0025                    0.0245                   300.0898099207897
0.0025                    0.0255                   300.1358859166642
0.0025                    0.0265                   300.1712824856862
0.0025                    0.0275                   300.19631008702254
0.0025                    0.0285                   300.2213376883589
0.0025                    0.0295                   300.24083490686354
0.0025                    0.0305                   300.249627491413
0.0025                    0.0315                   300.25835267825187
0.0035                    -0.0315                  306.76075687795867
0.0035                    -0.0305                  306.75378790875817
0.0035                    -0.0295                  306.7459049793098
0.0035                    -0.0285                  306.73094286694754
0.0035                    -0.0275                  306.71039197168875
0.0035                    -0.0265                  306.68984107642996
0.0035                    -0.0255                  306.6624505186783
0.0035                    -0.0245                  306.62658929439266
0.0035                    -0.0235                  306.59072807010705
0.0035                    -0.0225                  306.5548668458214
0.0035                    -0.0215                  306.5110512380978
0.0035                    -0.0205                  306.4617123118598
0.0035                    -0.0195                  306.41227356618157
0.0035                    -0.0185                  306.3626076221573
0.0035                    -0.0175                  306.3080982129816
0.0035                    -0.0165                  306.25058234437347
0.0035                    -0.0155                  306.1919572315707
0.0035                    -0.0145                  306.1333321187679
0.0035                    -0.0135                  306.071042162131
0.0035                    -0.0125                  306.0126086420868
0.0035                    -0.0115                  305.95417512204256
0.0035                    -0.0105                  305.898263157486
0.0035                    -0.0095                  305.8474914490645
0.0035                    -0.0085                  305.8078275798318
0.0035                    -0.0075                  305.77448893404187
0.0035                    -0.0065                  305.7409160946053
0.0035                    -0.0055                  305.72367112138573
0.0035                    -0.0045                  305.72055317502156
0.0035                    -0.0035                  305.72799949641984
0.0035                    -0.0025                  304.87739557621234
0.0035                    -0.0015                  303.13177598371027
0.0035                    -5.0E-4                  301.05546723840797
0.0035                    5.0E-4                   299.31121605943605
0.0035                    0.0015                   298.23928954042856
0.0035                    0.0025                   297.6223991054646
0.0035                    0.0035                   295.7613490434664
0.0035                    0.0045                   293.74261021725806
0.0035                    0.0055                   293.1904351380345
0.0035                    0.0065                   293.15475101860113
0.0035                    0.0075                   293.1599689446663
0.0035                    0.0085                   293.1604654145081
0.0035                    0.0095                   293.4124468980323
0.0035                    0.0105                   296.0728644494296
0.0035                    0.0115                   298.91552821880384
0.0035                    0.0125                   299.01429704017835
0.0035                    0.0135                   299.13517248150566
0.0035                    0.0145                   299.26601330375416
0.0035                    0.0155                   299.38510392995477
0.0035                    0.0165                   299.4980205970325
0.0035                    0.0175                   299.6061883515263
0.0035                    0.0185                   299.70197382696426
0.0035                    0.0195                   299.7890565182071
0.0035                    0.0205                   299.8691826341829
0.0035                    0.0215                   299.93820470871185
0.0035                    0.0225                   299.9915610230024
0.0035                    0.0235                   300.04172492378734
0.0035                    0.0245                   300.09188882457227
0.0035                    0.0255                   300.14232241304893
0.0035                    0.0265                   300.17042371448497
0.0035                    0.0275                   300.19682295962247
0.0035                    0.0285                   300.22322220476
0.0035                    0.0295                   300.2424437754874
0.0035                    0.0305                   300.25009718446324
0.0035                    0.0315                   300.25865284991744
0.0045                    -0.0315                  306.75830031281964
0.0045                    -0.0305                  306.75041738337126
0.0045                    -0.0295                  306.7425344539229
0.0045                    -0.0285                  306.7305672374072
0.0045                    -0.0275                  306.7100163421484
0.0045                    -0.0265                  306.6855475755209
0.0045                    -0.0255                  306.6566293064731
0.0045                    -0.0245                  306.6237705709276
0.0045                    -0.0235                  306.587909346642
0.0045                    -0.0225                  306.54808796387164
0.0045                    -0.0215                  306.501979180306
0.0045                    -0.0205                  306.4528032706661
0.0045                    -0.0195                  306.403464344428
0.0045                    -0.0185                  306.35071254172806
0.0045                    -0.0175                  306.29009781459513
0.0045                    -0.0165                  306.23128045466945
0.0045                    -0.0155                  306.1726553418667
0.0045                    -0.0145                  306.1080275401672
0.0045                    -0.0135                  306.04247268418254
0.0045                    -0.0125                  305.9802507373164
0.0045                    -0.0115                  305.9218172172722
0.0045                    -0.0105                  305.86766159987775
0.0045                    -0.0095                  305.80742961272813
0.0045                    -0.0085                  305.76064995089746
0.0045                    -0.0075                  305.71899301790035
0.0045                    -0.0065                  305.6868973056177
0.0045                    -0.0055                  305.6707583680221
0.0045                    -0.0045                  305.6683978178736
0.0045                    -0.0035                  305.1487467855987
0.0045                    -0.0025                  302.7309776990321
0.0045                    -0.0015                  300.0867615212421
0.0045                    -5.0E-4                  298.59796526453476
0.0045                    5.0E-4                   297.7040533122679
0.0045                    0.0015                   297.2754374466752
0.0045                    0.0025                   297.0194781875591
0.0045                    0.0035                   295.09591712284725
0.0045                    0.0045                   293.97076571724745
0.0045                    0.0055                   293.1984091390915
0.0045                    0.0065                   293.15660391525864
0.0045                    0.0075                   293.1624944948882
0.0045                    0.0085                   293.1709332344194
0.0045                    0.0095                   293.5177261132504
0.0045                    0.0105                   296.2890899126
0.0045                    0.0115                   299.062360512311
0.0045                    0.0125                   299.1396321950252
0.0045                    0.0135                   299.2345114919635
0.0045                    0.0145                   299.3347521220311
0.0045                    0.0155                   299.4501824532614
0.0045                    0.0165                   299.5493474428137
0.0045                    0.0175                   299.64049757927603
0.0045                    0.0185                   299.7267832899696
0.0045                    0.0195                   299.8108527862594
0.0045                    0.0205                   299.8798748607884
0.0045                    0.0215                   299.94889693531735
0.0045                    0.0225                   300.00669645044616
0.0045                    0.0235                   300.0568603512311
0.0045                    0.0245                   300.10540179748784
0.0045                    0.0255                   300.1496495203911
0.0045                    0.0265                   300.1757440072864
0.0045                    0.0275                   300.2018274953494
0.0045                    0.0285                   300.2282267404869
0.0045                    0.0295                   300.24499993180336
0.0045                    0.0305                   300.25265334077915
0.0045                    0.0315                   300.2603263845589
0.0055                    -0.0315                  306.7565246276989
0.0055                    -0.0305                  306.7476717047167
0.0055                    -0.0295                  306.7391639285359
0.0055                    -0.0285                  306.7301916078667
0.0055                    -0.0275                  306.70766104905636
0.0055                    -0.0265                  306.6787427800086
0.0055                    -0.0255                  306.6498245109608
0.0055                    -0.0245                  306.6209062419131
0.0055                    -0.0235                  306.58392307133414
0.0055                    -0.0225                  306.5378142877685
0.0055                    -0.0215                  306.4917055042029
0.0055                    -0.0205                  306.4438942294724
0.0055                    -0.0195                  306.3923602255735
0.0055                    -0.0185                  306.3343059291491
0.0055                    -0.0175                  306.2737902742615
0.0055                    -0.0165                  306.2119785649655
0.0055                    -0.0155                  306.1513738464025
0.0055                    -0.0145                  306.08236442289524
0.0055                    -0.0135                  306.0158500722612
0.0055                    -0.0125                  305.9528098286322
0.0055                    -0.0115                  305.88463525943394
0.0055                    -0.0105                  305.8187377739388
0.0055                    -0.0095                  305.75387124119237
0.0055                    -0.0085                  305.69960570675244
0.0055                    -0.0075                  305.6499586604597
0.0055                    -0.0065                  305.61528231661805
0.0055                    -0.0055                  305.59711846401405
0.0055                    -0.0045                  305.59397293538615
0.0055                    -0.0035                  302.84408337828035
0.0055                    -0.0025                  299.2321310343987
0.0055                    -0.0015                  297.6541822819793
0.0055                    -5.0E-4                  296.9465031054518
0.0055                    5.0E-4                   296.80685021077653
0.0055                    0.0015                   296.6543793380822
0.0055                    0.0025                   296.5326526054778
0.0055                    0.0035                   294.90632438725663
0.0055                    0.0045                   293.76298953231003
0.0055                    0.0055                   293.21732185748334
0.0055                    0.0065                   293.1782272034213
0.0055                    0.0075                   293.16378366336414
0.0055                    0.0085                   293.1931467565706
0.0055                    0.0095                   293.56413595372817
0.0055                    0.0105                   296.4452030882835
0.0055                    0.0115                   299.178489777897
0.0055                    0.0125                   299.24085806249076
0.0055                    0.0135                   299.31932927408883
0.0055                    0.0145                   299.4126220515458
0.0055                    0.0155                   299.4981039973354
0.0055                    0.0165                   299.5912041465491
0.0055                    0.0175                   299.6820163868787
0.0055                    0.0185                   299.7620256758197
0.0055                    0.0195                   299.8344626066522
0.0055                    0.0205                   299.89626944324715
0.0055                    0.0215                   299.95958916192285
0.0055                    0.0225                   300.02183187788995
0.0055                    0.0235                   300.0680807044598
0.0055                    0.0245                   300.1123284273632
0.0055                    0.0255                   300.1565761502665
0.0055                    0.0265                   300.18220739542
0.0055                    0.0275                   300.2074275634938
0.0055                    0.0285                   300.2332312762138
0.0055                    0.0295                   300.2475560881193
0.0055                    0.0305                   300.25536677852784
0.0055                    0.0315                   300.26324032717486
0.0065                    -0.0315                  306.75484045666315
0.0065                    -0.0305                  306.7459875336809
0.0065                    -0.0295                  306.7371346106987
0.0065                    -0.0285                  306.72818013280147
0.0065                    -0.0275                  306.7015149115582
0.0065                    -0.0265                  306.6727342172876
0.0065                    -0.0255                  306.6439535230171
0.0065                    -0.0245                  306.61517282874655
0.0065                    -0.0235                  306.5739293324174
0.0065                    -0.0225                  306.52772589508317
0.0065                    -0.0215                  306.481522457749
0.0065                    -0.0205                  306.43400790941894
0.0065                    -0.0195                  306.3759536129946
0.0065                    -0.0185                  306.3178993165702
0.0065                    -0.0175                  306.2574827339279
0.0065                    -0.0165                  306.19338610175856
0.0065                    -0.0155                  306.12251483817386
0.0065                    -0.0145                  306.05377471501816
0.0065                    -0.0135                  305.9809028204927
0.0065                    -0.0125                  305.911659395221
0.0065                    -0.0115                  305.83422277504354
0.0065                    -0.0105                  305.7652668911834
0.0065                    -0.0095                  305.69145026626677
0.0065                    -0.0085                  305.62724347853697
0.0065                    -0.0075                  305.56661307140394
0.0065                    -0.0065                  305.5197158006815
0.0065                    -0.0055                  305.4943632851966
0.0065                    -0.0045                  303.5958457168094
0.0065                    -0.0035                  299.219596559254
0.0065                    -0.0025                  296.79722794659654
0.0065                    -0.0015                  296.3801698572413
0.0065                    -5.0E-4                  296.2881129601598
0.0065                    5.0E-4                   296.3763490950154
0.0065                    0.0015                   296.4272064542948
0.0065                    0.0025                   295.9511534226233
0.0065                    0.0035                   294.58313815139206
0.0065                    0.0045                   293.7891468616718
0.0065                    0.0055                   293.21161131614315
0.0065                    0.0065                   293.1775987028452
0.0065                    0.0075                   293.1690376166846
0.0065                    0.0085                   293.2088344136324
0.0065                    0.0095                   293.6569266606601
0.0065                    0.0105                   296.5641614514103
0.0065                    0.0115                   299.26069649279293