% Model:              模型结构导入comsolBench.mph
% Version:            COMSOL 6.2.0.339
% Date:               May 28 2026, 17:45
% Dimension:          2
% Nodes:              4096
% Expressions:        1
% Description:        温度
% Length unit:        m
% x                       y                        T (K)
5.0E-4                    -0.0315                  299.48152848508215
5.0E-4                    -0.0305                  299.4736253188247
5.0E-4                    -0.0295                  299.4656977130604
5.0E-4                    -0.0285                  299.457770107296
5.0E-4                    -0.0275                  299.4432645721555
5.0E-4                    -0.0265                  299.42116119343376
5.0E-4                    -0.0255                  299.3990578147121
5.0E-4                    -0.0245                  299.37695443599034
5.0E-4                    -0.0235                  299.3491784075478
5.0E-4                    -0.0225                  299.3150279232238
5.0E-4                    -0.0215                  299.2808774388998
5.0E-4                    -0.0205                  299.24672695457576
5.0E-4                    -0.0195                  299.208286815076
5.0E-4                    -0.0185                  299.165784555742
5.0E-4                    -0.0175                  299.123282296408
5.0E-4                    -0.0165                  299.08078003707396
5.0E-4                    -0.0155                  299.0359562349163
5.0E-4                    -0.0145                  298.99021176556425
5.0E-4                    -0.0135                  298.94446729621234
5.0E-4                    -0.0125                  298.89872282686036
5.0E-4                    -0.0115                  298.85227734189135
5.0E-4                    -0.0105                  298.81019924763154
5.0E-4                    -0.0095                  298.7681498534446
5.0E-4                    -0.0085                  298.72610045925757
5.0E-4                    -0.0075                  298.6854384331966
5.0E-4                    -0.0065                  298.65326019159215
5.0E-4                    -0.0055                  298.6210819499877
5.0E-4                    -0.0045                  298.58988554316863
5.0E-4                    -0.0035                  298.5655928824892
5.0E-4                    -0.0025                  298.54329335686964
5.0E-4                    -0.0015                  298.5240606735674
5.0E-4                    -5.0E-4                  298.50929724227706
5.0E-4                    5.0E-4                   298.4966254657593
5.0E-4                    0.0015                   298.48613045445785
5.0E-4                    0.0025                   298.47733287377656
5.0E-4                    0.0035                   298.4685392455974
5.0E-4                    0.0045                   298.4584090433832
5.0E-4                    0.0055                   296.8184380065657
5.0E-4                    0.0065                   296.6600941942968
5.0E-4                    0.0075                   296.577905810245
5.0E-4                    0.0085                   296.4613609779316
5.0E-4                    0.0095                   296.3270571538095
5.0E-4                    0.0105                   296.26648200841436
5.0E-4                    0.0115                   295.1081555282759
5.0E-4                    0.0125                   293.18554987649463
5.0E-4                    0.0135                   293.1508738834823
5.0E-4                    0.0145                   293.15075716962525
5.0E-4                    0.0155                   293.15068745447
5.0E-4                    0.0165                   293.1508472522713
5.0E-4                    0.0175                   293.1528638627816
5.0E-4                    0.0185                   293.7164913197784
5.0E-4                    0.0195                   294.9790820963051
5.0E-4                    0.0205                   295.2288832044712
5.0E-4                    0.0215                   295.40509797038754
5.0E-4                    0.0225                   295.53803514023275
5.0E-4                    0.0235                   295.6385953899971
5.0E-4                    0.0245                   295.72334329513876
5.0E-4                    0.0255                   295.7922588205927
5.0E-4                    0.0265                   295.85107910646605
5.0E-4                    0.0275                   295.892502555291
5.0E-4                    0.0285                   295.9330217444768
5.0E-4                    0.0295                   295.95432355820947
5.0E-4                    0.0305                   295.96920391701826
5.0E-4                    0.0315                   295.9840733475453
0.0015                    -0.0315                  299.47833847568523
0.0015                    -0.0305                  299.47334631154985
0.0015                    -0.0295                  299.46549202430646
0.0015                    -0.0285                  299.45609930148134
0.0015                    -0.0275                  299.43963409271953
0.0015                    -0.0265                  299.4206258642605
0.0015                    -0.0255                  299.3985224855388
0.0015                    -0.0245                  299.37352537582336
0.0015                    -0.0235                  299.34444613592376
0.0015                    -0.0225                  299.31290059554533
0.0015                    -0.0215                  299.27875011122137
0.0015                    -0.0205                  299.24230636782306
0.0015                    -0.0195                  299.202258573361
0.0015                    -0.0185                  299.16104438859384
0.0015                    -0.0175                  299.1185421292598
0.0015                    -0.0165                  299.0748727287924
0.0015                    -0.0155                  299.0287824908621
0.0015                    -0.0145                  298.9828360699644
0.0015                    -0.0135                  298.93709160061235
0.0015                    -0.0125                  298.8909409464959
0.0015                    -0.0115                  298.8440830451564
0.0015                    -0.0105                  298.7994279286854
0.0015                    -0.0095                  298.75737853449846
0.0015                    -0.0085                  298.7159444123281
0.0015                    -0.0075                  298.67502017770306
0.0015                    -0.0065                  298.6393599811535
0.0015                    -0.0055                  298.607181739549
0.0015                    -0.0045                  298.58039255762856
0.0015                    -0.0035                  298.5540504679775
0.0015                    -0.0025                  298.53198978736174
0.0015                    -0.0015                  298.51662232303914
0.0015                    -5.0E-4                  298.5014227168386
0.0015                    5.0E-4                   298.4906984057892
0.0015                    0.0015                   298.48071822618186
0.0015                    0.0025                   298.4716845871045
0.0015                    0.0035                   298.4640879715478
0.0015                    0.0045                   297.43731280856906
0.0015                    0.0055                   296.769278378205
0.0015                    0.0065                   296.7464857759834
0.0015                    0.0075                   296.5398247430695
0.0015                    0.0085                   296.18977687362286
0.0015                    0.0095                   295.7959679080369
0.0015                    0.0105                   295.6166994603663
0.0015                    0.0115                   294.70187575675027
0.0015                    0.0125                   293.17275793674787
0.0015                    0.0135                   293.1517918268291
0.0015                    0.0145                   293.15234419807274
0.0015                    0.0155                   293.15235028166154
0.0015                    0.0165                   293.1523876548407
0.0015                    0.0175                   293.17830478187284
0.0015                    0.0185                   294.04750992728066
0.0015                    0.0195                   295.18940006361447
0.0015                    0.0205                   295.31181173103516
0.0015                    0.0215                   295.44264385393217
0.0015                    0.0225                   295.55575860109775
0.0015                    0.0235                   295.6537999274586
0.0015                    0.0245                   295.7296633670945
0.0015                    0.0255                   295.7990116331881
0.0015                    0.0265                   295.8521740298826
0.0015                    0.0275                   295.8991510649002
0.0015                    0.0285                   295.93787624144534
0.0015                    0.0295                   295.9620528549049
0.0015                    0.0305                   295.9769004288686
0.0015                    0.0315                   295.9914372035459
0.0025                    -0.0315                  299.47514846628826
0.0025                    -0.0305                  299.470156302153
0.0025                    -0.0295                  299.4651641380176
0.0025                    -0.0285                  299.45180006952904
0.0025                    -0.0275                  299.4353348607672
0.0025                    -0.0265                  299.41886965200547
0.0025                    -0.0255                  299.3973721039364
0.0025                    -0.0245                  299.36829286403673
0.0025                    -0.0235                  299.3392136241371
0.0025                    -0.0225                  299.3101343842375
0.0025                    -0.0215                  299.2761707925003
0.0025                    -0.0205                  299.23612299803824
0.0025                    -0.0195                  299.19607520357613
0.0025                    -0.0185                  299.1560274091141
0.0025                    -0.0175                  299.11379327143686
0.0025                    -0.0165                  299.0677030335066
0.0025                    -0.0155                  299.0216127955763
0.0025                    -0.0145                  298.9755225576461
0.0025                    -0.0135                  298.92960455110057
0.0025                    -0.0125                  298.88274664976103
0.0025                    -0.0115                  298.8358887484215
0.0025                    -0.0105                  298.789030847082
0.0025                    -0.0095                  298.74703330814066
0.0025                    -0.0085                  298.70610907351556
0.0025                    -0.0075                  298.6651848388904
0.0025                    -0.0065                  298.6254597707149
0.0025                    -0.0055                  298.59724166173953
0.0025                    -0.0045                  298.5708995720885
0.0025                    -0.0035                  298.54008227970695
0.0025                    -0.0025                  298.51762906928604
0.0025                    -0.0015                  298.49836380853566
0.0025                    -5.0E-4                  298.4828885869068
0.0025                    5.0E-4                   298.47529031011743
0.0025                    0.0015                   298.4670388649667
0.0025                    0.0025                   298.4618390673872
0.0025                    0.0035                   298.45344655342734
0.0025                    0.0045                   297.33217309449344
0.0025                    0.0055                   296.8740215814508
0.0025                    0.0065                   296.75550042753224
0.0025                    0.0075                   296.2990949216051
0.0025                    0.0085                   295.69372121899994
0.0025                    0.0095                   295.26446331692705
0.0025                    0.0105                   295.06826880384057
0.0025                    0.0115                   294.0648311258248
0.0025                    0.0125                   293.20724698562407
0.0025                    0.0135                   293.15163407022135
0.0025                    0.0145                   293.153614542556
0.0025                    0.0155                   293.1533266962153
0.0025                    0.0165                   293.15506607706357
0.0025                    0.0175                   293.2930795411077
0.0025                    0.0185                   294.28501623846375
0.0025                    0.0195                   295.31139621079564
0.0025                    0.0205                   295.39856880429573
0.0025                    0.0215                   295.49528393940903
0.0025                    0.0225                   295.59263951716235
0.0025                    0.0235                   295.6749738699418
0.0025                    0.0245                   295.7483121679119
0.0025                    0.0255                   295.81596553469467
0.0025                    0.0265                   295.87097519764836
0.0025                    0.0275                   295.90706641725205
0.0025                    0.0285                   295.94298463484927
0.0025                    0.0295                   295.96972751019194
0.0025                    0.0305                   295.98426428486925
0.0025                    0.0315                   295.9988010595465
0.0035                    -0.0315                  299.47195845689134
0.0035                    -0.0305                  299.4666626544804
0.0035                    -0.0295                  299.4596379872306
0.0035                    -0.0285                  299.4474329710732
0.0035                    -0.0275                  299.4309766270088
0.0035                    -0.0265                  299.41452028294447
0.0035                    -0.0255                  299.39144939776935
0.0035                    -0.0245                  299.3624054317509
0.0035                    -0.0235                  299.33336146573254
0.0035                    -0.0225                  299.30431749971405
0.0035                    -0.0215                  299.26769651110595
0.0035                    -0.0205                  299.2277790614927
0.0035                    -0.0195                  299.1878616118795
0.0035                    -0.0185                  299.1479441622663
0.0035                    -0.0175                  299.1025245777768
0.0035                    -0.0165                  299.05592389475265
0.0035                    -0.0155                  299.00932321172854
0.0035                    -0.0145                  298.9627225287045
0.0035                    -0.0135                  298.9116322560573
0.0035                    -0.0125                  298.86399800877587
0.0035                    -0.0115                  298.8163637614945
0.0035                    -0.0105                  298.7687295142131
0.0035                    -0.0095                  298.7229569862757
0.0035                    -0.0085                  298.68189838663284
0.0035                    -0.0075                  298.6408397869899
0.0035                    -0.0065                  298.5988247085874
0.0035                    -0.0055                  298.56800358305617
0.0035                    -0.0045                  298.53704064119665
0.0035                    -0.0035                  298.5062920921022
0.0035                    -0.0025                  298.4898908627121
0.0035                    -0.0015                  298.4730095917803
0.0035                    -5.0E-4                  298.46054655272883
0.0035                    5.0E-4                   298.45188699357516
0.0035                    0.0015                   298.4482922529493
0.0035                    0.0025                   298.4467552460738
0.0035                    0.0035                   297.96982983751974
0.0035                    0.0045                   297.1338222009878
0.0035                    0.0055                   296.9009202058038
0.0035                    0.0065                   296.54574609670846
0.0035                    0.0075                   295.87212820467454
0.0035                    0.0085                   295.26156573630914
0.0035                    0.0095                   294.8982716985341
0.0035                    0.0105                   294.64271764491934
0.0035                    0.0115                   293.7121778791909
0.0035                    0.0125                   293.17849774360764
0.0035                    0.0135                   293.15126150705794
0.0035                    0.0145                   293.15490142335165
0.0035                    0.0155                   293.15297954779993
0.0035                    0.0165                   293.1861645021514
0.0035                    0.0175                   293.4098270000774
0.0035                    0.0185                   294.4583750454498
0.0035                    0.0195                   295.3905416411915
0.0035                    0.0205                   295.4677679192664
0.0035                    0.0215                   295.5502297603067
0.0035                    0.0225                   295.62672556801726
0.0035                    0.0235                   295.7098485497499
0.0035                    0.0245                   295.7712827533284
0.0035                    0.0255                   295.832716956907
0.0035                    0.0265                   295.88176597580707
0.0035                    0.0275                   295.92053436896356
0.0035                    0.0285                   295.95930276212
0.0035                    0.0295                   295.98063206090745
0.0035                    0.0305                   295.992055371216
0.0035                    0.0315                   296.00616491554706
0.0045                    -0.0315                  299.46691672572973
0.0045                    -0.0305                  299.45989205848
0.0045                    -0.0295                  299.45286739123037
0.0045                    -0.0285                  299.4430399681918
0.0045                    -0.0275                  299.4265836241274
0.0045                    -0.0265                  299.4061451330668
0.0045                    -0.0255                  299.3824479227193
0.0045                    -0.0245                  299.3557074039794
0.0045                    -0.0235                  299.326663437961
0.0045                    -0.0225                  299.2929466932474
0.0045                    -0.0215                  299.25490237570466
0.0045                    -0.0205                  299.215503055067
0.0045                    -0.0195                  299.1755856054538
0.0045                    -0.0185                  299.13235381341974
0.0045                    -0.0175                  299.0831865167007
0.0045                    -0.0165                  299.0359273229897
0.0045                    -0.0155                  298.9893266399656
0.0045                    -0.0145                  298.9401839747661
0.0045                    -0.0135                  298.88585186531594
0.0045                    -0.0125                  298.8353398755971
0.0045                    -0.0115                  298.7877056283157
0.0045                    -0.0105                  298.7402323484739
0.0045                    -0.0095                  298.6930489041523
0.0045                    -0.0085                  298.64859103954154
0.0045                    -0.0075                  298.60721235365145
0.0045                    -0.0065                  298.56384580143197
0.0045                    -0.0055                  298.5316105739504
0.0045                    -0.0045                  298.5028298799362
0.0045                    -0.0035                  298.4778779726524
0.0045                    -0.0025                  298.45887326354455
0.0045                    -0.0015                  298.4366584760088
0.0045                    -5.0E-4                  298.4285692695346
0.0045                    5.0E-4                   298.42137921454474
0.0045                    0.0015                   298.4211338309299
0.0045                    0.0025                   298.4248952856793
0.0045                    0.0035                   297.6680842682087
0.0045                    0.0045                   297.0442503663364
0.0045                    0.0055                   296.62769190680547
0.0045                    0.0065                   296.0896073503614
0.0045                    0.0075                   295.4250839595307
0.0045                    0.0085                   294.9274858573827
0.0045                    0.0095                   294.60438007262957
0.0045                    0.0105                   294.2384391753989
0.0045                    0.0115                   293.54191652560377
0.0045                    0.0125                   293.2136726256732
0.0045                    0.0135                   293.14779051270364
0.0045                    0.0145                   293.1561035184694
0.0045                    0.0155                   293.16119454014813
0.0045                    0.0165                   293.2345189174243
0.0045                    0.0175                   293.4874752403489
0.0045                    0.0185                   294.6286453425626
0.0045                    0.0195                   295.45870474579453
0.0045                    0.0205                   295.52644133917863
0.0045                    0.0215                   295.59691279942297
0.0045                    0.0225                   295.6717561119677
0.0045                    0.0235                   295.7373513377721
0.0045                    0.0245                   295.7983790212232
0.0045                    0.0255                   295.86049804038146
0.0045                    0.0265                   295.9022012914413
0.0045                    0.0275                   295.9416761788725
0.0045                    0.0285                   295.980444572029
0.0045                    0.0295                   295.9948767447108
0.0045                    0.0305                   296.0063000550194
0.0045                    0.0315                   296.0185067243327
0.0055                    -0.0315                  299.45970293208904
0.0055                    -0.0305                  299.4529280734387
0.0055                    -0.0295                  299.44609679523006
0.0055                    -0.0285                  299.43864696531034
0.0055                    -0.0275                  299.4200112069085
0.0055                    -0.0265                  299.39631399656093
0.0055                    -0.0255                  299.37261678621337
0.0055                    -0.0245                  299.3489195758658
0.0055                    -0.0235                  299.31766801552
0.0055                    -0.0225                  299.2796236979772
0.0055                    -0.0215                  299.2415793804345
0.0055                    -0.0205                  299.2032270486413
0.0055                    -0.0195                  299.16297015521627
0.0055                    -0.0185                  299.11380285849725
0.0055                    -0.0175                  299.06463556177823
0.0055                    -0.0165                  299.0159307512268
0.0055                    -0.0155                  298.9693300682027
0.0055                    -0.0145                  298.91578372846215
0.0055                    -0.0135                  298.8614516190119
0.0055                    -0.0125                  298.80711950956174
0.0055                    -0.0115                  298.7590474951369
0.0055                    -0.0105                  298.71175644271614
0.0055                    -0.0095                  298.6645729983946
0.0055                    -0.0085                  298.6162558548196
0.0055                    -0.0075                  298.5703899374728
0.0055                    -0.0065                  298.5281747894696
0.0055                    -0.0055                  298.49023440878705
0.0055                    -0.0045                  298.45473893668463
0.0055                    -0.0035                  298.42774077758406
0.0055                    -0.0025                  298.41022961233676
0.0055                    -0.0015                  298.39384049746457
0.0055                    -5.0E-4                  298.38503792846427
0.0055                    5.0E-4                   298.38148785273904
0.0055                    0.0015                   298.3826379574491
0.0055                    0.0025                   297.96983686289275
0.0055                    0.0035                   297.26616664175987
0.0055                    0.0045                   296.47673191433364
0.0055                    0.0055                   295.90682182099744
0.0055                    0.0065                   295.4306426915444
0.0055                    0.0075                   295.0658574196203
0.0055                    0.0085                   294.67268544752795
0.0055                    0.0095                   294.3479691696701
0.0055                    0.0105                   293.94073457294127
0.0055                    0.0115                   293.4550917187903
0.0055                    0.0125                   293.16351621175284
0.0055                    0.0135                   293.14892968174547
0.0055                    0.0145                   293.1578516440041
0.0055                    0.0155                   293.1656052964938
0.0055                    0.0165                   293.2739366804118
0.0055                    0.0175                   293.6764371306881
0.0055                    0.0185                   294.89899873449417
0.0055                    0.0195                   295.51822189975155
0.0055                    0.0205                   295.5740996352307
0.0055                    0.0215                   295.641211604353
0.0055                    0.0225                   295.7067847157614
0.0055                    0.0235                   295.77149893099863
0.0055                    0.0245                   295.82878041072854
0.0055                    0.0255                   295.8803497545861
0.0055                    0.0265                   295.92134547641217
0.0055                    0.0275                   295.96234119823833
0.0055                    0.0285                   295.9976981182056
0.0055                    0.0295                   296.0097351267081
0.0055                    0.0305                   296.02433920888336
0.0055                    0.0315                   296.0389432910587
0.0065                    -0.0315                  299.45247171289407
0.0065                    -0.0305                  299.44569685424375
0.0065                    -0.0295                  299.4389219955934
0.0065                    -0.0285                  299.43168741153835
0.0065                    -0.0275                  299.4101038869012
0.0065                    -0.0265                  299.38639500668796
0.0065                    -0.0255                  299.3626861264747
0.0065                    -0.0245                  299.3389772462615
0.0065                    -0.0235                  299.30373301822914
0.0065                    -0.0225                  299.26583009623425
0.0065                    -0.0215                  299.2279271742394
0.0065                    -0.0205                  299.19002425224454
0.0065                    -0.0195                  299.1440395249318
0.0065                    -0.0185                  299.0952519035747
0.0065                    -0.0175                  299.04608460685574
0.0065                    -0.0165                  298.9969173101367
0.0065                    -0.0155                  298.94571559160835
0.0065                    -0.0145                  298.8913834821581
0.0065                    -0.0135                  298.83705137270795
0.0065                    -0.0125                  298.7827192632577
0.0065                    -0.0115                  298.73046398128
0.0065                    -0.0105                  298.67610774154514
0.0065                    -0.0095                  298.62065264844534
0.0065                    -0.0085                  298.56528059492484
0.0065                    -0.0075                  298.51555315564485
0.0065                    -0.0065                  298.4732978528599
0.0065                    -0.0055                  298.4327954461006
0.0065                    -0.0045                  298.3983256775267
0.0065                    -0.0035                  298.3677748673832
0.0065                    -0.0025                  298.3484350744752
0.0065                    -0.0015                  298.3363823029044
0.0065                    -5.0E-4                  298.3321947911811
0.0065                    5.0E-4                   298.33212268697264
0.0065                    0.0015                   298.32934415746337
0.0065                    0.0025                   297.37687243258
0.0065                    0.0035                   295.91360309279213
0.0065                    0.0045                   295.3728846185601
0.0065                    0.0055                   295.0671173258863
0.0065                    0.0065                   294.9108856477733
0.0065                    0.0075                   294.74376563161485
0.0065                    0.0085                   294.5071112358598
0.0065                    0.0095                   294.20165543362623
0.0065                    0.0105                   293.7380088119105
0.0065                    0.0115                   293.29587705946125