% Model:              模型结构导入comsolBench.mph
% Version:            COMSOL 6.2.0.339
% Date:               May 28 2026, 17:37
% Dimension:          2
% Nodes:              4096
% Expressions:        1
% Description:        温度
% Length unit:        m
% x                       y                        T (K)
5.0E-4                    -0.0315                  300.38212975056985
5.0E-4                    -0.0305                  300.37845985355557
5.0E-4                    -0.0295                  300.37478995654146
5.0E-4                    -0.0285                  300.36851241116335
5.0E-4                    -0.0275                  300.36083116929785
5.0E-4                    -0.0265                  300.35234803892547
5.0E-4                    -0.0255                  300.3436856629885
5.0E-4                    -0.0245                  300.33595128885486
5.0E-4                    -0.0235                  300.3299638792665
5.0E-4                    -0.0225                  300.32793503496725
5.0E-4                    -0.0215                  300.5278198883958
5.0E-4                    -0.0205                  300.07355156433374
5.0E-4                    -0.0195                  299.28405711951314
5.0E-4                    -0.0185                  297.79297661702935
5.0E-4                    -0.0175                  293.3220317443838
5.0E-4                    -0.0165                  293.15212294665656
5.0E-4                    -0.0155                  293.1503387427994
5.0E-4                    -0.0145                  293.5670117093452
5.0E-4                    -0.0135                  302.9005046484063
5.0E-4                    -0.0125                  305.1365779637251
5.0E-4                    -0.0115                  305.1909515905898
5.0E-4                    -0.0105                  304.99649352621634
5.0E-4                    -0.0095                  304.87558689085404
5.0E-4                    -0.0085                  304.8217153470589
5.0E-4                    -0.0075                  304.80219996462654
5.0E-4                    -0.0065                  305.322231381474
5.0E-4                    -0.0055                  307.16749415881077
5.0E-4                    -0.0045                  310.6433036256208
5.0E-4                    -0.0035                  314.3212945474697
5.0E-4                    -0.0025                  316.4209982762279
5.0E-4                    -0.0015                  316.5501610448686
5.0E-4                    -5.0E-4                  316.7746096445777
5.0E-4                    5.0E-4                   317.0636318350117
5.0E-4                    0.0015                   317.3922691295999
5.0E-4                    0.0025                   317.73619454373045
5.0E-4                    0.0035                   318.08011061972724
5.0E-4                    0.0045                   318.4237045305707
5.0E-4                    0.0055                   318.7518276063025
5.0E-4                    0.0065                   319.07429706889354
5.0E-4                    0.0075                   319.3907223247709
5.0E-4                    0.0085                   319.67531178140365
5.0E-4                    0.0095                   319.9533519592814
5.0E-4                    0.0105                   320.23139213715916
5.0E-4                    0.0115                   320.4926575075256
5.0E-4                    0.0125                   320.7169078754754
5.0E-4                    0.0135                   320.94115824342515
5.0E-4                    0.0145                   321.16540861137497
5.0E-4                    0.0155                   321.3765163380035
5.0E-4                    0.0165                   321.55076117591875
5.0E-4                    0.0175                   321.72183946672055
5.0E-4                    0.0185                   321.89291775752224
5.0E-4                    0.0195                   322.0561724149121
5.0E-4                    0.0205                   322.18393101729964
5.0E-4                    0.0215                   322.30431009034567
5.0E-4                    0.0225                   322.42468916339163
5.0E-4                    0.0235                   322.54129947258474
5.0E-4                    0.0245                   322.6255195876427
5.0E-4                    0.0255                   322.6983226881538
5.0E-4                    0.0265                   322.77112578866485
5.0E-4                    0.0275                   322.8439288891759
5.0E-4                    0.0285                   322.88299038430364
5.0E-4                    0.0295                   322.9069338228977
5.0E-4                    0.0305                   322.93087726149184
5.0E-4                    0.0315                   322.95482070008603
0.0015                    -0.0315                  300.37745708744654
0.0015                    -0.0305                  300.37563780759314
0.0015                    -0.0295                  300.3716646604492
0.0015                    -0.0285                  300.3650816264721
0.0015                    -0.0275                  300.3578045428411
0.0015                    -0.0265                  300.34796438126483
0.0015                    -0.0255                  300.3379742520437
0.0015                    -0.0245                  300.32880296003407
0.0015                    -0.0235                  300.32139578200207
0.0015                    -0.0225                  300.3173239409773
0.0015                    -0.0215                  300.1976455269122
0.0015                    -0.0205                  298.98194760175375
0.0015                    -0.0195                  297.4773716875981
0.0015                    -0.0185                  296.6409522759855
0.0015                    -0.0175                  293.4621863872269
0.0015                    -0.0165                  293.1580886896981
0.0015                    -0.0155                  293.14551523978116
0.0015                    -0.0145                  293.91997769533083
0.0015                    -0.0135                  301.4499853126456
0.0015                    -0.0125                  303.202328439386
0.0015                    -0.0115                  302.93936741583434
0.0015                    -0.0105                  302.16397193881335
0.0015                    -0.0095                  301.37124623742716
0.0015                    -0.0085                  300.7171839616565
0.0015                    -0.0075                  300.3967531961405
0.0015                    -0.0065                  300.1363889474859
0.0015                    -0.0055                  301.1218487263143
0.0015                    -0.0045                  304.3905153364084
0.0015                    -0.0035                  311.59560647978805
0.0015                    -0.0025                  316.287096490415
0.0015                    -0.0015                  316.45920759824355
0.0015                    -5.0E-4                  316.70116707279806
0.0015                    5.0E-4                   317.03024226532386
0.0015                    0.0015                   317.37483317546355
0.0015                    0.0025                   317.7293182164959
0.0015                    0.0035                   318.0799968764791
0.0015                    0.0045                   318.4235682618478
0.0015                    0.0055                   318.7651306421785
0.0015                    0.0065                   319.0859186250656
0.0015                    0.0075                   319.39416117920393
0.0015                    0.0085                   319.69657102673045
0.0015                    0.0095                   319.9746112046082
0.0015                    0.0105                   320.24315035205063
0.0015                    0.0115                   320.49847181105486
0.0015                    0.0125                   320.73947909143294
0.0015                    0.0135                   320.9637294593827
0.0015                    0.0145                   321.18340101077376
0.0015                    0.0155                   321.3814220076839
0.0015                    0.0165                   321.5708540989009
0.0015                    0.0175                   321.74193238970264
0.0015                    0.0185                   321.9130106805044
0.0015                    0.0195                   322.0605303042923
0.0015                    0.0205                   322.20295685898986
0.0015                    0.0215                   322.3233359320359
0.0015                    0.0225                   322.44371500508186
0.0015                    0.0235                   322.54539745340594
0.0015                    0.0245                   322.643760874881
0.0015                    0.0255                   322.71667447108484
0.0015                    0.0265                   322.78947757159585
0.0015                    0.0275                   322.84924816383625
0.0015                    0.0285                   322.89623149981537
0.0015                    0.0295                   322.92289114996146
0.0015                    0.0305                   322.94683458855565
0.0015                    0.0315                   322.9665773323262
0.0025                    -0.0315                  300.37271830847516
0.0025                    -0.0305                  300.37109737616635
0.0025                    -0.0295                  300.3661774151716
0.0025                    -0.0285                  300.3575951621511
0.0025                    -0.0275                  300.3483993972046
0.0025                    -0.0265                  300.33828786740276
0.0025                    -0.0255                  300.3270400851661
0.0025                    -0.0245                  300.314744308035
0.0025                    -0.0235                  300.30465481856277
0.0025                    -0.0225                  300.2970043910186
0.0025                    -0.0215                  299.9190452989839
0.0025                    -0.0205                  298.2918923874848
0.0025                    -0.0195                  296.65553962413026
0.0025                    -0.0185                  296.02202615459646
0.0025                    -0.0175                  293.85602489188125
0.0025                    -0.0165                  293.1936969826219
0.0025                    -0.0155                  293.1286378506589
0.0025                    -0.0145                  294.6050362816442
0.0025                    -0.0135                  299.04524092065844
0.0025                    -0.0125                  301.5538464170734
0.0025                    -0.0115                  300.6753834510912
0.0025                    -0.0105                  299.94552224778624
0.0025                    -0.0095                  299.2718824091246
0.0025                    -0.0085                  299.05530080450615
0.0025                    -0.0075                  298.85331562132876
0.0025                    -0.0065                  298.73712279572214
0.0025                    -0.0055                  298.8837041983311
0.0025                    -0.0045                  300.99632167517984
0.0025                    -0.0035                  309.25287283239936
0.0025                    -0.0025                  316.02518644376755
0.0025                    -0.0015                  316.25036031958024
0.0025                    -5.0E-4                  316.58304014429143
0.0025                    5.0E-4                   316.95347895092345
0.0025                    0.0015                   317.34397751849497
0.0025                    0.0025                   317.7114141175484
0.0025                    0.0035                   318.08917302864916
0.0025                    0.0045                   318.4327387037871
0.0025                    0.0055                   318.77340804200094
0.0025                    0.0065                   319.09506545878776
0.0025                    0.0075                   319.39760003363693
0.0025                    0.0085                   319.7058425877754
0.0025                    0.0095                   319.9925163637679
0.0025                    0.0105                   320.24783782277217
0.0025                    0.0115                   320.5031592817764
0.0025                    0.0125                   320.75848074078067
0.0025                    0.0135                   320.98630067534026
0.0025                    0.0145                   321.1883066804541
0.0025                    0.0155                   321.3863276773643
0.0025                    0.0165                   321.58434867427445
0.0025                    0.0175                   321.7620253126847
0.0025                    0.0185                   321.91868622984214
0.0025                    0.0195                   322.0648881936725
0.0025                    0.0205                   322.2110901575029
0.0025                    0.0215                   322.342361773726
0.0025                    0.0225                   322.4511320127522
0.0025                    0.0235                   322.54949543422725
0.0025                    0.0245                   322.6478588557022
0.0025                    0.0255                   322.7350262540159
0.0025                    0.0265                   322.80618042478477
0.0025                    0.0275                   322.8531637607638
0.0025                    0.0285                   322.9001470967429
0.0025                    0.0295                   322.9388484770253
0.0025                    0.0305                   322.95877832822043
0.0025                    0.0315                   322.97824041085414
0.0035                    -0.0315                  300.3661198073711
0.0035                    -0.0305                  300.3610092112261
0.0035                    -0.0295                  300.3556013525639
0.0035                    -0.0285                  300.34765331161896
0.0035                    -0.0275                  300.33669525901774
0.0035                    -0.0265                  300.32392511308734
0.0035                    -0.0255                  300.3100523295309
0.0035                    -0.0245                  300.29502736954635
0.0035                    -0.0235                  300.27994561312596
0.0035                    -0.0225                  300.2646630099661
0.0035                    -0.0215                  299.85737266073505
0.0035                    -0.0205                  298.02304746024083
0.0035                    -0.0195                  296.22948387356814
0.0035                    -0.0185                  295.7625224095956
0.0035                    -0.0175                  294.06720472528605
0.0035                    -0.0165                  293.2457547479961
0.0035                    -0.0155                  293.2101415766134
0.0035                    -0.0145                  294.3153171611891
0.0035                    -0.0135                  298.08592852964426
0.0035                    -0.0125                  300.9018769199708
0.0035                    -0.0115                  299.8429688699329
0.0035                    -0.0105                  299.2325622104029
0.0035                    -0.0095                  299.1235354481807
0.0035                    -0.0085                  299.0371424154527
0.0035                    -0.0075                  299.0183576362921
0.0035                    -0.0065                  298.821243050626
0.0035                    -0.0055                  298.42672800185403
0.0035                    -0.0045                  299.29791051083254
0.0035                    -0.0035                  307.5722871036189
0.0035                    -0.0025                  315.526870023336
0.0035                    -0.0015                  315.92745867372975
0.0035                    -5.0E-4                  316.41343235933243
0.0035                    5.0E-4                   316.88243683595556
0.0035                    0.0015                   317.29566433088934
0.0035                    0.0025                   317.71416107416735
0.0035                    0.0035                   318.0985540144421
0.0035                    0.0045                   318.45265687308216
0.0035                    0.0055                   318.79969807374107
0.0035                    0.0065                   319.1373212006938
0.0035                    0.0075                   319.4382166296259
0.0035                    0.0085                   319.739112058558
0.0035                    0.0095                   320.0262721662497
0.0035                    0.0105                   320.27576810329356
0.0035                    0.0115                   320.52526404033733
0.0035                    0.0125                   320.7747599773812
0.0035                    0.0135                   321.00196898540685
0.0035                    0.0145                   321.19840488030957
0.0035                    0.0155                   321.3948407752123
0.0035                    0.0165                   321.59127667011506
0.0035                    0.0175                   321.77773728321455
0.0035                    0.0185                   321.92519983924683
0.0035                    0.0195                   322.07266239527917
0.0035                    0.0205                   322.22012495131145
0.0035                    0.0215                   322.362089066693
0.0035                    0.0225                   322.45730630792843
0.0035                    0.0235                   322.55359341504845
0.0035                    0.0245                   322.6519568365235
0.0035                    0.0255                   322.7503202579985
0.0035                    0.0265                   322.8100960217123
0.0035                    0.0275                   322.863115114286
0.0035                    0.0285                   322.9171306329877
0.0035                    0.0295                   322.9597056793046
0.0035                    0.0305                   322.97152992248886
0.0035                    0.0315                   322.9899034893821
0.0045                    -0.0315                  300.3545049447248
0.0045                    -0.0305                  300.34986779519215
0.0045                    -0.0295                  300.3447571990472
0.0045                    -0.0285                  300.33599162698266
0.0045                    -0.0275                  300.32167058210985
0.0045                    -0.0265                  300.30770566181127
0.0045                    -0.0255                  300.28844274000414
0.0045                    -0.0245                  300.27083238532066
0.0045                    -0.0235                  300.2508164655994
0.0045                    -0.0225                  300.22921015179827
0.0045                    -0.0215                  300.20455390356244
0.0045                    -0.0205                  297.9841153239224
0.0045                    -0.0195                  295.8663980978744
0.0045                    -0.0185                  295.52401464281064
0.0045                    -0.0175                  294.12943626869423
0.0045                    -0.0165                  293.2886053409212
0.0045                    -0.0155                  293.290449343158
0.0045                    -0.0145                  294.2911823361512
0.0045                    -0.0135                  297.39602934305634
0.0045                    -0.0125                  300.1642771040341
0.0045                    -0.0115                  299.61654622289916
0.0045                    -0.0105                  299.41065692845837
0.0045                    -0.0095                  299.2815598970408
0.0045                    -0.0085                  299.2356369874582
0.0045                    -0.0075                  299.00695938788414
0.0045                    -0.0065                  298.77514203134257
0.0045                    -0.0055                  298.37740484078273
0.0045                    -0.0045                  298.25480734690166
0.0045                    -0.0035                  304.47003215688
0.0045                    -0.0025                  314.6601228188397
0.0045                    -0.0015                  315.5988227108218
0.0045                    -5.0E-4                  316.2642966317976
0.0045                    5.0E-4                   316.8115622924019
0.0045                    0.0015                   317.29777438324766
0.0045                    0.0025                   317.7204068782975
0.0045                    0.0035                   318.1103925620949
0.0045                    0.0045                   318.478178274907
0.0045                    0.0055                   318.82707209842687
0.0045                    0.0065                   319.1759659219466
0.0045                    0.0075                   319.48047237153196
0.0045                    0.0085                   319.774510253667
0.0045                    0.0095                   320.0665383646909
0.0045                    0.0105                   320.3284002801748
0.0045                    0.0115                   320.5778962172186
0.0045                    0.0125                   320.8201041136598
0.0045                    0.0135                   321.04531831806133
0.0045                    0.0145                   321.24704023650725
0.0045                    0.0155                   321.44347613140997
0.0045                    0.0165                   321.6399120263127
0.0045                    0.0175                   321.8115038656701
0.0045                    0.0185                   321.9666635594814
0.0045                    0.0195                   322.1141261155138
0.0045                    0.0205                   322.26158867154606
0.0045                    0.0215                   322.38904880449627
0.0045                    0.0225                   322.4967347051391
0.0045                    0.0235                   322.59195194637454
0.0045                    0.0245                   322.68716918760987
0.0045                    0.0255                   322.78030536087414
0.0045                    0.0265                   322.84129218357333
0.0045                    0.0275                   322.8942933688437
0.0045                    0.0285                   322.9483088875454
0.0045                    0.0295                   322.98625198063115
0.0045                    0.0305                   322.99807622381536
0.0045                    0.0315                   323.00990046699957
0.0055                    -0.0315                  300.34266225001284
0.0055                    -0.0305                  300.3380324857719
0.0055                    -0.0295                  300.33340272153094
0.0055                    -0.0285                  300.3189209558186
0.0055                    -0.0275                  300.30249982740037
0.0055                    -0.0265                  300.28561234900326
0.0055                    -0.0255                  300.26483912275
0.0055                    -0.0245                  300.24346750521596
0.0055                    -0.0235                  300.2176566710907
0.0055                    -0.0225                  300.1919761868961
0.0055                    -0.0215                  300.16774924822846
0.0055                    -0.0205                  297.8459015894754
0.0055                    -0.0195                  295.5350317432867
0.0055                    -0.0185                  295.10471167100405
0.0055                    -0.0175                  293.9963363323848
0.0055                    -0.0165                  293.38447088157375
0.0055                    -0.0155                  293.3057228408778
0.0055                    -0.0145                  293.80047470245887
0.0055                    -0.0135                  296.61073820697516
0.0055                    -0.0125                  299.33782183213384
0.0055                    -0.0115                  299.57880076137815
0.0055                    -0.0105                  299.3004468555165
0.0055                    -0.0095                  299.0463989970701
0.0055                    -0.0085                  298.7336860222539
0.0055                    -0.0075                  298.5425239941486
0.0055                    -0.0065                  298.10886106085457
0.0055                    -0.0055                  297.72615039228003
0.0055                    -0.0045                  297.5134129807102
0.0055                    -0.0035                  297.804081102389
0.0055                    -0.0025                  304.69906797071906
0.0055                    -0.0015                  315.30615977839267
0.0055                    -5.0E-4                  316.200704910968
0.0055                    5.0E-4                   316.8338981405196
0.0055                    0.0015                   317.3289029982357
0.0055                    0.0025                   317.7616555664635
0.0055                    0.0035                   318.15720799392136
0.0055                    0.0045                   318.5279628226647
0.0055                    0.0055                   318.8673812569698
0.0055                    0.0065                   319.2067996912749
0.0055                    0.0075                   319.5173757108482
0.0055                    0.0085                   319.809403821872
0.0055                    0.0095                   320.10143193289593
0.0055                    0.0105                   320.38103245705594
0.0055                    0.0115                   320.6289872472361
0.0055                    0.0125                   320.8542014516377
0.0055                    0.0135                   321.07941565603926
0.0055                    0.0145                   321.2956755927049
0.0055                    0.0155                   321.49211148760764
0.0055                    0.0165                   321.674520749872
0.0055                    0.0175                   321.841535141697
0.0055                    0.0185                   322.00812727971606
0.0055                    0.0195                   322.1555898357484
0.0055                    0.0205                   322.2967363805058
0.0055                    0.0215                   322.415664828709
0.0055                    0.0225                   322.5345932769121
0.0055                    0.0235                   322.6313803435852
0.0055                    0.0245                   322.7241511880164
0.0055                    0.0255                   322.8159160422223
0.0055                    0.0265                   322.87749085315795
0.0055                    0.0275                   322.9277170463653
0.0055                    0.0285                   322.97948714210315
0.0055                    0.0295                   323.0127982819577
0.0055                    0.0305                   323.02960616623955
0.0055                    0.0315                   323.05042715663086
0.0065                    -0.0315                  300.330819555301
0.0065                    -0.0305                  300.3245436629969
0.0065                    -0.0295                  300.3162833174343
0.0065                    -0.0285                  300.30070053879626
0.0065                    -0.0275                  300.2801880728171
0.0065                    -0.0265                  300.26373753951754
0.0065                    -0.0255                  300.24158818660396
0.0065                    -0.0245                  300.21088222706703
0.0065                    -0.0235                  300.1817457223282
0.0065                    -0.0225                  300.148642194625
0.0065                    -0.0215                  300.1185172043897
0.0065                    -0.0205                  297.6074020651428
0.0065                    -0.0195                  295.2757038983438
0.0065                    -0.0185                  294.7998977866075
0.0065                    -0.0175                  294.05010141711193
0.0065                    -0.0165                  293.4404597911458
0.0065                    -0.0155                  293.26648642036173
0.0065                    -0.0145                  293.91215824932004
0.0065                    -0.0135                  295.5355510613225
0.0065                    -0.0125                  297.45408059331186
0.0065                    -0.0115                  298.1531316739856
0.0065                    -0.0105                  298.0380504131509
0.0065                    -0.0095                  297.7621696401048
0.0065                    -0.0085                  297.50359334667985
0.0065                    -0.0075                  297.20230727840584
0.0065                    -0.0065                  296.9336775023197
0.0065                    -0.0055                  296.6751572451178
0.0065                    -0.0045                  296.49484488127985
0.0065                    -0.0035                  296.3907194116984
0.0065                    -0.0025                  296.75365394371426
0.0065                    -0.0015                  301.0448855825255
0.0065                    -5.0E-4                  308.85355933384284
0.0065                    5.0E-4                   316.98640940609226
0.0065                    0.0015                   317.42632452361806
0.0065                    0.0025                   317.82821263749196
0.0065                    0.0035                   318.2073389282198
0.0065                    0.0045                   318.57786702232164
0.0065                    0.0055                   318.9276431180964
0.0065                    0.0065                   319.27638856237627
0.0065                    0.0075                   319.5901028919857
0.0065                    0.0085                   319.869489849819
0.0065                    0.0095                   320.14887680765224
0.0065                    0.0105                   320.4283536121248