% Model:              模型结构导入comsolBench.mph
% Version:            COMSOL 6.2.0.339
% Date:               May 29 2026, 11:27
% Dimension:          2
% Nodes:              4096
% Expressions:        1
% Description:        温度
% Length unit:        m
% x                       y                        T (K)
5.0E-4                    -0.0315                  307.6800590486344
5.0E-4                    -0.0305                  307.6748154625461
5.0E-4                    -0.0295                  307.6695718764578
5.0E-4                    -0.0285                  307.6643282903695
5.0E-4                    -0.0275                  307.6561144686872
5.0E-4                    -0.0265                  307.6425642882492
5.0E-4                    -0.0255                  307.6290141078113
5.0E-4                    -0.0245                  307.6148794526853
5.0E-4                    -0.0235                  307.5966872069583
5.0E-4                    -0.0225                  307.5772173711616
5.0E-4                    -0.0215                  307.55687689875225
5.0E-4                    -0.0205                  307.5352417803567
5.0E-4                    -0.0195                  307.51360174343756
5.0E-4                    -0.0185                  307.49339360819965
5.0E-4                    -0.0175                  307.47601058747136
5.0E-4                    -0.0165                  307.46363530489594
5.0E-4                    -0.0155                  306.8067629853503
5.0E-4                    -0.0145                  305.1415559497215
5.0E-4                    -0.0135                  303.6324136443625
5.0E-4                    -0.0125                  302.8427177565107
5.0E-4                    -0.0115                  302.5890983967293
5.0E-4                    -0.0105                  302.5595634883045
5.0E-4                    -0.0095                  302.4661853298404
5.0E-4                    -0.0085                  296.8555220493746
5.0E-4                    -0.0075                  293.17380023821477
5.0E-4                    -0.0065                  293.1594809436502
5.0E-4                    -0.0055                  293.1593478179832
5.0E-4                    -0.0045                  293.15971265056487
5.0E-4                    -0.0035                  293.1604234016694
5.0E-4                    -0.0025                  293.1613930886117
5.0E-4                    -0.0015                  293.1631258104374
5.0E-4                    -5.0E-4                  293.1646701105026
5.0E-4                    5.0E-4                   293.164699359064
5.0E-4                    0.0015                   293.1644361318957
5.0E-4                    0.0025                   293.16424060621046
5.0E-4                    0.0035                   293.16410170038404
5.0E-4                    0.0045                   293.1640826145866
5.0E-4                    0.0055                   293.16420976806126
5.0E-4                    0.0065                   293.1646238794684
5.0E-4                    0.0075                   293.17144029966937
5.0E-4                    0.0085                   294.34540325221434
5.0E-4                    0.0095                   299.24668705239344
5.0E-4                    0.0105                   301.61696694433954
5.0E-4                    0.0115                   302.1411371658336
5.0E-4                    0.0125                   302.1172774591538
5.0E-4                    0.0135                   301.97595952516787
5.0E-4                    0.0145                   301.9656152783903
5.0E-4                    0.0155                   302.5022255840278
5.0E-4                    0.0165                   303.7626105754574
5.0E-4                    0.0175                   305.4864945449798
5.0E-4                    0.0185                   306.3932494373044
5.0E-4                    0.0195                   306.4071002201229
5.0E-4                    0.0205                   306.4271126214782
5.0E-4                    0.0215                   306.45001924568817
5.0E-4                    0.0225                   306.47385142571534
5.0E-4                    0.0235                   306.4973001818928
5.0E-4                    0.0245                   306.5190737398684
5.0E-4                    0.0255                   306.53979152443003
5.0E-4                    0.0265                   306.5564140385682
5.0E-4                    0.0275                   306.57247172472273
5.0E-4                    0.0285                   306.58620106494914
5.0E-4                    0.0295                   306.5927171676033
5.0E-4                    0.0305                   306.5987758469445
5.0E-4                    0.0315                   306.6046406156448
0.0015                    -0.0315                  307.6741261197827
0.0015                    -0.0305                  307.6718477827968
0.0015                    -0.0295                  307.6666041967084
0.0015                    -0.0285                  307.66105603454093
0.0015                    -0.0275                  307.65135248507386
0.0015                    -0.0265                  307.6396709493613
0.0015                    -0.0255                  307.62612076892333
0.0015                    -0.0245                  307.6100393040532
0.0015                    -0.0235                  307.5935887207906
0.0015                    -0.0225                  307.5736785342147
0.0015                    -0.0215                  307.5528031778531
0.0015                    -0.0205                  307.5310403702937
0.0015                    -0.0195                  307.5076104419451
0.0015                    -0.0185                  307.485641150933
0.0015                    -0.0175                  307.46635135085626
0.0015                    -0.0165                  307.44855436640245
0.0015                    -0.0155                  305.5053648811654
0.0015                    -0.0145                  301.54112630547684
0.0015                    -0.0135                  299.90845378176977
0.0015                    -0.0125                  299.7084571980434
0.0015                    -0.0115                  300.0079607029355
0.0015                    -0.0105                  300.490544442465
0.0015                    -0.0095                  298.7649315691575
0.0015                    -0.0085                  293.5530507546756
0.0015                    -0.0075                  293.18332755519435
0.0015                    -0.0065                  293.17735349328564
0.0015                    -0.0055                  293.1784348617085
0.0015                    -0.0045                  293.1801170583036
0.0015                    -0.0035                  293.1827323083408
0.0015                    -0.0025                  293.18627570005975
0.0015                    -0.0015                  293.1916259747784
0.0015                    -5.0E-4                  293.2011444963209
0.0015                    5.0E-4                   293.1960996550744
0.0015                    0.0015                   293.1961298467593
0.0015                    0.0025                   293.1938510224886
0.0015                    0.0035                   293.1927795260327
0.0015                    0.0045                   293.1920932534577
0.0015                    0.0055                   293.19219436058904
0.0015                    0.0065                   293.1927068193888
0.0015                    0.0075                   293.1975779906171
0.0015                    0.0085                   293.243900074066
0.0015                    0.0095                   294.0467155096033
0.0015                    0.0105                   297.26525226200647
0.0015                    0.0115                   299.65930111634134
0.0015                    0.0125                   300.4798676655114
0.0015                    0.0135                   300.6200850039702
0.0015                    0.0145                   299.98844727556656
0.0015                    0.0155                   299.4003991315824
0.0015                    0.0165                   299.9552177975877
0.0015                    0.0175                   303.76835363845885
0.0015                    0.0185                   306.3768945522155
0.0015                    0.0195                   306.39705205643594
0.0015                    0.0205                   306.41927652838285
0.0015                    0.0215                   306.4445068294096
0.0015                    0.0225                   306.47008184967376
0.0015                    0.0235                   306.4935392375422
0.0015                    0.0245                   306.51638946301836
0.0015                    0.0255                   306.5359025492634
0.0015                    0.0265                   306.5546293289792
0.0015                    0.0275                   306.57068701513373
0.0015                    0.0285                   306.5821488158255
0.0015                    0.0295                   306.592362967578
0.0015                    0.0305                   306.5978399149968
0.0015                    0.0315                   306.60100273033254
0.0025                    -0.0315                  307.6680409792493
0.0025                    -0.0305                  307.66621927730876
0.0025                    -0.0295                  307.6636365169592
0.0025                    -0.0285                  307.6559884829144
0.0025                    -0.0275                  307.64628493344736
0.0025                    -0.0265                  307.63658138398023
0.0025                    -0.0255                  307.62164284398295
0.0025                    -0.0245                  307.60460467007016
0.0025                    -0.0235                  307.5869469996331
0.0025                    -0.0225                  307.56610399710837
0.0025                    -0.0215                  307.543919052793
0.0025                    -0.0205                  307.5202527922595
0.0025                    -0.0195                  307.49635958550164
0.0025                    -0.0185                  307.4714251603318
0.0025                    -0.0175                  307.44829786020637
0.0025                    -0.0165                  307.42259321588307
0.0025                    -0.0155                  302.3694088055706
0.0025                    -0.0145                  298.24527092203886
0.0025                    -0.0135                  297.93597343387364
0.0025                    -0.0125                  298.67119818226
0.0025                    -0.0115                  299.0365868576317
0.0025                    -0.0105                  297.5339455921842
0.0025                    -0.0095                  294.08907543430956
0.0025                    -0.0085                  293.234992491601
0.0025                    -0.0075                  293.1993733174328
0.0025                    -0.0065                  293.19774650162867
0.0025                    -0.0055                  293.2002653640287
0.0025                    -0.0045                  293.203949001556
0.0025                    -0.0035                  293.2100596752715
0.0025                    -0.0025                  293.2131639704195
0.0025                    -0.0015                  293.23462457951877
0.0025                    -5.0E-4                  293.29471576338545
0.0025                    5.0E-4                   293.2238373896406
0.0025                    0.0015                   293.2263652271672
0.0025                    0.0025                   293.22879831177147
0.0025                    0.0035                   293.22493806565
0.0025                    0.0045                   293.22228422654723
0.0025                    0.0055                   293.22163326399476
0.0025                    0.0065                   293.2219426160311
0.0025                    0.0075                   293.2250153780076
0.0025                    0.0085                   293.2405134738042
0.0025                    0.0095                   293.3122471651774
0.0025                    0.0105                   293.7121885696587
0.0025                    0.0115                   294.379017631652
0.0025                    0.0125                   296.21995058530973
0.0025                    0.0135                   297.13722151513025
0.0025                    0.0145                   297.66815482801724
0.0025                    0.0155                   297.5253422163289
0.0025                    0.0165                   297.76720428220926
0.0025                    0.0175                   302.1758242305095
0.0025                    0.0185                   306.3478566362669
0.0025                    0.0195                   306.3770586225515
0.0025                    0.0205                   306.40571068476714
0.0025                    0.0215                   306.43380487830734
0.0025                    0.0225                   306.4604225904639
0.0025                    0.0235                   306.48543713116226
0.0025                    0.0245                   306.5094338650774
0.0025                    0.0255                   306.5301333683103
0.0025                    0.0265                   306.5501593246496
0.0025                    0.0275                   306.5665363854541
0.0025                    0.0285                   306.57785280014366
0.0025                    0.0295                   306.58906039755396
0.0025                    0.0305                   306.5942020296845
0.0025                    0.0315                   306.59736484502014
0.0035                    -0.0315                  307.6619558387158
0.0035                    -0.0305                  307.6599797491227
0.0035                    -0.0295                  307.6556015362821
0.0035                    -0.0285                  307.64795054422825
0.0035                    -0.0275                  307.6379406518385
0.0035                    -0.0265                  307.62730164333266
0.0035                    -0.0255                  307.61249372357867
0.0035                    -0.0245                  307.5949860253953
0.0035                    -0.0235                  307.5765943933635
0.0035                    -0.0225                  307.55544135074797
0.0035                    -0.0215                  307.532071336299
0.0035                    -0.0205                  307.50593883881413
0.0035                    -0.0195                  307.4786705895226
0.0035                    -0.0185                  307.45059681536816
0.0035                    -0.0175                  307.4240295199604
0.0035                    -0.0165                  303.7249624991672
0.0035                    -0.0155                  297.7133078768004
0.0035                    -0.0145                  297.35552143255364
0.0035                    -0.0135                  297.8105719721934
0.0035                    -0.0125                  297.49209933773227
0.0035                    -0.0115                  296.00605289951886
0.0035                    -0.0105                  294.3099262370639
0.0035                    -0.0095                  293.3859389382036
0.0035                    -0.0085                  293.22613014785225
0.0035                    -0.0075                  293.2174526265732
0.0035                    -0.0065                  293.220678972912
0.0035                    -0.0055                  293.22544352387683
0.0035                    -0.0045                  293.234512953528
0.0035                    -0.0035                  293.2499880267877
0.0035                    -0.0025                  293.4211111862584
0.0035                    -0.0015                  294.4441178027106
0.0035                    -5.0E-4                  294.4621760975897
0.0035                    5.0E-4                   294.4455971076044
0.0035                    0.0015                   293.483335122685
0.0035                    0.0025                   293.2514634964205
0.0035                    0.0035                   293.2583141891799
0.0035                    0.0045                   293.25606613616316
0.0035                    0.0055                   293.25295124884707
0.0035                    0.0065                   293.25332933485845
0.0035                    0.0075                   293.25503444846333
0.0035                    0.0085                   293.2639502107268
0.0035                    0.0095                   293.28598779374704
0.0035                    0.0105                   293.35030439188
0.0035                    0.0115                   293.5361261689829
0.0035                    0.0125                   294.15873926922006
0.0035                    0.0135                   294.7209851775236
0.0035                    0.0145                   295.19507937216605
0.0035                    0.0155                   296.10022029513516
0.0035                    0.0165                   296.62057553702806
0.0035                    0.0175                   300.1123215920064
0.0035                    0.0185                   306.30224938283163
0.0035                    0.0195                   306.35302758336513
0.0035                    0.0205                   306.38780518892696
0.0035                    0.0215                   306.4187877828964
0.0035                    0.0225                   306.4473116171513
0.0035                    0.0235                   306.475561440104
0.0035                    0.0245                   306.49990620217335
0.0035                    0.0255                   306.52163842437926
0.0035                    0.0265                   306.5414022801559
0.0035                    0.0275                   306.5593199110607
0.0035                    0.0285                   306.5729156323858
0.0035                    0.0295                   306.5819763499177
0.0035                    0.0305                   306.58811430181765
0.0035                    0.0315                   306.5937269597078
0.0045                    -0.0315                  307.6517569476835
0.0045                    -0.0305                  307.64737873484296
0.0045                    -0.0295                  307.642977777646
0.0045                    -0.0285                  307.6362645802924
0.0045                    -0.0275                  307.6274650820907
0.0045                    -0.0265                  307.6149543319632
0.0045                    -0.0255                  307.600430107567
0.0045                    -0.0245                  307.58473440849974
0.0045                    -0.0235                  307.56482264702527
0.0045                    -0.0225                  307.54170025736363
0.0045                    -0.0215                  307.5160848038868
0.0045                    -0.0205                  307.4891741447998
0.0045                    -0.0195                  307.45783239386225
0.0045                    -0.0185                  307.42539809395316
0.0045                    -0.0175                  307.38454684467075
0.0045                    -0.0165                  300.0484079983644
0.0045                    -0.0155                  296.8495290541626
0.0045                    -0.0145                  297.25834533135657
0.0045                    -0.0135                  296.8378128780875
0.0045                    -0.0125                  295.6247852872135
0.0045                    -0.0115                  294.24600994559876
0.0045                    -0.0105                  293.3574328168575
0.0045                    -0.0095                  293.2602078865207
0.0045                    -0.0085                  293.23860416521893
0.0045                    -0.0075                  293.242916976751
0.0045                    -0.0065                  293.24900199018464
0.0045                    -0.0055                  293.2632762894854
0.0045                    -0.0045                  293.316607902599
0.0045                    -0.0035                  293.60762523404213
0.0045                    -0.0025                  295.0520497698491
0.0045                    -0.0015                  296.37200687870165
0.0045                    -5.0E-4                  296.37328685484636
0.0045                    5.0E-4                   296.36782966843083
0.0045                    0.0015                   295.2322698121384
0.0045                    0.0025                   293.7165884193846
0.0045                    0.0035                   293.2861444941189
0.0045                    0.0045                   293.28726366587154
0.0045                    0.0055                   293.28576214037105
0.0045                    0.0065                   293.28610971409205
0.0045                    0.0075                   293.2893623191699
0.0045                    0.0085                   293.2947124019129
0.0045                    0.0095                   293.30803159899096
0.0045                    0.0105                   293.3310280355662
0.0045                    0.0115                   293.3848929868313
0.0045                    0.0125                   293.4759495447481
0.0045                    0.0135                   293.73046990372126
0.0045                    0.0145                   294.151890170042
0.0045                    0.0155                   294.59917233990546
0.0045                    0.0165                   295.0981910792666
0.0045                    0.0175                   295.94087810495137
0.0045                    0.0185                   301.5111138796239
0.0045                    0.0195                   306.3334767661238
0.0045                    0.0205                   306.3676955203475
0.0045                    0.0215                   306.40051899878085
0.0045                    0.0225                   306.43288112112486
0.0045                    0.0235                   306.46107813975965
0.0045                    0.0245                   306.48835894942306
0.0045                    0.0255                   306.51300358846976
0.0045                    0.0265                   306.5322787325071
0.0045                    0.0275                   306.5512451798166
0.0045                    0.0285                   306.5646809514048
0.0045                    0.0295                   306.5743300336344
0.0045                    0.0305                   306.58053471621156
0.0045                    0.0315                   306.5866546368422
0.0055                    -0.0315                  307.6352483399709
0.0055                    -0.0305                  307.6344102078504
0.0055                    -0.0295                  307.63000793113054
0.0055                    -0.0285                  307.6228328830252
0.0055                    -0.0275                  307.61340703242945
0.0055                    -0.0265                  307.60172420049133
0.0055                    -0.0255                  307.5873342063865
0.0055                    -0.0245                  307.57020596350844
0.0055                    -0.0235                  307.54974271720766
0.0055                    -0.0225                  307.526936524587
0.0055                    -0.0215                  307.49913226443283
0.0055                    -0.0205                  307.46841269445275
0.0055                    -0.0195                  307.4334496981182
0.0055                    -0.0185                  307.3972961847311
0.0055                    -0.0175                  302.1123808979971
0.0055                    -0.0165                  296.33665768357395
0.0055                    -0.0155                  296.26200415478763
0.0055                    -0.0145                  295.8216772976872
0.0055                    -0.0135                  294.95285743628233
0.0055                    -0.0125                  294.1273518708824
0.0055                    -0.0115                  293.56161418840566
0.0055                    -0.0105                  293.29025567214154
0.0055                    -0.0095                  293.2572202270103
0.0055                    -0.0085                  293.2676136256124
0.0055                    -0.0075                  293.28594148312465
0.0055                    -0.0065                  293.3473833113126
0.0055                    -0.0055                  293.64121174911725
0.0055                    -0.0045                  294.4979115891678
0.0055                    -0.0035                  295.51701839315785
0.0055                    -0.0025                  296.46642435418914
0.0055                    -0.0015                  296.4460471903906
0.0055                    -5.0E-4                  296.43875201089605
0.0055                    5.0E-4                   296.4419385519584
0.0055                    0.0015                   296.4564677383782
0.0055                    0.0025                   295.3689129887089
0.0055                    0.0035                   293.800214666633
0.0055                    0.0045                   293.3495670250233
0.0055                    0.0055                   293.3243359498578
0.0055                    0.0065                   293.3227882233479
0.0055                    0.0075                   293.3267616059625
0.0055                    0.0085                   293.3347249931572
0.0055                    0.0095                   293.3404990810567
0.0055                    0.0105                   293.34792948142865
0.0055                    0.0115                   293.3605738983006
0.0055                    0.0125                   293.39065071562686
0.0055                    0.0135                   293.4646846234183
0.0055                    0.0145                   293.5688145148864
0.0055                    0.0155                   293.7758437788125
0.0055                    0.0165                   294.19017989535826
0.0055                    0.0175                   294.6870496158273
0.0055                    0.0185                   296.2242310473076
0.0055                    0.0195                   303.06357125525443
0.0055                    0.0205                   306.3400208043422
0.0055                    0.0215                   306.378623759892
0.0055                    0.0225                   306.41395819535694
0.0055                    0.0235                   306.44602398827203
0.0055                    0.0245                   306.4736111413473
0.0055                    0.0255                   306.4997856116216
0.0055                    0.0265                   306.52188938266545
0.0055                    0.0275                   306.539794821675
0.0055                    0.0285                   306.55589124615017
0.0055                    0.0295                   306.56629520309633
0.0055                    0.0305                   306.5719593480484
0.0055                    0.0315                   306.5769177111415
0.0065                    -0.0315                  307.6186912476257
0.0065                    -0.0305                  307.6178531155052
0.0065                    -0.0295                  307.6135595211695
0.0065                    -0.0285                  307.6056065239883
0.0065                    -0.0275                  307.59659352686066
0.0065                    -0.0265                  307.58481835487896
0.0065                    -0.0255                  307.570816349705
0.0065                    -0.0245                  307.55399839892266
0.0065                    -0.0235                  307.5339595185709
0.0065                    -0.0225                  307.5091225276576
0.0065                    -0.0215                  307.4804877525063
0.0065                    -0.0205                  307.44679633334215
0.0065                    -0.0195                  307.40748955312364
0.0065                    -0.0185                  307.3572137676642
0.0065                    -0.0175                  298.54262034225604
0.0065                    -0.0165                  295.7036313136688
0.0065                    -0.0155                  295.2610950790279
0.0065                    -0.0145                  294.62677500716353
0.0065                    -0.0135                  293.96844466424693
0.0065                    -0.0125                  293.5493493868721
0.0065                    -0.0115                  293.3402708026655
0.0065                    -0.0105                  293.28673262124386
0.0065                    -0.0095                  293.30107178855826
0.0065                    -0.0085                  293.34356287487935
0.0065                    -0.0075                  293.4741408174011
0.0065                    -0.0065                  293.9549202860112
0.0065                    -0.0055                  295.3533605237402
0.0065                    -0.0045                  296.5043464036933
0.0065                    -0.0035                  296.5105730078551
0.0065                    -0.0025                  296.5058781085128
0.0065                    -0.0015                  296.49537680053305
0.0065                    -5.0E-4                  296.4886496506872
0.0065                    5.0E-4                   296.48680306413246
0.0065                    0.0015                   296.4889312330668
0.0065                    0.0025                   296.4906536286199
0.0065                    0.0035                   295.38791198276033
0.0065                    0.0045                   293.81815578791725
0.0065                    0.0055                   293.39638901543816
0.0065                    0.0065                   293.38001545342684
0.0065                    0.0075                   293.3833581400674
0.0065                    0.0085                   293.4141111844507
0.0065                    0.0095                   293.41029278693935
0.0065                    0.0105                   293.4520024173118
0.0065                    0.0115                   293.4284548222084