% Model:              模型结构导入comsolBench副本.mph
% Version:            COMSOL 6.2.0.339
% Date:               May 29 2026, 16:35
% Dimension:          2
% Nodes:              4096
% Expressions:        1
% Description:        温度
% Length unit:        m
% x                       y                        T (K)
5.0E-4                    -0.0315                  301.25457044936576
5.0E-4                    -0.0305                  301.25236623221525
5.0E-4                    -0.0295                  301.247558800211
5.0E-4                    -0.0285                  301.2409510998525
5.0E-4                    -0.0275                  301.23196341811285
5.0E-4                    -0.0265                  301.2205695715161
5.0E-4                    -0.0255                  301.20740234745296
5.0E-4                    -0.0245                  301.1919695254073
5.0E-4                    -0.0235                  301.1747413825101
5.0E-4                    -0.0225                  301.1555803204626
5.0E-4                    -0.0215                  301.13447620085617
5.0E-4                    -0.0205                  301.1120709191914
5.0E-4                    -0.0195                  301.0883429358894
5.0E-4                    -0.0185                  301.0635581546791
5.0E-4                    -0.0175                  301.03848089595675
5.0E-4                    -0.0165                  301.01352878702016
5.0E-4                    -0.0155                  300.98877143029205
5.0E-4                    -0.0145                  300.965508777673
5.0E-4                    -0.0135                  300.9436701809214
5.0E-4                    -0.0125                  300.9229346541403
5.0E-4                    -0.0115                  300.9021505794102
5.0E-4                    -0.0105                  300.88119153295645
5.0E-4                    -0.0095                  300.61622025664764
5.0E-4                    -0.0085                  300.4069600907869
5.0E-4                    -0.0075                  300.3838466907961
5.0E-4                    -0.0065                  300.3850728587583
5.0E-4                    -0.0055                  300.3873943369624
5.0E-4                    -0.0045                  300.3848876366167
5.0E-4                    -0.0035                  300.3735619017689
5.0E-4                    -0.0025                  300.35759546385054
5.0E-4                    -0.0015                  300.3423439246666
5.0E-4                    -5.0E-4                  300.32941705208407
5.0E-4                    5.0E-4                   300.3196309588054
5.0E-4                    0.0015                   300.31399273267016
5.0E-4                    0.0025                   300.3107100116322
5.0E-4                    0.0035                   300.309446348759
5.0E-4                    0.0045                   300.30788024635
5.0E-4                    0.0055                   300.3048736363678
5.0E-4                    0.0065                   300.3028973049008
5.0E-4                    0.0075                   300.30453781117376
5.0E-4                    0.0085                   300.3096146786956
5.0E-4                    0.0095                   300.3155058519721
5.0E-4                    0.0105                   300.3198783994141
5.0E-4                    0.0115                   300.3031764527858
5.0E-4                    0.0125                   300.2934423769059
5.0E-4                    0.0135                   300.2857780930148
5.0E-4                    0.0145                   300.28179553260026
5.0E-4                    0.0155                   300.28295311687293
5.0E-4                    0.0165                   300.28869663749003
5.0E-4                    0.0175                   300.3078297268207
5.0E-4                    0.0185                   300.35184509989426
5.0E-4                    0.0195                   300.4471255465754
5.0E-4                    0.0205                   300.5766348990653
5.0E-4                    0.0215                   300.72694814613965
5.0E-4                    0.0225                   300.7381657940315
5.0E-4                    0.0235                   300.75388597433414
5.0E-4                    0.0245                   300.7717155381175
5.0E-4                    0.0255                   300.79000185179007
5.0E-4                    0.0265                   300.8073502649225
5.0E-4                    0.0275                   300.82316114444563
5.0E-4                    0.0285                   300.8362270752928
5.0E-4                    0.0295                   300.84627432292626
5.0E-4                    0.0305                   300.8535696679691
5.0E-4                    0.0315                   300.8570252028672
0.0015                    -0.0315                  301.25182712829053
0.0015                    -0.0305                  301.24928243422283
0.0015                    -0.0295                  301.2449830202289
0.0015                    -0.0285                  301.23795014224464
0.0015                    -0.0275                  301.2289164208255
0.0015                    -0.0265                  301.2180930519969
0.0015                    -0.0255                  301.2042755806753
0.0015                    -0.0245                  301.1891772593996
0.0015                    -0.0235                  301.1716435882455
0.0015                    -0.0225                  301.1521833767185
0.0015                    -0.0215                  301.1313945068293
0.0015                    -0.0205                  301.108375496706
0.0015                    -0.0195                  301.08432244334745
0.0015                    -0.0185                  301.0594352916872
0.0015                    -0.0175                  301.0336847773225
0.0015                    -0.0165                  301.0080389391561
0.0015                    -0.0155                  300.98376320712293
0.0015                    -0.0145                  300.95979998146896
0.0015                    -0.0135                  300.9374002375477
0.0015                    -0.0125                  300.9176516844439
0.0015                    -0.0115                  300.8986330538209
0.0015                    -0.0105                  300.86691305666784
0.0015                    -0.0095                  300.44053918228315
0.0015                    -0.0085                  300.3896886296038
0.0015                    -0.0075                  300.39430831132654
0.0015                    -0.0065                  300.4086811055698
0.0015                    -0.0055                  300.4104345339251
0.0015                    -0.0045                  300.3873986708951
0.0015                    -0.0035                  300.3508861997558
0.0015                    -0.0025                  300.31487571040157
0.0015                    -0.0015                  300.286768038878
0.0015                    -5.0E-4                  300.26195352181037
0.0015                    5.0E-4                   300.24740078189626
0.0015                    0.0015                   300.23625793983166
0.0015                    0.0025                   300.23115787195195
0.0015                    0.0035                   300.22903225883
0.0015                    0.0045                   300.23055507670364
0.0015                    0.0055                   300.2351912513274
0.0015                    0.0065                   300.2428282344023
0.0015                    0.0075                   300.24965541502183
0.0015                    0.0085                   300.25919627924566
0.0015                    0.0095                   300.2720432810997
0.0015                    0.0105                   300.2906107191344
0.0015                    0.0115                   300.30584184463044
0.0015                    0.0125                   300.2958248474266
0.0015                    0.0135                   300.2822834238594
0.0015                    0.0145                   300.2741658059498
0.0015                    0.0155                   300.27299236827616
0.0015                    0.0165                   300.2727718051674
0.0015                    0.0175                   300.2707229515919
0.0015                    0.0185                   300.2703549800063
0.0015                    0.0195                   300.306083390857
0.0015                    0.0205                   300.52200549546023
0.0015                    0.0215                   300.71423416642403
0.0015                    0.0225                   300.7286648853161
0.0015                    0.0235                   300.7471218255726
0.0015                    0.0245                   300.7662976293049
0.0015                    0.0255                   300.78590271364226
0.0015                    0.0265                   300.804202332759
0.0015                    0.0275                   300.82032019036535
0.0015                    0.0285                   300.8338914013169
0.0015                    0.0295                   300.84506697439616
0.0015                    0.0305                   300.85158461653884
0.0015                    0.0315                   300.85534511195794
0.0025                    -0.0315                  301.24575877105997
0.0025                    -0.0305                  301.2444006507838
0.0025                    -0.0295                  301.23900150240485
0.0025                    -0.0285                  301.2324627856209
0.0025                    -0.0275                  301.22336104983344
0.0025                    -0.0265                  301.211784045684
0.0025                    -0.0255                  301.19891889951504
0.0025                    -0.0245                  301.1828094708686
0.0025                    -0.0235                  301.165330813174
0.0025                    -0.0225                  301.145923128153
0.0025                    -0.0215                  301.12411187078567
0.0025                    -0.0205                  301.1013004704217
0.0025                    -0.0195                  301.0761221017437
0.0025                    -0.0185                  301.05029110168556
0.0025                    -0.0175                  301.0235199078461
0.0025                    -0.0165                  300.9972855515101
0.0025                    -0.0155                  300.9711258870449
0.0025                    -0.0145                  300.9469515091125
0.0025                    -0.0135                  300.92426433727513
0.0025                    -0.0125                  300.90608946742253
0.0025                    -0.0115                  300.89573896915425
0.0025                    -0.0105                  300.6243362866377
0.0025                    -0.0095                  300.3995015906889
0.0025                    -0.0085                  300.41714868452766
0.0025                    -0.0075                  300.43407329227216
0.0025                    -0.0065                  300.4148612383069
0.0025                    -0.0055                  300.3752706804336
0.0025                    -0.0045                  300.3168346119526
0.0025                    -0.0035                  300.2645501747763
0.0025                    -0.0025                  300.2306161035553
0.0025                    -0.0015                  300.2049179883193
0.0025                    -5.0E-4                  300.18797219135865
0.0025                    5.0E-4                   300.18032973924164
0.0025                    0.0015                   300.1735234022912
0.0025                    0.0025                   300.1721453992594
0.0025                    0.0035                   300.1700662772256
0.0025                    0.0045                   300.170841736698
0.0025                    0.0055                   300.175953823442
0.0025                    0.0065                   300.18114312111874
0.0025                    0.0075                   300.1881431148183
0.0025                    0.0085                   300.1991240659381
0.0025                    0.0095                   300.2119555286171
0.0025                    0.0105                   300.22852351828357
0.0025                    0.0115                   300.24990268795733
0.0025                    0.0125                   300.2784497775494
0.0025                    0.0135                   300.2843015774785
0.0025                    0.0145                   300.2790052692156
0.0025                    0.0155                   300.2777121213645
0.0025                    0.0165                   300.2862996407827
0.0025                    0.0175                   300.28529735859973
0.0025                    0.0185                   300.27285542434845
0.0025                    0.0195                   300.2736358832991
0.0025                    0.0205                   300.41093605608796
0.0025                    0.0215                   300.69141505540813
0.0025                    0.0225                   300.71055590157334
0.0025                    0.0235                   300.7331876372035
0.0025                    0.0245                   300.7557862584146
0.0025                    0.0255                   300.77747500639754
0.0025                    0.0265                   300.79801330362653
0.0025                    0.0275                   300.8156330466757
0.0025                    0.0285                   300.83022899217144
0.0025                    0.0295                   300.84114063406355
0.0025                    0.0305                   300.8485231460137
0.0025                    0.0315                   300.852078782637
0.0035                    -0.0315                  301.23752319045866
0.0035                    -0.0305                  301.23496483635586
0.0035                    -0.0295                  301.2307897596214
0.0035                    -0.0285                  301.22327389008257
0.0035                    -0.0275                  301.2141005865546
0.0035                    -0.0265                  301.2029192245809
0.0035                    -0.0255                  301.188894029166
0.0035                    -0.0245                  301.1735599929477
0.0035                    -0.0235                  301.1554789136344
0.0035                    -0.0225                  301.13545532358387
0.0035                    -0.0215                  301.11369052796783
0.0035                    -0.0205                  301.0892574295929
0.0035                    -0.0195                  301.0639862539649
0.0035                    -0.0185                  301.03523443588244
0.0035                    -0.0175                  301.00734672612043
0.0035                    -0.0165                  300.9787739261152
0.0035                    -0.0155                  300.9514929599834
0.0035                    -0.0145                  300.9259089950081
0.0035                    -0.0135                  300.9011490162761
0.0035                    -0.0125                  300.8784173270429
0.0035                    -0.0115                  300.6258541730516
0.0035                    -0.0105                  300.44711220100726
0.0035                    -0.0095                  300.46751074933695
0.0035                    -0.0085                  300.456564073403
0.0035                    -0.0075                  300.3983062317951
0.0035                    -0.0065                  300.3198678629183
0.0035                    -0.0055                  300.25745686540523
0.0035                    -0.0045                  300.20312329230984
0.0035                    -0.0035                  300.1869310181775
0.0035                    -0.0025                  300.1616340278108
0.0035                    -0.0015                  300.1616346368534
0.0035                    -5.0E-4                  300.15436049019206
0.0035                    5.0E-4                   300.1557676348413
0.0035                    0.0015                   300.15387723517904
0.0035                    0.0025                   300.1551908581354
0.0035                    0.0035                   300.15479002445187
0.0035                    0.0045                   300.15484318685685
0.0035                    0.0055                   300.1562669156087
0.0035                    0.0065                   300.1573392274656
0.0035                    0.0075                   300.1608660187448
0.0035                    0.0085                   300.16315311339395
0.0035                    0.0095                   300.16934234262783
0.0035                    0.0105                   300.18232496236806
0.0035                    0.0115                   300.1968336377932
0.0035                    0.0125                   300.21895074100087
0.0035                    0.0135                   300.25094205792726
0.0035                    0.0145                   300.27051758866327
0.0035                    0.0155                   300.28000016141544
0.0035                    0.0165                   300.28379279339845
0.0035                    0.0175                   300.2873440345895
0.0035                    0.0185                   300.2788250921148
0.0035                    0.0195                   300.26550763928094
0.0035                    0.0205                   300.38090500839064
0.0035                    0.0215                   300.65747478028965
0.0035                    0.0225                   300.6844225399765
0.0035                    0.0235                   300.7139849554768
0.0035                    0.0245                   300.74079096696283
0.0035                    0.0255                   300.76676200958184
0.0035                    0.0265                   300.78955663190004
0.0035                    0.0275                   300.8083913016406
0.0035                    0.0285                   300.823595272018
0.0035                    0.0295                   300.8362589343409
0.0035                    0.0305                   300.8438672853107
0.0035                    0.0315                   300.84768844767757
0.0045                    -0.0315                  301.2262857055029
0.0045                    -0.0305                  301.2237812099019
0.0045                    -0.0295                  301.21908290517456
0.0045                    -0.0285                  301.2118126059652
0.0045                    -0.0275                  301.20241179673593
0.0045                    -0.0265                  301.1907081959721
0.0045                    -0.0255                  301.1767664997584
0.0045                    -0.0245                  301.160812379535
0.0045                    -0.0235                  301.142923354832
0.0045                    -0.0225                  301.1224422102672
0.0045                    -0.0215                  301.0999432517881
0.0045                    -0.0205                  301.07513720699984
0.0045                    -0.0195                  301.04759442494236
0.0045                    -0.0185                  301.0190725095515
0.0045                    -0.0175                  300.9866190921014
0.0045                    -0.0165                  300.95500789826895
0.0045                    -0.0155                  300.9263038379417
0.0045                    -0.0145                  300.89911442604154
0.0045                    -0.0135                  300.87295565197564
0.0045                    -0.0125                  300.8346281683159
0.0045                    -0.0115                  300.5741555508819
0.0045                    -0.0105                  300.51830269390905
0.0045                    -0.0095                  300.43818396142973
0.0045                    -0.0085                  300.323193486822
0.0045                    -0.0075                  300.2328975029844
0.0045                    -0.0065                  300.1943166930197
0.0045                    -0.0055                  300.1621007345069
0.0045                    -0.0045                  300.15472545822723
0.0045                    -0.0035                  300.1494150970543
0.0045                    -0.0025                  300.14991006963635
0.0045                    -0.0015                  300.149006500025
0.0045                    -5.0E-4                  300.1512414443633
0.0045                    5.0E-4                   300.15216037785865
0.0045                    0.0015                   300.155410145769
0.0045                    0.0025                   300.15787463230345
0.0045                    0.0035                   300.15830481014655
0.0045                    0.0045                   300.1557149954594
0.0045                    0.0055                   300.1548427304656
0.0045                    0.0065                   300.1537520613817
0.0045                    0.0075                   300.1543293424517
0.0045                    0.0085                   300.1543154337028
0.0045                    0.0095                   300.15460125284517
0.0045                    0.0105                   300.1579426675868
0.0045                    0.0115                   300.1649439110529
0.0045                    0.0125                   300.17756882036116
0.0045                    0.0135                   300.1964231604853
0.0045                    0.0145                   300.22613760656816
0.0045                    0.0155                   300.25030306760425
0.0045                    0.0165                   300.2687689356835
0.0045                    0.0175                   300.2775124439391
0.0045                    0.0185                   300.272559371262
0.0045                    0.0195                   300.26816373076883
0.0045                    0.0205                   300.4320326396092
0.0045                    0.0215                   300.60866627052604
0.0045                    0.0225                   300.65202512100996
0.0045                    0.0235                   300.6905990484645
0.0045                    0.0245                   300.72363431862686
0.0045                    0.0255                   300.75343124465815
0.0045                    0.0265                   300.7787362914577
0.0045                    0.0275                   300.7995641209702
0.0045                    0.0285                   300.8166573888895
0.0045                    0.0295                   300.82993978172175
0.0045                    0.0305                   300.83797728214586
0.0045                    0.0315                   300.84217206703966
0.0055                    -0.0315                  301.2119468030324
0.0055                    -0.0305                  301.2100698637439
0.0055                    -0.0295                  301.2046757542313
0.0055                    -0.0285                  301.19752164816595
0.0055                    -0.0275                  301.18785025351985
0.0055                    -0.0265                  301.17565925964783
0.0055                    -0.0255                  301.16176686804454
0.0055                    -0.0245                  301.14542647344814
0.0055                    -0.0235                  301.12715067900035
0.0055                    -0.0225                  301.1069702266868
0.0055                    -0.0215                  301.08364647035995
0.0055                    -0.0205                  301.05892475304347
0.0055                    -0.0195                  301.0298476137364
0.0055                    -0.0185                  300.9970875501369
0.0055                    -0.0175                  300.96133075004593
0.0055                    -0.0165                  300.92488697476057
0.0055                    -0.0155                  300.8912059908986
0.0055                    -0.0145                  300.86642099480616
0.0055                    -0.0135                  300.8439864591235
0.0055                    -0.0125                  300.71473440428247
0.0055                    -0.0115                  300.4988778542958
0.0055                    -0.0105                  300.3400164333268
0.0055                    -0.0095                  300.2387963881347
0.0055                    -0.0085                  300.1717944987114
0.0055                    -0.0075                  300.1531071533785
0.0055                    -0.0065                  300.144862545959
0.0055                    -0.0055                  300.14205399992073
0.0055                    -0.0045                  300.143890275721
0.0055                    -0.0035                  300.14624329077157
0.0055                    -0.0025                  300.1537658425193
0.0055                    -0.0015                  300.15790883642705
0.0055                    -5.0E-4                  300.16761768663264
0.0055                    5.0E-4                   300.1766588735732
0.0055                    0.0015                   300.1855825040591
0.0055                    0.0025                   300.1943610098899
0.0055                    0.0035                   300.1920158210411
0.0055                    0.0045                   300.1858305917543
0.0055                    0.0055                   300.1842765338122
0.0055                    0.0065                   300.17477422534665
0.0055                    0.0075                   300.16520325037396
0.0055                    0.0085                   300.1604783501672
0.0055                    0.0095                   300.1560022433963
0.0055                    0.0105                   300.15426300347815
0.0055                    0.0115                   300.15334034834046
0.0055                    0.0125                   300.1587791585023
0.0055                    0.0135                   300.1641980752737
0.0055                    0.0145                   300.18860179463485
0.0055                    0.0155                   300.21179610077996
0.0055                    0.0165                   300.2363568310043
0.0055                    0.0175                   300.25464751178646
0.0055                    0.0185                   300.2591548036883
0.0055                    0.0195                   300.2506659032341
0.0055                    0.0205                   300.47038325357767
0.0055                    0.0215                   300.5587417118893
0.0055                    0.0225                   300.6191697826737
0.0055                    0.0235                   300.666574894179
0.0055                    0.0245                   300.7064005279639
0.0055                    0.0255                   300.7393507254295
0.0055                    0.0265                   300.7678312803703
0.0055                    0.0275                   300.7898529256039
0.0055                    0.0285                   300.808550979269
0.0055                    0.0295                   300.82264177009915
0.0055                    0.0305                   300.83151817662224
0.0055                    0.0315                   300.83561065419804
0.0065                    -0.0315                  301.1954597747723
0.0065                    -0.0305                  301.1927533838617
0.0065                    -0.0295                  301.18836102428077
0.0065                    -0.0285                  301.17997885121963
0.0065                    -0.0275                  301.1699840162229
0.0065                    -0.0265                  301.1589334641216
0.0065                    -0.0255                  301.1434765739819
0.0065                    -0.0245                  301.12737943760976
0.0065                    -0.0235                  301.1088020928103
0.0065                    -0.0225                  301.0879917193174
0.0065                    -0.0215                  301.06597500480865
0.0065                    -0.0205                  301.0398220450198
0.0065                    -0.0195                  301.0103037146513
0.0065                    -0.0185                  300.97488348886736
0.0065                    -0.0175                  300.93300412945206
0.0065                    -0.0165                  300.8834387122473
0.0065                    -0.0155                  300.84355050182427
0.0065                    -0.0145                  300.82654230536866
0.0065                    -0.0135                  300.64963095395285
0.0065                    -0.0125                  300.39418044889885
0.0065                    -0.0115                  300.2532131918336
0.0065                    -0.0105                  300.17814270496217
0.0065                    -0.0095                  300.1545560422562
0.0065                    -0.0085                  300.1428283925486
0.0065                    -0.0075                  300.14191076071535
0.0065                    -0.0065                  300.1424840052485
0.0065                    -0.0055                  300.1479192956269
0.0065                    -0.0045                  300.1613305863067
0.0065                    -0.0035                  300.17535993995557
0.0065                    -0.0025                  300.19036369464834
0.0065                    -0.0015                  300.21504309493184
0.0065                    -5.0E-4                  300.2513688479497
0.0065                    5.0E-4                   300.2871186548967
0.0065                    0.0015                   300.32301898226217
0.0065                    0.0025                   300.3386196422919
0.0065                    0.0035                   300.33868733410645
0.0065                    0.0045                   300.31783635045326
0.0065                    0.0055                   300.2927388323735
0.0065                    0.0065                   300.2606047921645
0.0065                    0.0075                   300.2292415452762
0.0065                    0.0085                   300.2043825704474
0.0065                    0.0095                   300.1782791486509
0.0065                    0.0105                   300.16590075424347
0.0065                    0.0115                   300.1566323610438