% Model:              模型结构导入comsolBench极细.mph
% Version:            COMSOL 6.2.0.339
% Date:               May 14 2026, 10:12
% Dimension:          2
% Nodes:              4096
% Expressions:        1
% Description:        温度
% Length unit:        m
% x                       y                        T (K)
5.0E-4                    -0.0315                  293.5955269282025
5.0E-4                    -0.0305                  293.5941525479476
5.0E-4                    -0.0295                  293.591529551191
5.0E-4                    -0.0285                  293.58762289207556
5.0E-4                    -0.0275                  293.5823212946579
5.0E-4                    -0.0265                  293.57566695370525
5.0E-4                    -0.0255                  293.5677493228335
5.0E-4                    -0.0245                  293.5585671085292
5.0E-4                    -0.0235                  293.5480626887998
5.0E-4                    -0.0225                  293.5363495374339
5.0E-4                    -0.0215                  293.5235969119094
5.0E-4                    -0.0205                  293.5099330932315
5.0E-4                    -0.0195                  293.49555401501715
5.0E-4                    -0.0185                  293.48083773783577
5.0E-4                    -0.0175                  293.4662540030694
5.0E-4                    -0.0165                  293.4524593017994
5.0E-4                    -0.0155                  293.4403894572361
5.0E-4                    -0.0145                  293.4307424578666
5.0E-4                    -0.0135                  293.42462268827603
5.0E-4                    -0.0125                  293.35558287937215
5.0E-4                    -0.0115                  293.34484556735487
5.0E-4                    -0.0105                  293.31931542768234
5.0E-4                    -0.0095                  293.29941331419093
5.0E-4                    -0.0085                  293.29439741004944
5.0E-4                    -0.0075                  293.29641945906394
5.0E-4                    -0.0065                  293.30099727389876
5.0E-4                    -0.0055                  293.3065335682205
5.0E-4                    -0.0045                  293.32898430271786
5.0E-4                    -0.0035                  293.4487654856027
5.0E-4                    -0.0025                  293.4665819413969
5.0E-4                    -0.0015                  293.4507742976929
5.0E-4                    -5.0E-4                  293.41278896508254
5.0E-4                    5.0E-4                   293.3887886725564
5.0E-4                    0.0015                   293.381086775134
5.0E-4                    0.0025                   293.3782736884642
5.0E-4                    0.0035                   293.37591785361803
5.0E-4                    0.0045                   293.36299044730356
5.0E-4                    0.0055                   293.2961514369191
5.0E-4                    0.0065                   293.15832406895544
5.0E-4                    0.0075                   293.15005780532886
5.0E-4                    0.0085                   293.15006472961187
5.0E-4                    0.0095                   293.1606812899568
5.0E-4                    0.0105                   293.3707383630408
5.0E-4                    0.0115                   293.4729079581733
5.0E-4                    0.0125                   293.49246465439205
5.0E-4                    0.0135                   293.49731839291985
5.0E-4                    0.0145                   293.57293359706716
5.0E-4                    0.0155                   293.8101759394998
5.0E-4                    0.0165                   293.81213241461984
5.0E-4                    0.0175                   293.81382780745383
5.0E-4                    0.0185                   293.8152589524593
5.0E-4                    0.0195                   293.8164214948497
5.0E-4                    0.0205                   293.81735051068085
5.0E-4                    0.0215                   293.81805282342464
5.0E-4                    0.0225                   293.8185431968324
5.0E-4                    0.0235                   293.8188677814859
5.0E-4                    0.0245                   293.8190590523932
5.0E-4                    0.0255                   293.8191381207738
5.0E-4                    0.0265                   293.8191394613911
5.0E-4                    0.0275                   293.8190960390533
5.0E-4                    0.0285                   293.8190303051782
5.0E-4                    0.0295                   293.8189621704255
5.0E-4                    0.0305                   293.8189078080718
5.0E-4                    0.0315                   293.8188976225314
0.0015                    -0.0315                  293.59580578259647
0.0015                    -0.0305                  293.59450303810286
0.0015                    -0.0295                  293.5918800397101
0.0015                    -0.0285                  293.5878788467208
0.0015                    -0.0275                  293.58260106925735
0.0015                    -0.0265                  293.5760108687356
0.0015                    -0.0255                  293.56806622638624
0.0015                    -0.0245                  293.55876375136876
0.0015                    -0.0235                  293.54823056890365
0.0015                    -0.0225                  293.5364620077748
0.0015                    -0.0215                  293.5235153353027
0.0015                    -0.0205                  293.5095808218704
0.0015                    -0.0195                  293.4949077485294
0.0015                    -0.0185                  293.47969744332187
0.0015                    -0.0175                  293.4644311704893
0.0015                    -0.0165                  293.4499159555303
0.0015                    -0.0155                  293.4366123448147
0.0015                    -0.0145                  293.4260913658383
0.0015                    -0.0135                  293.41939270125783
0.0015                    -0.0125                  293.36903648668033
0.0015                    -0.0115                  293.3136121813918
0.0015                    -0.0105                  293.27541975440136
0.0015                    -0.0095                  293.2754056155717
0.0015                    -0.0085                  293.28062481085954
0.0015                    -0.0075                  293.28154417193514
0.0015                    -0.0065                  293.2819745163873
0.0015                    -0.0055                  293.287153483359
0.0015                    -0.0045                  293.29529499881545
0.0015                    -0.0035                  293.3323516460613
0.0015                    -0.0025                  293.41570378013654
0.0015                    -0.0015                  293.4047157574669
0.0015                    -5.0E-4                  293.3951167603308
0.0015                    5.0E-4                   293.3950408639348
0.0015                    0.0015                   293.40968722777507
0.0015                    0.0025                   293.4289889797734
0.0015                    0.0035                   293.4189500039495
0.0015                    0.0045                   293.37003406533324
0.0015                    0.0055                   293.3086025429021
0.0015                    0.0065                   293.1645852541085
0.0015                    0.0075                   293.14978512793294
0.0015                    0.0085                   293.14980604724974
0.0015                    0.0095                   293.16512917482737
0.0015                    0.0105                   293.3849889116443
0.0015                    0.0115                   293.46567557162757
0.0015                    0.0125                   293.5269354278911
0.0015                    0.0135                   293.5211396288246
0.0015                    0.0145                   293.5311699501543
0.0015                    0.0155                   293.80924455434877
0.0015                    0.0165                   293.8113577648911
0.0015                    0.0175                   293.81305695717685
0.0015                    0.0185                   293.8144837749245
0.0015                    0.0195                   293.81563764181
0.0015                    0.0205                   293.8165400403269
0.0015                    0.0215                   293.8172119441046
0.0015                    0.0225                   293.8176873637228
0.0015                    0.0235                   293.8179747321564
0.0015                    0.0245                   293.8181262310127
0.0015                    0.0255                   293.81817697648665
0.0015                    0.0265                   293.8181521220488
0.0015                    0.0275                   293.81807991774207
0.0015                    0.0285                   293.81799412791884
0.0015                    0.0295                   293.8179125943135
0.0015                    0.0305                   293.8178685326643
0.0015                    0.0315                   293.8177944802703
0.0025                    -0.0315                  293.5963849496195
0.0025                    -0.0305                  293.5950524101158
0.0025                    -0.0295                  293.5924567243006
0.0025                    -0.0285                  293.5884455428415
0.0025                    -0.0275                  293.58317725821814
0.0025                    -0.0265                  293.57662008141415
0.0025                    -0.0255                  293.5686108823907
0.0025                    -0.0245                  293.55923838967936
0.0025                    -0.0235                  293.5485821121822
0.0025                    -0.0225                  293.5366658253774
0.0025                    -0.0215                  293.52340900901766
0.0025                    -0.0205                  293.5090113005663
0.0025                    -0.0195                  293.4936743277539
0.0025                    -0.0185                  293.47762674469436
0.0025                    -0.0175                  293.4611896830761
0.0025                    -0.0165                  293.44485558477123
0.0025                    -0.0155                  293.42955332174927
0.0025                    -0.0145                  293.41649950544166
0.0025                    -0.0135                  293.40768232866105
0.0025                    -0.0125                  293.3462094945462
0.0025                    -0.0115                  293.2702422717815
0.0025                    -0.0105                  293.28193383399315
0.0025                    -0.0095                  293.3040385546924
0.0025                    -0.0085                  293.3141817206366
0.0025                    -0.0075                  293.3123720672502
0.0025                    -0.0065                  293.30170192031557
0.0025                    -0.0055                  293.287746474079
0.0025                    -0.0045                  293.2866923118273
0.0025                    -0.0035                  293.29620605409104
0.0025                    -0.0025                  293.35141166549755
0.0025                    -0.0015                  293.4017537764072
0.0025                    -5.0E-4                  293.4046028017013
0.0025                    5.0E-4                   293.4117642940079
0.0025                    0.0015                   293.43102814416113
0.0025                    0.0025                   293.4420539065592
0.0025                    0.0035                   293.4161834122357
0.0025                    0.0045                   293.3550312380904
0.0025                    0.0055                   293.3003988456934
0.0025                    0.0065                   293.16955222840113
0.0025                    0.0075                   293.1495707178278
0.0025                    0.0085                   293.14952528292787
0.0025                    0.0095                   293.1692147628555
0.0025                    0.0105                   293.364872769523
0.0025                    0.0115                   293.4394332496079
0.0025                    0.0125                   293.5186811876038
0.0025                    0.0135                   293.5338828036364
0.0025                    0.0145                   293.5484743788255
0.0025                    0.0155                   293.8081017152586
0.0025                    0.0165                   293.8099171869917
0.0025                    0.0175                   293.81156796570446
0.0025                    0.0185                   293.81298279152526
0.0025                    0.0195                   293.8141135053081
0.0025                    0.0205                   293.8149681007858
0.0025                    0.0215                   293.81558570812285
0.0025                    0.0225                   293.81599678921975
0.0025                    0.0235                   293.8162298418974
0.0025                    0.0245                   293.81631160297076
0.0025                    0.0255                   293.8162983841639
0.0025                    0.0265                   293.8162209666498
0.0025                    0.0275                   293.8161034105979
0.0025                    0.0285                   293.8159790288988
0.0025                    0.0295                   293.8158573768518
0.0025                    0.0305                   293.81577171835954
0.0025                    0.0315                   293.81568332287736
0.0035                    -0.0315                  293.5972399764783
0.0035                    -0.0305                  293.59593361849727
0.0035                    -0.0295                  293.5933337145655
0.0035                    -0.0285                  293.58941669804165
0.0035                    -0.0275                  293.5841646020643
0.0035                    -0.0265                  293.57750992159197
0.0035                    -0.0255                  293.5695251177255
0.0035                    -0.0245                  293.5601207667991
0.0035                    -0.0235                  293.5493078333318
0.0035                    -0.0225                  293.5370590391787
0.0035                    -0.0215                  293.5234758492367
0.0035                    -0.0205                  293.50846169287945
0.0035                    -0.0195                  293.4922039269439
0.0035                    -0.0185                  293.47491561764747
0.0035                    -0.0175                  293.4565662334307
0.0035                    -0.0165                  293.43783299047413
0.0035                    -0.0155                  293.4190729632556
0.0035                    -0.0145                  293.402194498373
0.0035                    -0.0135                  293.3882385337307
0.0035                    -0.0125                  293.26924085551406
0.0035                    -0.0115                  293.27550456730165
0.0035                    -0.0105                  293.3058195385846
0.0035                    -0.0095                  293.32129239308523
0.0035                    -0.0085                  293.32905424729915
0.0035                    -0.0075                  293.3297284527898
0.0035                    -0.0065                  293.32286657624263
0.0035                    -0.0055                  293.3040912713416
0.0035                    -0.0045                  293.2890410486146
0.0035                    -0.0035                  293.2886167020274
0.0035                    -0.0025                  293.3051268244809
0.0035                    -0.0015                  293.3532461251799
0.0035                    -5.0E-4                  293.38121072991964
0.0035                    5.0E-4                   293.3957684707604
0.0035                    0.0015                   293.40356280082204
0.0035                    0.0025                   293.3948969594759
0.0035                    0.0035                   293.37189129816284
0.0035                    0.0045                   293.3364160648846
0.0035                    0.0055                   293.29063811374374
0.0035                    0.0065                   293.17072180335555
0.0035                    0.0075                   293.14974260719634
0.0035                    0.0085                   293.14955481638657
0.0035                    0.0095                   293.169469038785
0.0035                    0.0105                   293.34003381271475
0.0035                    0.0115                   293.41587735269894
0.0035                    0.0125                   293.47935417539037
0.0035                    0.0135                   293.52918566622895
0.0035                    0.0145                   293.573628234232
0.0035                    0.0155                   293.80573563098216
0.0035                    0.0165                   293.80765643963105
0.0035                    0.0175                   293.80932347563976
0.0035                    0.0185                   293.8106936183257
0.0035                    0.0195                   293.8117758846577
0.0035                    0.0205                   293.8125863130871
0.0035                    0.0215                   293.81311072154534
0.0035                    0.0225                   293.813413425207
0.0035                    0.0235                   293.8135424003927
0.0035                    0.0245                   293.81352585012985
0.0035                    0.0255                   293.8134012821597
0.0035                    0.0265                   293.81323007203594
0.0035                    0.0275                   293.81302843066953
0.0035                    0.0285                   293.8128325486111
0.0035                    0.0295                   293.81266984329864
0.0035                    0.0305                   293.8125603031617
0.0035                    0.0315                   293.81253768854526
0.0045                    -0.0315                  293.59838472596925
0.0045                    -0.0305                  293.5970915940186
0.0045                    -0.0295                  293.594533048735
0.0045                    -0.0285                  293.59060020093557
0.0045                    -0.0275                  293.58539822363065
0.0045                    -0.0265                  293.57873836050646
0.0045                    -0.0255                  293.5707282924847
0.0045                    -0.0245                  293.5613439602734
0.0045                    -0.0235                  293.55034255358305
0.0045                    -0.0225                  293.5377914378221
0.0045                    -0.0215                  293.52373097661734
0.0045                    -0.0205                  293.50811187776446
0.0045                    -0.0195                  293.4907674476365
0.0045                    -0.0185                  293.4720593445793
0.0045                    -0.0175                  293.4519126239849
0.0045                    -0.0165                  293.4298606339495
0.0045                    -0.0155                  293.4063141246875
0.0045                    -0.0145                  293.3819839813404
0.0045                    -0.0135                  293.2637698213428
0.0045                    -0.0125                  293.25640813473797
0.0045                    -0.0115                  293.28594546141034
0.0045                    -0.0105                  293.30723534665435
0.0045                    -0.0095                  293.3193148650974
0.0045                    -0.0085                  293.3271703921248
0.0045                    -0.0075                  293.3293336363114
0.0045                    -0.0065                  293.3228205674914
0.0045                    -0.0055                  293.3090500930764
0.0045                    -0.0045                  293.2937859574572
0.0045                    -0.0035                  293.28882738501125
0.0045                    -0.0025                  293.2924555670167
0.0045                    -0.0015                  293.3057132733171
0.0045                    -5.0E-4                  293.3159286020086
0.0045                    5.0E-4                   293.31914853106275
0.0045                    0.0015                   293.3220340202679
0.0045                    0.0025                   293.32232900459303
0.0045                    0.0035                   293.32056366332864
0.0045                    0.0045                   293.3139083633105
0.0045                    0.0055                   293.2901203906336
0.0045                    0.0065                   293.1737998592257
0.0045                    0.0075                   293.1498764389043
0.0045                    0.0085                   293.14987828380004
0.0045                    0.0095                   293.1803660046061
0.0045                    0.0105                   293.3246898185337
0.0045                    0.0115                   293.39213924624534
0.0045                    0.0125                   293.45163911332594
0.0045                    0.0135                   293.5035190232429
0.0045                    0.0145                   293.56521478065446
0.0045                    0.0155                   293.80258925775104
0.0045                    0.0165                   293.8046314437728
0.0045                    0.0175                   293.8062765935099
0.0045                    0.0185                   293.8076845580906
0.0045                    0.0195                   293.80875318108843
0.0045                    0.0205                   293.8094813103834
0.0045                    0.0215                   293.8099050600499
0.0045                    0.0225                   293.81006368465717
0.0045                    0.0235                   293.8100323311668
0.0045                    0.0245                   293.8098722328632
0.0045                    0.0255                   293.80962105409355
0.0045                    0.0265                   293.8093299292301
0.0045                    0.0275                   293.80900482963625
0.0045                    0.0285                   293.8087196578525
0.0045                    0.0295                   293.8084507432452
0.0045                    0.0305                   293.8083005642138
0.0045                    0.0315                   293.8082527630543
0.0055                    -0.0315                  293.59979752566414
0.0055                    -0.0305                  293.59850952893544
0.0055                    -0.0295                  293.5959970126462
0.0055                    -0.0285                  293.5921292334392
0.0055                    -0.0275                  293.5870085707411
0.0055                    -0.0265                  293.58042518621426
0.0055                    -0.0255                  293.5724913325887
0.0055                    -0.0245                  293.5630366792442
0.0055                    -0.0235                  293.551998039061
0.0055                    -0.0225                  293.5392408589454
0.0055                    -0.0215                  293.5247003616165
0.0055                    -0.0205                  293.50821860563144
0.0055                    -0.0195                  293.48995040977366
0.0055                    -0.0185                  293.469682750925
0.0055                    -0.0175                  293.4477277101801
0.0055                    -0.0165                  293.42289208469697
0.0055                    -0.0155                  293.3923649072291
0.0055                    -0.0145                  293.26468933610545
0.0055                    -0.0135                  293.2316944969478
0.0055                    -0.0125                  293.24455808169296
0.0055                    -0.0115                  293.26727711770684
0.0055                    -0.0105                  293.287099012108
0.0055                    -0.0095                  293.3015859550273
0.0055                    -0.0085                  293.30871803836453
0.0055                    -0.0075                  293.3104945015432
0.0055                    -0.0065                  293.30736726172665
0.0055                    -0.0055                  293.29962047812154
0.0055                    -0.0045                  293.2926089293521
0.0055                    -0.0035                  293.28993738914045
0.0055                    -0.0025                  293.2907191875456
0.0055                    -0.0015                  293.2931290153806
0.0055                    -5.0E-4                  293.2920270600421
0.0055                    5.0E-4                   293.29065540026374
0.0055                    0.0015                   293.2922714141808
0.0055                    0.0025                   293.29481757668304
0.0055                    0.0035                   293.2983138114361
0.0055                    0.0045                   293.3014801039877
0.0055                    0.0055                   293.28454452700305
0.0055                    0.0065                   293.1746719978619
0.0055                    0.0075                   293.1497797252213
0.0055                    0.0085                   293.1496550792208
0.0055                    0.0095                   293.1780893753643
0.0055                    0.0105                   293.3021335849245
0.0055                    0.0115                   293.3743716381677
0.0055                    0.0125                   293.4205187136779
0.0055                    0.0135                   293.48836766959727
0.0055                    0.0145                   293.52184136832363
0.0055                    0.0155                   293.68060422597347
0.0055                    0.0165                   293.8002876885687
0.0055                    0.0175                   293.80249697735155
0.0055                    0.0185                   293.80403237153075
0.0055                    0.0195                   293.8050388480442
0.0055                    0.0205                   293.8055984446145
0.0055                    0.0215                   293.8058532590897
0.0055                    0.0225                   293.8058167717978
0.0055                    0.0235                   293.8055646714454
0.0055                    0.0245                   293.8052077860208
0.0055                    0.0255                   293.80477613301775
0.0055                    0.0265                   293.8043036635526
0.0055                    0.0275                   293.8038549203164
0.0055                    0.0285                   293.8034841477318
0.0055                    0.0295                   293.80318094178136
0.0055                    0.0305                   293.80296879709675
0.0055                    0.0315                   293.80281484965064
0.0065                    -0.0315                  293.6014387506171
0.0065                    -0.0305                  293.6001888227894
0.0065                    -0.0295                  293.59773369316304
0.0065                    -0.0285                  293.5939473570579
0.0065                    -0.0275                  293.58896715788563
0.0065                    -0.0265                  293.58248906200805
0.0065                    -0.0255                  293.57459678593216
0.0065                    -0.0245                  293.5652099082946
0.0065                    -0.0235                  293.55421474071954
0.0065                    -0.0225                  293.5413351280255
0.0065                    -0.0215                  293.5265635706645
0.0065                    -0.0205                  293.50936406737407
0.0065                    -0.0195                  293.489906286111
0.0065                    -0.0185                  293.4678965723584
0.0065                    -0.0175                  293.44485085425305
0.0065                    -0.0165                  293.4213219114087
0.0065                    -0.0155                  293.27729917154454
0.0065                    -0.0145                  293.2147445909703
0.0065                    -0.0135                  293.2133915149641
0.0065                    -0.0125                  293.2156562145623
0.0065                    -0.0115                  293.22408632769054
0.0065                    -0.0105                  293.23867278543975
0.0065                    -0.0095                  293.2532686649657
0.0065                    -0.0085                  293.2695540714035
0.0065                    -0.0075                  293.2824545829493
0.0065                    -0.0065                  293.28497402163214
0.0065                    -0.0055                  293.2809360272713
0.0065                    -0.0045                  293.2827093550056
0.0065                    -0.0035                  293.27561935672037
0.0065                    -0.0025                  293.2703102584971
0.0065                    -0.0015                  293.2691994772201
0.0065                    -5.0E-4                  293.2707895629842
0.0065                    5.0E-4                   293.27778186124993
0.0065                    0.0015                   293.2853537223742
0.0065                    0.0025                   293.2929974457055
0.0065                    0.0035                   293.2935838202737
0.0065                    0.0045                   293.29553691775175
0.0065                    0.0055                   293.26665603508206
0.0065                    0.0065                   293.174641536753
0.0065                    0.0075                   293.15033537922216
0.0065                    0.0085                   293.149664177219
0.0065                    0.0095                   293.1727666823675
0.0065                    0.0105                   293.2799811505215
0.0065                    0.0115                   293.3582253945436