% Model:              模型结构导入comsolBench.mph
% Version:            COMSOL 6.2.0.339
% Date:               May 12 2026, 14:13
% Dimension:          2
% Nodes:              4096
% Expressions:        1
% Description:        温度
% Length unit:        m
% x                       y                        T (K)
5.0E-4                    -0.0315                  294.0477109088721
5.0E-4                    -0.0305                  294.04718728022107
5.0E-4                    -0.0295                  294.0464480932245
5.0E-4                    -0.0285                  293.86843013617545
5.0E-4                    -0.0275                  293.1994162785628
5.0E-4                    -0.0265                  293.1506924757668
5.0E-4                    -0.0255                  293.15038877702113
5.0E-4                    -0.0245                  293.1503404565765
5.0E-4                    -0.0235                  293.15034071317564
5.0E-4                    -0.0225                  293.15034206937526
5.0E-4                    -0.0215                  293.1503425050221
5.0E-4                    -0.0205                  293.1662772924757
5.0E-4                    -0.0195                  293.7409057602286
5.0E-4                    -0.0185                  293.9361454171644
5.0E-4                    -0.0175                  293.93975838009396
5.0E-4                    -0.0165                  293.9263160707676
5.0E-4                    -0.0155                  293.91124383664396
5.0E-4                    -0.0145                  293.90080668923326
5.0E-4                    -0.0135                  293.8916861779366
5.0E-4                    -0.0125                  293.886350144937
5.0E-4                    -0.0115                  293.8830764286148
5.0E-4                    -0.0105                  293.8835785175815
5.0E-4                    -0.0095                  293.8853567717609
5.0E-4                    -0.0085                  293.8934380319062
5.0E-4                    -0.0075                  293.9060838312878
5.0E-4                    -0.0065                  293.9239180759848
5.0E-4                    -0.0055                  293.94116181826263
5.0E-4                    -0.0045                  293.94683351677475
5.0E-4                    -0.0035                  293.94409906340934
5.0E-4                    -0.0025                  293.95440615506357
5.0E-4                    -0.0015                  294.047809484881
5.0E-4                    -5.0E-4                  294.3054872375752
5.0E-4                    5.0E-4                   294.6196467304672
5.0E-4                    0.0015                   294.83442559116196
5.0E-4                    0.0025                   294.85141593200217
5.0E-4                    0.0035                   294.88100057262545
5.0E-4                    0.0045                   294.9176863355612
5.0E-4                    0.0055                   294.95896788421146
5.0E-4                    0.0065                   295.00123352415045
5.0E-4                    0.0075                   295.04278237547203
5.0E-4                    0.0085                   295.0842536147659
5.0E-4                    0.0095                   295.1229383494206
5.0E-4                    0.0105                   295.16041818648216
5.0E-4                    0.0115                   295.19749034053103
5.0E-4                    0.0125                   295.2298486563638
5.0E-4                    0.0135                   295.2607017812776
5.0E-4                    0.0145                   295.29155490619144
5.0E-4                    0.0155                   295.3206165165348
5.0E-4                    0.0165                   295.3438837470626
5.0E-4                    0.0175                   295.3671330661482
5.0E-4                    0.0185                   295.3903823852338
5.0E-4                    0.0195                   295.4120165938002
5.0E-4                    0.0205                   295.428335773119
5.0E-4                    0.0215                   295.444145123934
5.0E-4                    0.0225                   295.459954474749
5.0E-4                    0.0235                   295.47495069353323
5.0E-4                    0.0245                   295.4854222855642
5.0E-4                    0.0255                   295.4946971126492
5.0E-4                    0.0265                   295.50397193973413
5.0E-4                    0.0275                   295.5132467668191
5.0E-4                    0.0285                   295.5179917307106
5.0E-4                    0.0295                   295.5211000831166
5.0E-4                    0.0305                   295.52420843552267
5.0E-4                    0.0315                   295.5273167879287
0.0015                    -0.0315                  294.0472637741712
0.0015                    -0.0305                  294.0465348954106
0.0015                    -0.0295                  294.0449698581423
0.0015                    -0.0285                  293.7681649184309
0.0015                    -0.0275                  293.23330263953744
0.0015                    -0.0265                  293.1537631023474
0.0015                    -0.0255                  293.15112300979587
0.0015                    -0.0245                  293.15101456621164
0.0015                    -0.0235                  293.1509489558404
0.0015                    -0.0225                  293.1509600100994
0.0015                    -0.0215                  293.15098365650437
0.0015                    -0.0205                  293.17059670644693
0.0015                    -0.0195                  293.61637695467664
0.0015                    -0.0185                  293.8224080137331
0.0015                    -0.0175                  293.8394191616441
0.0015                    -0.0165                  293.83417833844703
0.0015                    -0.0155                  293.81926840044935
0.0015                    -0.0145                  293.7964515108355
0.0015                    -0.0135                  293.77811317831294
0.0015                    -0.0125                  293.74891269887024
0.0015                    -0.0115                  293.7338120716031
0.0015                    -0.0105                  293.70236189988117
0.0015                    -0.0095                  293.69945678671803
0.0015                    -0.0085                  293.6722749432703
0.0015                    -0.0075                  293.684186359779
0.0015                    -0.0065                  293.6530068907537
0.0015                    -0.0055                  293.6546727060105
0.0015                    -0.0045                  293.63849109985614
0.0015                    -0.0035                  293.60392959255364
0.0015                    -0.0025                  293.55886409532866
0.0015                    -0.0015                  293.57559807956113
0.0015                    -5.0E-4                  293.723023741468
0.0015                    5.0E-4                   294.3584796898992
0.0015                    0.0015                   294.814529227886
0.0015                    0.0025                   294.83867289400575
0.0015                    0.0035                   294.87220487810123
0.0015                    0.0045                   294.91432421568635
0.0015                    0.0055                   294.95703256182543
0.0015                    0.0065                   295.0004728695676
0.0015                    0.0075                   295.04311601612926
0.0015                    0.0085                   295.08471491769967
0.0015                    0.0095                   295.12486506459436
0.0015                    0.0105                   295.16234490165596
0.0015                    0.0115                   295.1982268572314
0.0015                    0.0125                   295.2325970678514
0.0015                    0.0135                   295.2634501927651
0.0015                    0.0145                   295.29356694294586
0.0015                    0.0155                   295.32123717346354
0.0015                    0.0165                   295.34656154434236
0.0015                    0.0175                   295.369810863428
0.0015                    0.0185                   295.39270408266674
0.0015                    0.0195                   295.41230704784454
0.0015                    0.0205                   295.43052280216045
0.0015                    0.0215                   295.4463321529755
0.0015                    0.0225                   295.46204481779375
0.0015                    0.0235                   295.47500364858956
0.0015                    0.0245                   295.48721247845725
0.0015                    0.0255                   295.4964873055422
0.0015                    0.0265                   295.5057621326272
0.0015                    0.0275                   295.51318574887233
0.0015                    0.0285                   295.51931322591406
0.0015                    0.0295                   295.52253099396137
0.0015                    0.0305                   295.52563934636737
0.0015                    0.0315                   295.52793141569856
0.0025                    -0.0315                  294.04673797855304
0.0025                    -0.0305                  294.04511862223904
0.0025                    -0.0295                  294.04318339762835
0.0025                    -0.0285                  293.7318299093232
0.0025                    -0.0275                  293.2632568838239
0.0025                    -0.0265                  293.15764126646513
0.0025                    -0.0255                  293.1521248013394
0.0025                    -0.0245                  293.15166683129297
0.0025                    -0.0235                  293.15160749053575
0.0025                    -0.0225                  293.15158314644174
0.0025                    -0.0215                  293.1519534387936
0.0025                    -0.0205                  293.1874706536136
0.0025                    -0.0195                  293.4728563188258
0.0025                    -0.0185                  293.7428539844844
0.0025                    -0.0175                  293.76349617893493
0.0025                    -0.0165                  293.751979287109
0.0025                    -0.0155                  293.72950580998815
0.0025                    -0.0145                  293.69566678971364
0.0025                    -0.0135                  293.6739954700696
0.0025                    -0.0125                  293.64084595961003
0.0025                    -0.0115                  293.6251262645528
0.0025                    -0.0105                  293.5974997571373
0.0025                    -0.0095                  293.5900359649684
0.0025                    -0.0085                  293.5685580280119
0.0025                    -0.0075                  293.5623318109795
0.0025                    -0.0065                  293.54813195541624
0.0025                    -0.0055                  293.5413891860032
0.0025                    -0.0045                  293.5254506625357
0.0025                    -0.0035                  293.5163366442565
0.0025                    -0.0025                  293.5037925368067
0.0025                    -0.0015                  293.47979835635647
0.0025                    -5.0E-4                  293.5327010098388
0.0025                    5.0E-4                   294.15579321992556
0.0025                    0.0015                   294.7723098642591
0.0025                    0.0025                   294.81301101505704
0.0025                    0.0035                   294.8594484006438
0.0025                    0.0045                   294.9062721338446
0.0025                    0.0055                   294.95366426317986
0.0025                    0.0065                   294.9989242329515
0.0025                    0.0075                   295.04391151306504
0.0025                    0.0085                   295.0851762206335
0.0025                    0.0095                   295.1267917797681
0.0025                    0.0105                   295.16329222504316
0.0025                    0.0115                   295.19896337393186
0.0025                    0.0125                   295.23463452282044
0.0025                    0.0135                   295.2661986042526
0.0025                    0.0145                   295.2941875998747
0.0025                    0.0155                   295.32185783039245
0.0025                    0.0165                   295.34923934162214
0.0025                    0.0175                   295.37248866070775
0.0025                    0.0185                   295.39299453671106
0.0025                    0.0195                   295.4125975018888
0.0025                    0.0205                   295.4322004670666
0.0025                    0.0215                   295.4485191820169
0.0025                    0.0225                   295.46209777285014
0.0025                    0.0235                   295.4750566036459
0.0025                    0.0245                   295.48801543444165
0.0025                    0.0255                   295.49827749843524
0.0025                    0.0265                   295.50699631763507
0.0025                    0.0275                   295.51312379467686
0.0025                    0.0285                   295.51925127171864
0.0025                    0.0295                   295.523961904806
0.0025                    0.0305                   295.5262790833086
0.0025                    0.0315                   295.52853348888266
0.0035                    -0.0315                  294.0465255652469
0.0035                    -0.0305                  294.0442086972366
0.0035                    -0.0295                  294.0397099132188
0.0035                    -0.0285                  293.7713110646284
0.0035                    -0.0275                  293.31247407068463
0.0035                    -0.0265                  293.1729011305315
0.0035                    -0.0255                  293.15286253417537
0.0035                    -0.0245                  293.1523559360745
0.0035                    -0.0235                  293.1522837341522
0.0035                    -0.0225                  293.1522074798701
0.0035                    -0.0215                  293.1540124216391
0.0035                    -0.0205                  293.18425614634117
0.0035                    -0.0195                  293.3673764231004
0.0035                    -0.0185                  293.6021554066229
0.0035                    -0.0175                  293.69725693762945
0.0035                    -0.0165                  293.69402455318954
0.0035                    -0.0155                  293.67581094427993
0.0035                    -0.0145                  293.6633482976889
0.0035                    -0.0135                  293.6406642528879
0.0035                    -0.0125                  293.61665176906723
0.0035                    -0.0115                  293.59649782929006
0.0035                    -0.0105                  293.5810598328834
0.0035                    -0.0095                  293.5596174550175
0.0035                    -0.0085                  293.53877634871156
0.0035                    -0.0075                  293.5263543639244
0.0035                    -0.0065                  293.515356410017
0.0035                    -0.0055                  293.5050704445213
0.0035                    -0.0045                  293.497742832467
0.0035                    -0.0035                  293.49605824584387
0.0035                    -0.0025                  293.49405279961564
0.0035                    -0.0015                  293.46280697242855
0.0035                    -5.0E-4                  293.4615219911569
0.0035                    5.0E-4                   293.8889724908742
0.0035                    0.0015                   294.69536955962457
0.0035                    0.0025                   294.78338130042107
0.0035                    0.0035                   294.8442583536047
0.0035                    0.0045                   294.89880923970435
0.0035                    0.0055                   294.95050830649166
0.0035                    0.0065                   294.9980068787834
0.0035                    0.0075                   295.04509426018177
0.0035                    0.0085                   295.0865969977698
0.0035                    0.0095                   295.12919898589496
0.0035                    0.0105                   295.1660848784772
0.0035                    0.0115                   295.2011676645402
0.0035                    0.0125                   295.2362504506032
0.0035                    0.0135                   295.26757994823777
0.0035                    0.0145                   295.29487105664316
0.0035                    0.0155                   295.3224784873212
0.0035                    0.0165                   295.35014871783886
0.0035                    0.0175                   295.3736820255776
0.0035                    0.0185                   295.3932849907553
0.0035                    0.0195                   295.412955497536
0.0035                    0.0205                   295.43288067889034
0.0035                    0.0215                   295.4494634233621
0.0035                    0.0225                   295.46215072790653
0.0035                    0.0235                   295.4751095587023
0.0035                    0.0245                   295.4880683894981
0.0035                    0.0255                   295.5000676913283
0.0035                    0.0265                   295.5069343634397
0.0035                    0.0275                   295.51335789500115
0.0035                    0.0285                   295.52015706517847
0.0035                    0.0295                   295.52514750335035
0.0035                    0.0305                   295.5269280912204
0.0035                    0.0315                   295.52913556206676
0.0045                    -0.0315                  294.0474819064512
0.0045                    -0.0305                  294.04455018522026
0.0045                    -0.0295                  294.03740628635023
0.0045                    -0.0285                  294.0179332685623
0.0045                    -0.0275                  293.51558376634966
0.0045                    -0.0265                  293.18255217033385
0.0045                    -0.0255                  293.1558938116817
0.0045                    -0.0245                  293.1529552959875
0.0045                    -0.0235                  293.1529611953945
0.0045                    -0.0225                  293.15294523629893
0.0045                    -0.0215                  293.153409328556
0.0045                    -0.0205                  293.1832301596807
0.0045                    -0.0195                  293.2951295560291
0.0045                    -0.0185                  293.48765404507077
0.0045                    -0.0175                  293.58624468739356
0.0045                    -0.0165                  293.619317817338
0.0045                    -0.0155                  293.6252047878035
0.0045                    -0.0145                  293.610406608936
0.0045                    -0.0135                  293.5714568736951
0.0045                    -0.0125                  293.54590440128857
0.0045                    -0.0115                  293.51794376248023
0.0045                    -0.0105                  293.4921281089667
0.0045                    -0.0095                  293.47233224156764
0.0045                    -0.0085                  293.45736061619925
0.0045                    -0.0075                  293.44326456795847
0.0045                    -0.0065                  293.43231272678815
0.0045                    -0.0055                  293.4282739317786
0.0045                    -0.0045                  293.4199868235197
0.0045                    -0.0035                  293.4099402242415
0.0045                    -0.0025                  293.40007880855086
0.0045                    -0.0015                  293.3964303228349
0.0045                    -5.0E-4                  293.3976411245927
0.0045                    5.0E-4                   293.42935969313965
0.0045                    0.0015                   294.0275713541349
0.0045                    0.0025                   294.7664393944805
0.0045                    0.0035                   294.831393528295
0.0045                    0.0045                   294.8915959049664
0.0045                    0.0055                   294.94828810054685
0.0045                    0.0065                   294.99991897921575
0.0045                    0.0075                   295.0471326459054
0.0045                    0.0085                   295.09101785558937
0.0045                    0.0095                   295.1325134776101
0.0045                    0.0105                   295.1715168290899
0.0045                    0.0115                   295.2065996151529
0.0045                    0.0125                   295.2417021815542
0.0045                    0.0135                   295.2728237268576
0.0045                    0.0145                   295.3005869958383
0.0045                    0.0155                   295.32787810424367
0.0045                    0.0165                   295.3546506325455
0.0045                    0.0175                   295.37760932894747
0.0045                    0.0185                   295.39764327405885
0.0045                    0.0195                   295.4175684554131
0.0045                    0.0205                   295.43685697237595
0.0045                    0.0215                   295.4532102502657
0.0045                    0.0225                   295.46566463569
0.0045                    0.0235                   295.47811902111425
0.0045                    0.0245                   295.49057340653854
0.0045                    0.0255                   295.50223006251633
0.0045                    0.0265                   295.50879583734644
0.0045                    0.0275                   295.51559500752376
0.0045                    0.0285                   295.522394177701
0.0045                    0.0295                   295.5267921529904
0.0045                    0.0305                   295.5285727408605
0.0045                    0.0315                   295.5303766185611
0.0055                    -0.0315                  294.051014943015
0.0055                    -0.0305                  294.0478667622413
0.0055                    -0.0295                  294.0416493443647
0.0055                    -0.0285                  294.0317507004071
0.0055                    -0.0275                  293.60311014066605
0.0055                    -0.0265                  293.1985049613571
0.0055                    -0.0255                  293.1601411581348
0.0055                    -0.0245                  293.1539719413172
0.0055                    -0.0235                  293.15362396557737
0.0055                    -0.0225                  293.15355581573806
0.0055                    -0.0215                  293.15315699802886
0.0055                    -0.0205                  293.16032189309146
0.0055                    -0.0195                  293.2472974378713
0.0055                    -0.0185                  293.36021567810354
0.0055                    -0.0175                  293.43072708962234
0.0055                    -0.0165                  293.504609654543
0.0055                    -0.0155                  293.5013010672718
0.0055                    -0.0145                  293.4816819497154
0.0055                    -0.0135                  293.4465271811787
0.0055                    -0.0125                  293.41266751381875
0.0055                    -0.0115                  293.3821934359353
0.0055                    -0.0105                  293.35795526008735
0.0055                    -0.0095                  293.3440957716592
0.0055                    -0.0085                  293.3230425317058
0.0055                    -0.0075                  293.3164322278765
0.0055                    -0.0065                  293.31451423504
0.0055                    -0.0055                  293.3142918299064
0.0055                    -0.0045                  293.3243218843979
0.0055                    -0.0035                  293.3270036174317
0.0055                    -0.0025                  293.3349325510506
0.0055                    -0.0015                  293.33548592157206
0.0055                    -5.0E-4                  293.339968435588
0.0055                    5.0E-4                   293.34559730530304
0.0055                    0.0015                   293.3774135041604
0.0055                    0.0025                   293.9240121745629
0.0055                    0.0035                   294.8124257310953
0.0055                    0.0045                   294.89074753952633
0.0055                    0.0055                   294.9520454263138
0.0055                    0.0065                   295.0036738658483
0.0055                    0.0075                   295.0511607989872
0.0055                    0.0085                   295.0957261229
0.0055                    0.0095                   295.13724423839477
0.0055                    0.0105                   295.1768449054134
0.0055                    0.0115                   295.2120581542946
0.0055                    0.0125                   295.246982534186
0.0055                    0.0135                   295.27695726061427
0.0055                    0.0145                   295.30630293503344
0.0055                    0.0155                   295.3329537973499
0.0055                    0.0165                   295.3590428908649
0.0055                    0.0175                   295.38142190316967
0.0055                    0.0185                   295.40225623193595
0.0055                    0.0195                   295.4221814132902
0.0055                    0.0205                   295.4391875716286
0.0055                    0.0215                   295.4556827276197
0.0055                    0.0225                   295.4694114625937
0.0055                    0.0235                   295.48186584801795
0.0055                    0.0245                   295.49376759383904
0.0055                    0.0255                   295.50492892273763
0.0055                    0.0265                   295.51141414597424
0.0055                    0.0275                   295.51789936921085
0.0055                    0.0285                   295.5246312902236
0.0055                    0.0295                   295.52843680263055
0.0055                    0.0305                   295.53048763007143
0.0055                    0.0315                   295.5327542360926
0.0065                    -0.0315                  294.0560573259315
0.0065                    -0.0305                  294.053914255809
0.0065                    -0.0295                  294.0489561825118
0.0065                    -0.0285                  294.04260447685414
0.0065                    -0.0275                  293.63552620571477
0.0065                    -0.0265                  293.2270847644794
0.0065                    -0.0255                  293.16589271517034
0.0065                    -0.0245                  293.15550577159405
0.0065                    -0.0235                  293.1543819403162
0.0065                    -0.0225                  293.1540576392679
0.0065                    -0.0215                  293.1543155884135
0.0065                    -0.0205                  293.160897342228
0.0065                    -0.0195                  293.1964382288909
0.0065                    -0.0185                  293.27988295060277
0.0065                    -0.0175                  293.3346729101509
0.0065                    -0.0165                  293.3659352449614
0.0065                    -0.0155                  293.34482734683866
0.0065                    -0.0145                  293.3078043282135
0.0065                    -0.0135                  293.27378305302926
0.0065                    -0.0125                  293.26036806976185
0.0065                    -0.0115                  293.2628687083439
0.0065                    -0.0105                  293.2641550133336
0.0065                    -0.0095                  293.2664122514443
0.0065                    -0.0085                  293.2699187399974
0.0065                    -0.0075                  293.2773325367312
0.0065                    -0.0065                  293.2802437485241
0.0065                    -0.0055                  293.28313897587896
0.0065                    -0.0045                  293.2846754130463
0.0065                    -0.0035                  293.2954368097202
0.0065                    -0.0025                  293.296480195447
0.0065                    -0.0015                  293.3020107421282
0.0065                    -5.0E-4                  293.30641975035275
0.0065                    5.0E-4                   293.31370382213777
0.0065                    0.0015                   293.3253352716315
0.0065                    0.0025                   293.3727751289512
0.0065                    0.0035                   293.7943046485485
0.0065                    0.0045                   294.3258797931797
0.0065                    0.0055                   294.9631220083303
0.0065                    0.0065                   295.00948612778916
0.0065                    0.0075                   295.0571243412893
0.0065                    0.0085                   295.10310724020735
0.0065                    0.0095                   295.14494971888087
0.0065                    0.0105                   295.18344622902816
0.0065                    0.0115                   295.2195724771111