% Model:              模型结构导入comsolBench.mph
% Version:            COMSOL 6.2.0.339
% Date:               May 12 2026, 14:09
% Dimension:          2
% Nodes:              4096
% Expressions:        1
% Description:        温度
% Length unit:        m
% x                       y                        T (K)
5.0E-4                    -0.0315                  300.45170772358483
5.0E-4                    -0.0305                  300.4522713480658
5.0E-4                    -0.0295                  300.45281200976706
5.0E-4                    -0.0285                  300.4533526714684
5.0E-4                    -0.0275                  300.45440457607015
5.0E-4                    -0.0265                  300.45658295438045
5.0E-4                    -0.0255                  300.4588038663041
5.0E-4                    -0.0245                  300.4610247782277
5.0E-4                    -0.0235                  300.46327643148135
5.0E-4                    -0.0225                  300.46590097061267
5.0E-4                    -0.0215                  300.4686246811534
5.0E-4                    -0.0205                  300.47134839169405
5.0E-4                    -0.0195                  300.47410254763724
5.0E-4                    -0.0185                  300.4768664701022
5.0E-4                    -0.0175                  300.4790464033782
5.0E-4                    -0.0165                  300.4812263366543
5.0E-4                    -0.0155                  300.4834033042123
5.0E-4                    -0.0145                  300.48491086734583
5.0E-4                    -0.0135                  300.4857130374082
5.0E-4                    -0.0125                  300.4865152074704
5.0E-4                    -0.0115                  300.48698515116854
5.0E-4                    -0.0105                  300.48594693386997
5.0E-4                    -0.0095                  300.48490871657145
5.0E-4                    -0.0085                  300.483308969001
5.0E-4                    -0.0075                  300.4801985539005
5.0E-4                    -0.0065                  300.4768783312095
5.0E-4                    -0.0055                  300.47242754728643
5.0E-4                    -0.0045                  300.46735892734347
5.0E-4                    -0.0035                  300.4615853361548
5.0E-4                    -0.0025                  300.4554945215461
5.0E-4                    -0.0015                  300.44958010243107
5.0E-4                    -5.0E-4                  299.4309534546394
5.0E-4                    5.0E-4                   297.3333688143187
5.0E-4                    0.0015                   295.5406715820954
5.0E-4                    0.0025                   294.56746144504297
5.0E-4                    0.0035                   294.1861767749614
5.0E-4                    0.0045                   294.06324126812285
5.0E-4                    0.0055                   294.0077453907734
5.0E-4                    0.0065                   293.97636081508324
5.0E-4                    0.0075                   293.9549723705679
5.0E-4                    0.0085                   293.93921122582464
5.0E-4                    0.0095                   293.9216324373639
5.0E-4                    0.0105                   293.8906795933664
5.0E-4                    0.0115                   293.84910842699276
5.0E-4                    0.0125                   293.80000871299194
5.0E-4                    0.0135                   293.77845663213293
5.0E-4                    0.0145                   293.7698517879423
5.0E-4                    0.0155                   293.77344480657405
5.0E-4                    0.0165                   293.7830199572709
5.0E-4                    0.0175                   293.7943935126779
5.0E-4                    0.0185                   293.7925407295095
5.0E-4                    0.0195                   293.5945507441662
5.0E-4                    0.0205                   293.1589150449003
5.0E-4                    0.0215                   293.1503129314844
5.0E-4                    0.0225                   293.15028213785354
5.0E-4                    0.0235                   293.1502849991833
5.0E-4                    0.0245                   293.1502988171349
5.0E-4                    0.0255                   293.15034520611846
5.0E-4                    0.0265                   293.15050716261885
5.0E-4                    0.0275                   293.23251174529724
5.0E-4                    0.0285                   293.50172829790785
5.0E-4                    0.0295                   293.5079724620168
5.0E-4                    0.0305                   293.51165297506265
5.0E-4                    0.0315                   293.5130836344164
0.0015                    -0.0315                  300.4487981477342
0.0015                    -0.0305                  300.4500903182825
0.0015                    -0.0295                  300.4506998683228
0.0015                    -0.0285                  300.4512405300241
0.0015                    -0.0275                  300.4528135037889
0.0015                    -0.0265                  300.4546008413681
0.0015                    -0.0255                  300.4568217532917
0.0015                    -0.0245                  300.4590607829665
0.0015                    -0.0235                  300.46135880570546
0.0015                    -0.0225                  300.4638015886869
0.0015                    -0.0215                  300.4665252992276
0.0015                    -0.0205                  300.4692490097683
0.0015                    -0.0195                  300.4723908339754
0.0015                    -0.0185                  300.47569657610086
0.0015                    -0.0175                  300.4778765093769
0.0015                    -0.0165                  300.48005644265294
0.0015                    -0.0155                  300.48221632985565
0.0015                    -0.0145                  300.484082109977
0.0015                    -0.0135                  300.4852066395156
0.0015                    -0.0125                  300.48595154573684
0.0015                    -0.0115                  300.48625729668964
0.0015                    -0.0105                  300.4857592175739
0.0015                    -0.0095                  300.4845239378417
0.0015                    -0.0085                  300.48289219573604
0.0015                    -0.0075                  300.4802161185073
0.0015                    -0.0065                  300.47639066761883
0.0015                    -0.0055                  300.4723834039353
0.0015                    -0.0045                  300.46695327966665
0.0015                    -0.0035                  300.4608750835398
0.0015                    -0.0025                  300.4543777081199
0.0015                    -0.0015                  300.4474456080935
0.0015                    -5.0E-4                  299.15235566467584
0.0015                    5.0E-4                   296.6889411177419
0.0015                    0.0015                   294.9725946071468
0.0015                    0.0025                   294.27151686878574
0.0015                    0.0035                   294.079253111077
0.0015                    0.0045                   294.0178770305681
0.0015                    0.0055                   293.9980650029109
0.0015                    0.0065                   293.9962199634246
0.0015                    0.0075                   294.0070041007512
0.0015                    0.0085                   294.0223036216149
0.0015                    0.0095                   294.0020516856836
0.0015                    0.0105                   293.92512923824466
0.0015                    0.0115                   293.7960254067562
0.0015                    0.0125                   293.7221028900218
0.0015                    0.0135                   293.6718748971359
0.0015                    0.0145                   293.6504980901135
0.0015                    0.0155                   293.65837418052024
0.0015                    0.0165                   293.6771465103724
0.0015                    0.0175                   293.7057331561924
0.0015                    0.0185                   293.69927178006554
0.0015                    0.0195                   293.4606586819307
0.0015                    0.0205                   293.15607408119797
0.0015                    0.0215                   293.1506463126225
0.0015                    0.0225                   293.15079732028653
0.0015                    0.0235                   293.1507965398175
0.0015                    0.0245                   293.15085295050704
0.0015                    0.0255                   293.1510117013755
0.0015                    0.0265                   293.1523974069155
0.0015                    0.0275                   293.2699585876171
0.0015                    0.0285                   293.5059711484524
0.0015                    0.0295                   293.50981802329017
0.0015                    0.0305                   293.51240278416867
0.0015                    0.0315                   293.51356792172066
0.0025                    -0.0315                  300.44588857188353
0.0025                    -0.0305                  300.4471807424318
0.0025                    -0.0295                  300.44847291298015
0.0025                    -0.0285                  300.449638277481
0.0025                    -0.0275                  300.4512224315077
0.0025                    -0.0265                  300.4528065855344
0.0025                    -0.0255                  300.45484513445166
0.0025                    -0.0245                  300.45714315719067
0.0025                    -0.0235                  300.4594411799296
0.0025                    -0.0225                  300.46173920266864
0.0025                    -0.0215                  300.46442591730175
0.0025                    -0.0205                  300.46736187177453
0.0025                    -0.0195                  300.47067912031366
0.0025                    -0.0185                  300.4739963688528
0.0025                    -0.0175                  300.47670661537563
0.0025                    -0.0165                  300.4788701417113
0.0025                    -0.0155                  300.4810293554989
0.0025                    -0.0145                  300.48289897692644
0.0025                    -0.0135                  300.48464886958385
0.0025                    -0.0125                  300.4851644215191
0.0025                    -0.0115                  300.485470172472
0.0025                    -0.0105                  300.48556772794
0.0025                    -0.0095                  300.48394205528643
0.0025                    -0.0085                  300.4823257581321
0.0025                    -0.0075                  300.4798463983577
0.0025                    -0.0065                  300.476120420956
0.0025                    -0.0055                  300.471721864272
0.0025                    -0.0045                  300.46650253850066
0.0025                    -0.0035                  300.45986595162077
0.0025                    -0.0025                  300.4524629663587
0.0025                    -0.0015                  300.44386997241327
0.0025                    -5.0E-4                  298.7231271035588
0.0025                    5.0E-4                   295.891120626655
0.0025                    0.0015                   294.46542042845044
0.0025                    0.0025                   294.1225799543909
0.0025                    0.0035                   294.04172016356034
0.0025                    0.0045                   294.0281538006592
0.0025                    0.0055                   294.0429040874534
0.0025                    0.0065                   294.07644231668644
0.0025                    0.0075                   294.12351646827835
0.0025                    0.0085                   294.1425305279276
0.0025                    0.0095                   294.08750217240913
0.0025                    0.0105                   293.92891345229737
0.0025                    0.0115                   293.74333418261153
0.0025                    0.0125                   293.63995325493283
0.0025                    0.0135                   293.57794288160653
0.0025                    0.0145                   293.5682931513164
0.0025                    0.0155                   293.5766502731855
0.0025                    0.0165                   293.5969551332568
0.0025                    0.0175                   293.63594530616126
0.0025                    0.0185                   293.64497932757365
0.0025                    0.0195                   293.3783502861275
0.0025                    0.0205                   293.1531249331142
0.0025                    0.0215                   293.1507028674596
0.0025                    0.0225                   293.15125048028284
0.0025                    0.0235                   293.15134349036555
0.0025                    0.0245                   293.1514279292903
0.0025                    0.0255                   293.1516697804821
0.0025                    0.0265                   293.15967814733284
0.0025                    0.0275                   293.30366902795214
0.0025                    0.0285                   293.50873647134483
0.0025                    0.0295                   293.5114608202467
0.0025                    0.0305                   293.5136783296703
0.0025                    0.0315                   293.51457426159936
0.0035                    -0.0315                  300.4429789960328
0.0035                    -0.0305                  300.44397253934727
0.0035                    -0.0295                  300.4439033936014
0.0035                    -0.0285                  300.44471882534936
0.0035                    -0.0275                  300.4466009127126
0.0035                    -0.0265                  300.44848300007595
0.0035                    -0.0255                  300.45107309732447
0.0035                    -0.0245                  300.45435428177746
0.0035                    -0.0235                  300.45752355415385
0.0035                    -0.0225                  300.45982157689286
0.0035                    -0.0215                  300.4623329095736
0.0035                    -0.0205                  300.46565015811274
0.0035                    -0.0195                  300.46879529642376
0.0035                    -0.0185                  300.4714399250371
0.0035                    -0.0175                  300.47457286689445
0.0035                    -0.0165                  300.47703986327775
0.0035                    -0.0155                  300.4790906722544
0.0035                    -0.0145                  300.4808835993411
0.0035                    -0.0135                  300.4826852891337
0.0035                    -0.0125                  300.48388210690973
0.0035                    -0.0115                  300.48417057756836
0.0035                    -0.0105                  300.48442607475704
0.0035                    -0.0095                  300.4834373417818
0.0035                    -0.0085                  300.4817526263711
0.0035                    -0.0075                  300.479319188328
0.0035                    -0.0065                  300.4758060396442
0.0035                    -0.0055                  300.47117457320917
0.0035                    -0.0045                  300.4657333339964
0.0035                    -0.0035                  300.45882378097235
0.0035                    -0.0025                  300.45053935860636
0.0035                    -0.0015                  300.439468576243
0.0035                    -5.0E-4                  298.31779296692076
0.0035                    5.0E-4                   295.29803882919396
0.0035                    0.0015                   294.26738541481745
0.0035                    0.0025                   294.0874671828744
0.0035                    0.0035                   294.05599661817894
0.0035                    0.0045                   294.0587194239208
0.0035                    0.0055                   294.0886892558872
0.0035                    0.0065                   294.14364312964204
0.0035                    0.0075                   294.1888049713025
0.0035                    0.0085                   294.2030599868484
0.0035                    0.0095                   294.14599249603015
0.0035                    0.0105                   293.8839237808644
0.0035                    0.0115                   293.6922206039484
0.0035                    0.0125                   293.5699074805798
0.0035                    0.0135                   293.54586490480307
0.0035                    0.0145                   293.54425160387353
0.0035                    0.0155                   293.55343404011046
0.0035                    0.0165                   293.5642478838529
0.0035                    0.0175                   293.6041325541195
0.0035                    0.0185                   293.5649245547496
0.0035                    0.0195                   293.31394913496086
0.0035                    0.0205                   293.16560039688056
0.0035                    0.0215                   293.14991152835654
0.0035                    0.0225                   293.15191154923093
0.0035                    0.0235                   293.15187203682126
0.0035                    0.0245                   293.1520545422606
0.0035                    0.0255                   293.1535522897658
0.0035                    0.0265                   293.17121250253444
0.0035                    0.0275                   293.33033072336644
0.0035                    0.0285                   293.510577515613
0.0035                    0.0295                   293.51295699591765
0.0035                    0.0305                   293.51481818316705
0.0035                    0.0315                   293.5156587993509
0.0045                    -0.0315                  300.4379483121758
0.0045                    -0.0305                  300.4382067631503
0.0045                    -0.0295                  300.43813761740444
0.0045                    -0.0285                  300.43857293356723
0.0045                    -0.0275                  300.4404550209305
0.0045                    -0.0265                  300.4427118654402
0.0045                    -0.0255                  300.44517369462284
0.0045                    -0.0245                  300.4483808190517
0.0045                    -0.0235                  300.4516620035047
0.0045                    -0.0225                  300.4548501955468
0.0045                    -0.0215                  300.45838956194797
0.0045                    -0.0205                  300.46131774292627
0.0045                    -0.0195                  300.46396237153965
0.0045                    -0.0185                  300.466607000153
0.0045                    -0.0175                  300.47043903379017
0.0045                    -0.0165                  300.47366571961993
0.0045                    -0.0155                  300.47668113445314
0.0045                    -0.0145                  300.47864324441286
0.0045                    -0.0135                  300.4805605893561
0.0045                    -0.0125                  300.4820624384169
0.0045                    -0.0115                  300.48276295149145
0.0045                    -0.0105                  300.48299955177026
0.0045                    -0.0095                  300.48225898521326
0.0045                    -0.0085                  300.48100307664276
0.0045                    -0.0075                  300.47861557153556
0.0045                    -0.0065                  300.47527510804633
0.0045                    -0.0055                  300.47085718019156
0.0045                    -0.0045                  300.46532994830204
0.0045                    -0.0035                  300.4581428919063
0.0045                    -0.0025                  300.44905566992014
0.0045                    -0.0015                  299.4991514086838
0.0045                    -5.0E-4                  297.0771483791853
0.0045                    5.0E-4                   294.9165315079554
0.0045                    0.0015                   294.26064399491645
0.0045                    0.0025                   294.0928776060293
0.0045                    0.0035                   294.07128752755744
0.0045                    0.0045                   294.08780112094206
0.0045                    0.0055                   294.11914293388196
0.0045                    0.0065                   294.1694377065111
0.0045                    0.0075                   294.203437281148
0.0045                    0.0085                   294.2105321306737
0.0045                    0.0095                   294.1351526189558
0.0045                    0.0105                   293.8834078324374
0.0045                    0.0115                   293.6311048451896
0.0045                    0.0125                   293.5342885788642
0.0045                    0.0135                   293.5360724795038
0.0045                    0.0145                   293.54712298477665
0.0045                    0.0155                   293.5533043430097
0.0045                    0.0165                   293.5645985315349
0.0045                    0.0175                   293.57493826657407
0.0045                    0.0185                   293.4973273976969
0.0045                    0.0195                   293.2456917920979
0.0045                    0.0205                   293.16123232751653
0.0045                    0.0215                   293.151824524652
0.0045                    0.0225                   293.15213057229545
0.0045                    0.0235                   293.15248242349696
0.0045                    0.0245                   293.1529377706581
0.0045                    0.0255                   293.15644759761636
0.0045                    0.0265                   293.1950235930324
0.0045                    0.0275                   293.38266685389476
0.0045                    0.0285                   293.511459095311
0.0045                    0.0295                   293.51378450501005
0.0045                    0.0305                   293.5158319762618
0.0045                    0.0315                   293.5167537890569
0.0055                    -0.0315                  300.42895951090287
0.0055                    -0.0305                  300.4307467277264
0.0055                    -0.0295                  300.43237184120744
0.0055                    -0.0285                  300.432427041785
0.0055                    -0.0275                  300.4345528470642
0.0055                    -0.0265                  300.43701467624686
0.0055                    -0.0255                  300.4394765054295
0.0055                    -0.0245                  300.44240735632593
0.0055                    -0.0235                  300.44529518866705
0.0055                    -0.0225                  300.44804667587846
0.0055                    -0.0215                  300.4520399765887
0.0055                    -0.0205                  300.4564848180422
0.0055                    -0.0195                  300.45912944665554
0.0055                    -0.0185                  300.46215034849797
0.0055                    -0.0175                  300.4661823839545
0.0055                    -0.0165                  300.4697431575122
0.0055                    -0.0155                  300.4728448163922
0.0055                    -0.0145                  300.4756994812138
0.0055                    -0.0135                  300.47804578114807
0.0055                    -0.0125                  300.4796154932325
0.0055                    -0.0115                  300.48100118156697
0.0055                    -0.0105                  300.48142389605675
0.0055                    -0.0095                  300.4812580089409
0.0055                    -0.0085                  300.4801140688685
0.0055                    -0.0075                  300.47802173053367
0.0055                    -0.0065                  300.4749670729402
0.0055                    -0.0055                  300.4707323658289
0.0055                    -0.0045                  300.46528096689576
0.0055                    -0.0035                  300.14891832707855
0.0055                    -0.0025                  299.5152614365504
0.0055                    -0.0015                  298.0250113764088
0.0055                    -5.0E-4                  296.17079813975704
0.0055                    5.0E-4                   294.78109038731554
0.0055                    0.0015                   294.2432381916796
0.0055                    0.0025                   294.12310005011005
0.0055                    0.0035                   294.09682112919427
0.0055                    0.0045                   294.1057604444804
0.0055                    0.0055                   294.13332905197296
0.0055                    0.0065                   294.1612553471209
0.0055                    0.0075                   294.18995783160074
0.0055                    0.0085                   294.19604207595563
0.0055                    0.0095                   294.1179292845614
0.0055                    0.0105                   293.8792966427266
0.0055                    0.0115                   293.5870055242903
0.0055                    0.0125                   293.5265182051038
0.0055                    0.0135                   293.53753760983017
0.0055                    0.0145                   293.55321510199786
0.0055                    0.0155                   293.56195404325473
0.0055                    0.0165                   293.56423505299836
0.0055                    0.0175                   293.5482919497663
0.0055                    0.0185                   293.3983698965238
0.0055                    0.0195                   293.20338550150444
0.0055                    0.0205                   293.15680420783366
0.0055                    0.0215                   293.15232794571267
0.0055                    0.0225                   293.15278180675097
0.0055                    0.0235                   293.1531052553585
0.0055                    0.0245                   293.154629184769
0.0055                    0.0255                   293.1667610658377
0.0055                    0.0265                   293.2540283555043
0.0055                    0.0275                   293.5049038411655
0.0055                    0.0285                   293.51091846504903
0.0055                    0.0295                   293.51442576941844
0.0055                    0.0305                   293.5168868621102
0.0055                    0.0315                   293.51796946228194
0.0065                    -0.0315                  300.4199707096299
0.0065                    -0.0305                  300.42175792645344
0.0065                    -0.0295                  300.4235451432769
0.0065                    -0.0285                  300.424425404275
0.0065                    -0.0275                  300.42710153057516
0.0065                    -0.0265                  300.42927569170854
0.0065                    -0.0255                  300.43144985284204
0.0065                    -0.0245                  300.4351341625355
0.0065                    -0.0235                  300.4384916689987
0.0065                    -0.0225                  300.44124315621013
0.0065                    -0.0215                  300.44569039122933
0.0065                    -0.0205                  300.4502317021353
0.0065                    -0.0195                  300.4542965217714
0.0065                    -0.0185                  300.45789369866225
0.0065                    -0.0175                  300.46192573411884
0.0065                    -0.0165                  300.4658111021689
0.0065                    -0.0155                  300.46906369675384
0.0065                    -0.0145                  300.4723138604405
0.0065                    -0.0135                  300.4748288185827
0.0065                    -0.0125                  300.4770899767158
0.0065                    -0.0115                  300.4786620824936
0.0065                    -0.0105                  300.479657867494
0.0065                    -0.0095                  300.47979043275984
0.0065                    -0.0085                  300.4791361813668
0.0065                    -0.0075                  300.4774690324026
0.0065                    -0.0065                  300.47465795808614
0.0065                    -0.0055                  300.2626344344077
0.0065                    -0.0045                  299.8636344155739
0.0065                    -0.0035                  299.12450933680117
0.0065                    -0.0025                  298.17655281943496
0.0065                    -0.0015                  296.9971795431992
0.0065                    -5.0E-4                  295.67827346734964
0.0065                    5.0E-4                   294.724750524263
0.0065                    0.0015                   294.286672747598
0.0065                    0.0025                   294.1587816375868
0.0065                    0.0035                   294.1283538057221
0.0065                    0.0045                   294.1254450798508
0.0065                    0.0055                   294.1395270115051
0.0065                    0.0065                   294.15886872434317
0.0065                    0.0075                   294.17887862183704
0.0065                    0.0085                   294.1987476529944
0.0065                    0.0095                   294.14858655854925
0.0065                    0.0105                   293.9255578276735