% Model:              模型结构导入comsolBench.mph
% Version:            COMSOL 6.2.0.339
% Date:               May 12 2026, 14:14
% Dimension:          2
% Nodes:              4096
% Expressions:        1
% Description:        温度
% Length unit:        m
% x                       y                        T (K)
5.0E-4                    -0.0315                  296.3541474165391
5.0E-4                    -0.0305                  296.35247500928045
5.0E-4                    -0.0295                  296.35080253320046
5.0E-4                    -0.0285                  296.34913005712053
5.0E-4                    -0.0275                  296.34637968345305
5.0E-4                    -0.0265                  296.3413106052851
5.0E-4                    -0.0255                  296.3362415271172
5.0E-4                    -0.0245                  296.3311724489493
5.0E-4                    -0.0235                  296.3252958221506
5.0E-4                    -0.0225                  296.31664963084864
5.0E-4                    -0.0215                  296.3078484076546
5.0E-4                    -0.0205                  296.2990471844605
5.0E-4                    -0.0195                  296.2884183376395
5.0E-4                    -0.0185                  296.2761560798749
5.0E-4                    -0.0175                  296.26381366704493
5.0E-4                    -0.0165                  296.24951010995835
5.0E-4                    -0.0155                  296.2341895377263
5.0E-4                    -0.0145                  296.2173363688669
5.0E-4                    -0.0135                  296.1994735369847
5.0E-4                    -0.0125                  296.1814028710003
5.0E-4                    -0.0115                  296.16490774278
5.0E-4                    -0.0105                  296.15373120841696
5.0E-4                    -0.0095                  295.7865857640453
5.0E-4                    -0.0085                  295.0605670205338
5.0E-4                    -0.0075                  294.1233575492169
5.0E-4                    -0.0065                  293.58584219690675
5.0E-4                    -0.0055                  293.4335615599982
5.0E-4                    -0.0045                  293.37463043496933
5.0E-4                    -0.0035                  293.3473182281191
5.0E-4                    -0.0025                  293.3313707944476
5.0E-4                    -0.0015                  293.3199518987058
5.0E-4                    -5.0E-4                  293.31107378595783
5.0E-4                    5.0E-4                   293.30364091577655
5.0E-4                    0.0015                   293.2971150438322
5.0E-4                    0.0025                   293.29137239697747
5.0E-4                    0.0035                   293.28610680222005
5.0E-4                    0.0045                   293.2811353452302
5.0E-4                    0.0055                   293.2759146291196
5.0E-4                    0.0065                   293.2703000711198
5.0E-4                    0.0075                   293.2667616365219
5.0E-4                    0.0085                   293.26587313130835
5.0E-4                    0.0095                   293.2668190636236
5.0E-4                    0.0105                   293.2689334080882
5.0E-4                    0.0115                   293.2721046332764
5.0E-4                    0.0125                   293.2763495211867
5.0E-4                    0.0135                   293.2821068262723
5.0E-4                    0.0145                   293.289368785363
5.0E-4                    0.0155                   293.2597502995384
5.0E-4                    0.0165                   293.153271298908
5.0E-4                    0.0175                   293.15028923709224
5.0E-4                    0.0185                   293.1502384022653
5.0E-4                    0.0195                   293.1502369060448
5.0E-4                    0.0205                   293.1501095366903
5.0E-4                    0.0215                   293.14967037742855
5.0E-4                    0.0225                   293.1517981600557
5.0E-4                    0.0235                   293.23703695359194
5.0E-4                    0.0245                   293.3905620903136
5.0E-4                    0.0255                   293.41716804454074
5.0E-4                    0.0265                   293.44094317056204
5.0E-4                    0.0275                   293.46364642411413
5.0E-4                    0.0285                   293.47832691816586
5.0E-4                    0.0295                   293.4912160507979
5.0E-4                    0.0305                   293.49633994292174
5.0E-4                    0.0315                   293.50047884571393
0.0015                    -0.0315                  296.3535622172186
0.0015                    -0.0305                  296.35265218344756
0.0015                    -0.0295                  296.35097991383174
0.0015                    -0.0285                  296.3488182413332
0.0015                    -0.0275                  296.34586951547726
0.0015                    -0.0265                  296.3414818611198
0.0015                    -0.0255                  296.3364029631444
0.0015                    -0.0245                  296.3309980342149
0.0015                    -0.0235                  296.32468910018486
0.0015                    -0.0225                  296.3169611346269
0.0015                    -0.0215                  296.3081599114328
0.0015                    -0.0205                  296.2988307119302
0.0015                    -0.0195                  296.28881425025247
0.0015                    -0.0185                  296.27672694357227
0.0015                    -0.0175                  296.26353838635305
0.0015                    -0.0165                  296.2500425791642
0.0015                    -0.0155                  296.234257772731
0.0015                    -0.0145                  296.21749967151607
0.0015                    -0.0135                  296.1990157933173
0.0015                    -0.0125                  296.1787530844191
0.0015                    -0.0115                  296.15918971670845
0.0015                    -0.0105                  296.1416948119105
0.0015                    -0.0095                  295.25857591650595
0.0015                    -0.0085                  294.067946615753
0.0015                    -0.0075                  293.5567825975179
0.0015                    -0.0065                  293.4124392013141
0.0015                    -0.0055                  293.35678298997794
0.0015                    -0.0045                  293.3354564929412
0.0015                    -0.0035                  293.32470696424434
0.0015                    -0.0025                  293.31738330370166
0.0015                    -0.0015                  293.3127907024873
0.0015                    -5.0E-4                  293.3093201813647
0.0015                    5.0E-4                   293.3058350919911
0.0015                    0.0015                   293.3049543853904
0.0015                    0.0025                   293.304202813593
0.0015                    0.0035                   293.2997545303541
0.0015                    0.0045                   293.2950418712211
0.0015                    0.0055                   293.28445394053557
0.0015                    0.0065                   293.27219767078077
0.0015                    0.0075                   293.2592964370148
0.0015                    0.0085                   293.257968676514
0.0015                    0.0095                   293.2592361217882
0.0015                    0.0105                   293.26145687801875
0.0015                    0.0115                   293.26494003396465
0.0015                    0.0125                   293.2676429258053
0.0015                    0.0135                   293.2709004627883
0.0015                    0.0145                   293.2748496816578
0.0015                    0.0155                   293.2453106014007
0.0015                    0.0165                   293.15114260840454
0.0015                    0.0175                   293.1507706330374
0.0015                    0.0185                   293.15067137447534
0.0015                    0.0195                   293.15066510492477
0.0015                    0.0205                   293.1504901222785
0.0015                    0.0215                   293.1502408494212
0.0015                    0.0225                   293.1570833069745
0.0015                    0.0235                   293.27201704246266
0.0015                    0.0245                   293.42536447703515
0.0015                    0.0255                   293.4399619563438
0.0015                    0.0265                   293.4566687863711
0.0015                    0.0275                   293.4712250959973
0.0015                    0.0285                   293.4845928436147
0.0015                    0.0295                   293.4934396780454
0.0015                    0.0305                   293.49994370492914
0.0015                    0.0315                   293.50364072801153
0.0025                    -0.0315                  296.35297701789807
0.0025                    -0.0305                  296.352066984127
0.0025                    -0.0295                  296.3510414709421
0.0025                    -0.0285                  296.3480909722296
0.0025                    -0.0275                  296.3451404735172
0.0025                    -0.0265                  296.34156815333836
0.0025                    -0.0255                  296.3361632244088
0.0025                    -0.0245                  296.3307582954793
0.0025                    -0.0235                  296.32408237821915
0.0025                    -0.0225                  296.3168516094711
0.0025                    -0.0215                  296.3084546998244
0.0025                    -0.0205                  296.2984382381467
0.0025                    -0.0195                  296.288421776469
0.0025                    -0.0185                  296.27685417401597
0.0025                    -0.0175                  296.263727387886
0.0025                    -0.0165                  296.250600601756
0.0025                    -0.0155                  296.2353394909088
0.0025                    -0.0145                  296.21864227995235
0.0025                    -0.0135                  296.19911071979044
0.0025                    -0.0125                  296.1760516695826
0.0025                    -0.0115                  296.14916185568126
0.0025                    -0.0105                  296.11828498597504
0.0025                    -0.0095                  294.78648838175997
0.0025                    -0.0085                  293.5201663161291
0.0025                    -0.0075                  293.371150304863
0.0025                    -0.0065                  293.3464866985101
0.0025                    -0.0055                  293.3362264763341
0.0025                    -0.0045                  293.33152498594677
0.0025                    -0.0035                  293.33143668234936
0.0025                    -0.0025                  293.331129349918
0.0025                    -0.0015                  293.33643129096464
0.0025                    -5.0E-4                  293.343014875875
0.0025                    5.0E-4                   293.3485703063484
0.0025                    0.0015                   293.35920294463
0.0025                    0.0025                   293.36461091295973
0.0025                    0.0035                   293.359539345362
0.0025                    0.0045                   293.34123666009486
0.0025                    0.0055                   293.3185900670542
0.0025                    0.0065                   293.28928685117216
0.0025                    0.0075                   293.2619782606431
0.0025                    0.0085                   293.25472402726035
0.0025                    0.0095                   293.2564101092894
0.0025                    0.0105                   293.26195326131034
0.0025                    0.0115                   293.26768573515255
0.0025                    0.0125                   293.2703327772893
0.0025                    0.0135                   293.2718869817926
0.0025                    0.0145                   293.2728861355176
0.0025                    0.0155                   293.2403350683622
0.0025                    0.0165                   293.1587972967169
0.0025                    0.0175                   293.151316961461
0.0025                    0.0185                   293.1511302715012
0.0025                    0.0195                   293.1510343620053
0.0025                    0.0205                   293.15097974774955
0.0025                    0.0215                   293.1527083408439
0.0025                    0.0225                   293.16811398347437
0.0025                    0.0235                   293.2990501182717
0.0025                    0.0245                   293.4502167368944
0.0025                    0.0255                   293.4600171126397
0.0025                    0.0265                   293.4711732189063
0.0025                    0.0275                   293.4822828380634
0.0025                    0.0285                   293.49218876826893
0.0025                    0.0295                   293.499887357515
0.0025                    0.0305                   293.50407495121334
0.0025                    0.0315                   293.5068026103092
0.0035                    -0.0315                  296.35239181857753
0.0035                    -0.0305                  296.351322413619
0.0035                    -0.0295                  296.3501119566132
0.0035                    -0.0285                  296.34744968779637
0.0035                    -0.0275                  296.34449918908393
0.0035                    -0.0265                  296.3409587799144
0.0035                    -0.0255                  296.33577377773327
0.0035                    -0.0245                  296.3305185567438
0.0035                    -0.0235                  296.3235023278364
0.0035                    -0.0225                  296.3163409981504
0.0035                    -0.0215                  296.30840628226065
0.0035                    -0.0205                  296.2985373768816
0.0035                    -0.0195                  296.2886250400634
0.0035                    -0.0185                  296.27754953585884
0.0035                    -0.0175                  296.26501166423145
0.0035                    -0.0165                  296.2518159742602
0.0035                    -0.0155                  296.23603957073544
0.0035                    -0.0145                  296.2201782538506
0.0035                    -0.0135                  296.2009484128067
0.0035                    -0.0125                  296.17706884998137
0.0035                    -0.0115                  296.1428103857486
0.0035                    -0.0105                  296.0827122636362
0.0035                    -0.0095                  294.6083188909138
0.0035                    -0.0085                  293.3529688743232
0.0035                    -0.0075                  293.35229559246216
0.0035                    -0.0065                  293.34486025892875
0.0035                    -0.0055                  293.34667265267433
0.0035                    -0.0045                  293.34941552856014
0.0035                    -0.0035                  293.36512399222704
0.0035                    -0.0025                  293.3839025012534
0.0035                    -0.0015                  293.39655056407787
0.0035                    -5.0E-4                  293.42443153834057
0.0035                    5.0E-4                   293.4433843165148
0.0035                    0.0015                   293.46127567537724
0.0035                    0.0025                   293.4701532583939
0.0035                    0.0035                   293.45798296298824
0.0035                    0.0045                   293.435096143908
0.0035                    0.0055                   293.3726833053044
0.0035                    0.0065                   293.32397708243445
0.0035                    0.0075                   293.2721493391296
0.0035                    0.0085                   293.2518141410299
0.0035                    0.0095                   293.25360238643765
0.0035                    0.0105                   293.2608029240247
0.0035                    0.0115                   293.27319109503907
0.0035                    0.0125                   293.2780889602469
0.0035                    0.0135                   293.2762340879724
0.0035                    0.0145                   293.2737917135369
0.0035                    0.0155                   293.2276520351422
0.0035                    0.0165                   293.1645381692941
0.0035                    0.0175                   293.15191974143255
0.0035                    0.0185                   293.1514277087189
0.0035                    0.0195                   293.15141948680844
0.0035                    0.0205                   293.15131733459816
0.0035                    0.0215                   293.15372306499347
0.0035                    0.0225                   293.1742736922314
0.0035                    0.0235                   293.3203631604912
0.0035                    0.0245                   293.4699080716366
0.0035                    0.0255                   293.47707453835415
0.0035                    0.0265                   293.4855520099296
0.0035                    0.0275                   293.4944330992747
0.0035                    0.0285                   293.50065327748223
0.0035                    0.0295                   293.50774147304526
0.0035                    0.0305                   293.51118378248464
0.0035                    0.0315                   293.513092842049
0.0045                    -0.0315                  296.3515110035102
0.0045                    -0.0305                  296.35031727476667
0.0045                    -0.0295                  296.3491068177609
0.0045                    -0.0285                  296.3468084033631
0.0045                    -0.0275                  296.3435396318353
0.0045                    -0.0265                  296.3399016236815
0.0045                    -0.0255                  296.3351678751849
0.0045                    -0.0245                  296.3296929511754
0.0045                    -0.0235                  296.32326053744106
0.0045                    -0.0225                  296.31594601202903
0.0045                    -0.0215                  296.3079508043973
0.0045                    -0.0205                  296.29890018462163
0.0045                    -0.0195                  296.2886151800428
0.0045                    -0.0185                  296.2778782081839
0.0045                    -0.0175                  296.2654928060957
0.0045                    -0.0165                  296.2531218915186
0.0045                    -0.0155                  296.23853078063996
0.0045                    -0.0145                  296.2230917828201
0.0045                    -0.0135                  296.2056762865752
0.0045                    -0.0125                  296.1858775243269
0.0045                    -0.0115                  295.8118219093138
0.0045                    -0.0105                  294.8905349582344
0.0045                    -0.0095                  293.5681889863978
0.0045                    -0.0085                  293.3399511827346
0.0045                    -0.0075                  293.3548645033944
0.0045                    -0.0065                  293.3575661722319
0.0045                    -0.0055                  293.37220894048517
0.0045                    -0.0045                  293.3944328661855
0.0045                    -0.0035                  293.41516150710726
0.0045                    -0.0025                  293.44686286083663
0.0045                    -0.0015                  293.4873604292327
0.0045                    -5.0E-4                  293.52801018035285
0.0045                    5.0E-4                   293.56041906844433
0.0045                    0.0015                   293.5784519017615
0.0045                    0.0025                   293.58232004676796
0.0045                    0.0035                   293.5648994400568
0.0045                    0.0045                   293.540237283602
0.0045                    0.0055                   293.4744729647561
0.0045                    0.0065                   293.36983697474136
0.0045                    0.0075                   293.2957401211907
0.0045                    0.0085                   293.2559597497135
0.0045                    0.0095                   293.2498782957585
0.0045                    0.0105                   293.2569073129993
0.0045                    0.0115                   293.2719633748591
0.0045                    0.0125                   293.28262503389055
0.0045                    0.0135                   293.27969527104966
0.0045                    0.0145                   293.2691502925003
0.0045                    0.0155                   293.21565378572126
0.0045                    0.0165                   293.16680192894114
0.0045                    0.0175                   293.15324459098474
0.0045                    0.0185                   293.1515020200069
0.0045                    0.0195                   293.15176030596575
0.0045                    0.0205                   293.1521155505261
0.0045                    0.0215                   293.15518290194257
0.0045                    0.0225                   293.17523754484904
0.0045                    0.0235                   293.33156250546716
0.0045                    0.0245                   293.48614091897554
0.0045                    0.0255                   293.49218326408743
0.0045                    0.0265                   293.49870110026563
0.0045                    0.0275                   293.5052100714477
0.0045                    0.0285                   293.5106432247901
0.0045                    0.0295                   293.5160763781324
0.0045                    0.0305                   293.5185415788393
0.0045                    0.0315                   293.5206285959578
0.0055                    -0.0315                  296.35000127079513
0.0055                    -0.0305                  296.3490665877509
0.0055                    -0.0295                  296.3481016789085
0.0055                    -0.0285                  296.34612048375624
0.0055                    -0.0275                  296.34248247560237
0.0055                    -0.0265                  296.3388444674485
0.0055                    -0.0255                  296.33444549062625
0.0055                    -0.0245                  296.32878182175307
0.0055                    -0.0235                  296.3229098162987
0.0055                    -0.0225                  296.3154581734762
0.0055                    -0.0215                  296.30749791017934
0.0055                    -0.0205                  296.2987280294195
0.0055                    -0.0195                  296.28881759614114
0.0055                    -0.0185                  296.2781698864504
0.0055                    -0.0175                  296.2666551527503
0.0055                    -0.0165                  296.25446256987055
0.0055                    -0.0155                  296.2411488248512
0.0055                    -0.0145                  296.22708221886467
0.0055                    -0.0135                  296.2120673952929
0.0055                    -0.0125                  295.55254603225023
0.0055                    -0.0115                  294.4034466050781
0.0055                    -0.0105                  293.62133094939463
0.0055                    -0.0095                  293.36223908579643
0.0055                    -0.0085                  293.35951590109414
0.0055                    -0.0075                  293.3698418910454
0.0055                    -0.0065                  293.3837670671142
0.0055                    -0.0055                  293.40801392013117
0.0055                    -0.0045                  293.4383904041206
0.0055                    -0.0035                  293.4740702448624
0.0055                    -0.0025                  293.51673031976117
0.0055                    -0.0015                  293.5673857468876
0.0055                    -5.0E-4                  293.58712231475886
0.0055                    5.0E-4                   293.6075783091991
0.0055                    0.0015                   293.6136558683359
0.0055                    0.0025                   293.62993313980735
0.0055                    0.0035                   293.63660330998135
0.0055                    0.0045                   293.62192643076787
0.0055                    0.0055                   293.57281184033786
0.0055                    0.0065                   293.47768589659916
0.0055                    0.0075                   293.35520838427
0.0055                    0.0085                   293.274727436152
0.0055                    0.0095                   293.2462659387715
0.0055                    0.0105                   293.24756819440046
0.0055                    0.0115                   293.26131221228934
0.0055                    0.0125                   293.2794768648478
0.0055                    0.0135                   293.27721041756047
0.0055                    0.0145                   293.2640792764893
0.0055                    0.0155                   293.2092665721739
0.0055                    0.0165                   293.1611140782412
0.0055                    0.0175                   293.15338414180553
0.0055                    0.0185                   293.1519976880754
0.0055                    0.0195                   293.1520739158606
0.0055                    0.0205                   293.15287089205884
0.0055                    0.0215                   293.1578854491962
0.0055                    0.0225                   293.18151114818806
0.0055                    0.0235                   293.3382965352163
0.0055                    0.0245                   293.50036416681775
0.0055                    0.0255                   293.5056307654756
0.0055                    0.0265                   293.51096575231037
0.0055                    0.0275                   293.5159114922822
0.0055                    0.0285                   293.521066932366
0.0055                    0.0295                   293.5247004981907
0.0055                    0.0305                   293.5266027144356
0.0055                    0.0315                   293.52816434986664
0.0065                    -0.0315                  296.34849153808
0.0065                    -0.0305                  296.3475568550358
0.0065                    -0.0295                  296.3465729687693
0.0065                    -0.0285                  296.34477353267164
0.0065                    -0.0275                  296.3412906568949
0.0065                    -0.0265                  296.3376338740825
0.0065                    -0.0255                  296.3334125396731
0.0065                    -0.0245                  296.32792267430005
0.0065                    -0.0235                  296.3218222334468
0.0065                    -0.0225                  296.3149370423522
0.0065                    -0.0215                  296.3070297621124
0.0065                    -0.0205                  296.29838290028056
0.0065                    -0.0195                  296.28884783509324
0.0065                    -0.0185                  296.2783324460952
0.0065                    -0.0175                  296.2674272083824
0.0065                    -0.0165                  296.2558130224836
0.0065                    -0.0155                  296.24377473467143
0.0065                    -0.0145                  296.2311399120473
0.0065                    -0.0135                  295.4705905655379
0.0065                    -0.0125                  294.20398201617127
0.0065                    -0.0115                  293.5647720677232
0.0065                    -0.0105                  293.38750710160036
0.0065                    -0.0095                  293.3675160125591
0.0065                    -0.0085                  293.37775204550906
0.0065                    -0.0075                  293.39282542879835
0.0065                    -0.0065                  293.4183637444244
0.0065                    -0.0055                  293.4497401980558
0.0065                    -0.0045                  293.48280119373925
0.0065                    -0.0035                  293.52047962960916
0.0065                    -0.0025                  293.5581573443917
0.0065                    -0.0015                  293.58435781558785
0.0065                    -5.0E-4                  293.6003941309689
0.0065                    5.0E-4                   293.61052199023936
0.0065                    0.0015                   293.61973947702114
0.0065                    0.0025                   293.6259010578658
0.0065                    0.0035                   293.63120216509446
0.0065                    0.0045                   293.634477505237
0.0065                    0.0055                   293.6372394648599
0.0065                    0.0065                   293.5740839159374
0.0065                    0.0075                   293.4518017755976
0.0065                    0.0085                   293.3258078091394
0.0065                    0.0095                   293.25786883568975
0.0065                    0.0105                   293.234972496693
0.0065                    0.0115                   293.24056007782576