% Model:              模型结构导入comsolBench.mph
% Version:            COMSOL 6.2.0.339
% Date:               May 12 2026, 14:18
% Dimension:          2
% Nodes:              4096
% Expressions:        1
% Description:        温度
% Length unit:        m
% x                       y                        T (K)
5.0E-4                    -0.0315                  294.3486059979946
5.0E-4                    -0.0305                  294.3381692806075
5.0E-4                    -0.0295                  294.3277325632203
5.0E-4                    -0.0285                  294.3077709040487
5.0E-4                    -0.0275                  294.28110557335935
5.0E-4                    -0.0265                  294.2401900033327
5.0E-4                    -0.0255                  294.1813421281557
5.0E-4                    -0.0245                  294.11186641548414
5.0E-4                    -0.0235                  294.0426303591322
5.0E-4                    -0.0225                  293.474120225366
5.0E-4                    -0.0215                  293.1661195358005
5.0E-4                    -0.0205                  293.1536322634974
5.0E-4                    -0.0195                  293.1493752788632
5.0E-4                    -0.0185                  293.1485672398277
5.0E-4                    -0.0175                  293.1499412744765
5.0E-4                    -0.0165                  293.1581358333169
5.0E-4                    -0.0155                  293.98919607402416
5.0E-4                    -0.0145                  294.5342370757188
5.0E-4                    -0.0135                  294.5844643560828
5.0E-4                    -0.0125                  294.71319388883904
5.0E-4                    -0.0115                  294.91997472361567
5.0E-4                    -0.0105                  295.1509976762585
5.0E-4                    -0.0095                  295.31711424635307
5.0E-4                    -0.0085                  295.32313513522195
5.0E-4                    -0.0075                  295.3230085544341
5.0E-4                    -0.0065                  295.3232123022183
5.0E-4                    -0.0055                  295.3237973580063
5.0E-4                    -0.0045                  295.32481297271784
5.0E-4                    -0.0035                  295.3261927458923
5.0E-4                    -0.0025                  295.3282958085723
5.0E-4                    -0.0015                  295.33079859676667
5.0E-4                    -5.0E-4                  295.3334436664035
5.0E-4                    5.0E-4                   295.33752022945964
5.0E-4                    0.0015                   295.34159679251576
5.0E-4                    0.0025                   295.3457462976395
5.0E-4                    0.0035                   295.35099166113054
5.0E-4                    0.0045                   295.35664833970884
5.0E-4                    0.0055                   295.3623050182872
5.0E-4                    0.0065                   295.3681273226945
5.0E-4                    0.0075                   295.3747156958426
5.0E-4                    0.0085                   295.3813754685069
5.0E-4                    0.0095                   295.3880352411712
5.0E-4                    0.0105                   295.39469501383553
5.0E-4                    0.0115                   295.4018299022716
5.0E-4                    0.0125                   295.40878876110673
5.0E-4                    0.0135                   295.41574761994195
5.0E-4                    0.0145                   295.4227064787771
5.0E-4                    0.0155                   295.42965466631927
5.0E-4                    0.0165                   295.43599469758533
5.0E-4                    0.0175                   295.44233472885134
5.0E-4                    0.0185                   295.44867476011734
5.0E-4                    0.0195                   295.4548885465774
5.0E-4                    0.0205                   295.46006351198946
5.0E-4                    0.0215                   295.46512627466086
5.0E-4                    0.0225                   295.47018903733215
5.0E-4                    0.0235                   295.47499453010255
5.0E-4                    0.0245                   295.4785872915466
5.0E-4                    0.0255                   295.4818146352551
5.0E-4                    0.0265                   295.4850419789636
5.0E-4                    0.0275                   295.48825710812156
5.0E-4                    0.0285                   295.4900784530921
5.0E-4                    0.0295                   295.4912196637214
5.0E-4                    0.0305                   295.49236087435077
5.0E-4                    0.0315                   295.49350208498015
0.0015                    -0.0315                  294.35803419591366
0.0015                    -0.0305                  294.3495175339382
0.0015                    -0.0295                  294.3367457623755
0.0015                    -0.0285                  294.317221802286
0.0015                    -0.0275                  294.29313993153426
0.0015                    -0.0265                  294.26015413012163
0.0015                    -0.0255                  294.21972855493624
0.0015                    -0.0245                  294.17540280189064
0.0015                    -0.0235                  294.13607261296323
0.0015                    -0.0225                  293.665061819445
0.0015                    -0.0215                  293.2016366214453
0.0015                    -0.0205                  293.1554953165375
0.0015                    -0.0195                  293.15096110023035
0.0015                    -0.0185                  293.149363159808
0.0015                    -0.0175                  293.14973001045786
0.0015                    -0.0165                  293.1476557932825
0.0015                    -0.0155                  293.59987724472785
0.0015                    -0.0145                  294.004661530074
0.0015                    -0.0135                  294.09382462491845
0.0015                    -0.0125                  294.2068634293438
0.0015                    -0.0115                  294.4602658656264
0.0015                    -0.0105                  294.8423478544243
0.0015                    -0.0095                  295.1883045799023
0.0015                    -0.0085                  295.32210220104804
0.0015                    -0.0075                  295.3217338695728
0.0015                    -0.0065                  295.32184990534586
0.0015                    -0.0055                  295.32235149024797
0.0015                    -0.0045                  295.3236340351168
0.0015                    -0.0035                  295.3250915655263
0.0015                    -0.0025                  295.3268122605698
0.0015                    -0.0015                  295.32924417744334
0.0015                    -5.0E-4                  295.3319684600467
0.0015                    5.0E-4                   295.33525298945256
0.0015                    0.0015                   295.3393401647545
0.0015                    0.0025                   295.3436655023246
0.0015                    0.0035                   295.348305299406
0.0015                    0.0045                   295.3539619779842
0.0015                    0.0055                   295.35961865656253
0.0015                    0.0065                   295.36598241049285
0.0015                    0.0075                   295.3724749909815
0.0015                    0.0085                   295.3791347636458
0.0015                    0.0095                   295.38579453631013
0.0015                    0.0105                   295.3928600472857
0.0015                    0.0115                   295.4001296185991
0.0015                    0.0125                   295.4071133979065
0.0015                    0.0135                   295.41407225674175
0.0015                    0.0145                   295.4210901426884
0.0015                    0.0155                   295.42815413369294
0.0015                    0.0165                   295.4348113148401
0.0015                    0.0175                   295.4411513461061
0.0015                    0.0185                   295.44742683874495
0.0015                    0.0195                   295.45353788632195
0.0015                    0.0205                   295.4593273573158
0.0015                    0.0215                   295.46439011998706
0.0015                    0.0225                   295.4693308937519
0.0015                    0.0235                   295.4736832791639
0.0015                    0.0245                   295.47791097133916
0.0015                    0.0255                   295.4811383150477
0.0015                    0.0265                   295.48436565875613
0.0015                    0.0275                   295.4871123697292
0.0015                    0.0285                   295.4895214855161
0.0015                    0.0295                   295.49074719982946
0.0015                    0.0305                   295.49188841045884
0.0015                    0.0315                   295.4924299197654
0.0025                    -0.0315                  294.367440753352
0.0025                    -0.0305                  294.36018697236665
0.0025                    -0.0295                  294.35242160405306
0.0025                    -0.0285                  294.33700061715814
0.0025                    -0.0275                  294.3158612799604
0.0025                    -0.0265                  294.29041840395564
0.0025                    -0.0255                  294.26109319279954
0.0025                    -0.0245                  294.2310914761477
0.0025                    -0.0235                  294.2059686473316
0.0025                    -0.0225                  293.7743496783646
0.0025                    -0.0215                  293.2891686214091
0.0025                    -0.0205                  293.16229999986285
0.0025                    -0.0195                  293.1524156648602
0.0025                    -0.0185                  293.1504552995553
0.0025                    -0.0175                  293.14966960305367
0.0025                    -0.0165                  293.16132263737336
0.0025                    -0.0155                  293.36540578352293
0.0025                    -0.0145                  293.7667988888078
0.0025                    -0.0135                  293.83891429304794
0.0025                    -0.0125                  293.8940674906446
0.0025                    -0.0115                  294.0546525873727
0.0025                    -0.0105                  294.32022484133853
0.0025                    -0.0095                  294.81721903433595
0.0025                    -0.0085                  295.2312445327876
0.0025                    -0.0075                  295.31879782831265
0.0025                    -0.0065                  295.3189767176505
0.0025                    -0.0055                  295.31962537533826
0.0025                    -0.0045                  295.32019138477324
0.0025                    -0.0035                  295.32130624729865
0.0025                    -0.0025                  295.3234681112832
0.0025                    -0.0015                  295.3258906768378
0.0025                    -5.0E-4                  295.32951976855674
0.0025                    5.0E-4                   295.3331488602756
0.0025                    0.0015                   295.33725936943955
0.0025                    0.0025                   295.34158470700953
0.0025                    0.0035                   295.3459100445795
0.0025                    0.0045                   295.3512756162596
0.0025                    0.0055                   295.3573610500348
0.0025                    0.0065                   295.3638374982912
0.0025                    0.0075                   295.3703139465477
0.0025                    0.0085                   295.3768940587847
0.0025                    0.0095                   295.3837652152514
0.0025                    0.0105                   295.3910347865648
0.0025                    0.0115                   295.3983043578782
0.0025                    0.0125                   295.4054380347064
0.0025                    0.0135                   295.41243115864387
0.0025                    0.0145                   295.4194951496484
0.0025                    0.0155                   295.426559140653
0.0025                    0.0165                   295.43362313165755
0.0025                    0.0175                   295.4399651309126
0.0025                    0.0185                   295.44607617848953
0.0025                    0.0195                   295.4521872260665
0.0025                    0.0205                   295.4582982736435
0.0025                    0.0215                   295.4636539653133
0.0025                    0.0225                   295.4680196428132
0.0025                    0.0235                   295.4723720282252
0.0025                    0.0245                   295.47672441363727
0.0025                    0.0255                   295.4804619948402
0.0025                    0.0265                   295.4835585155498
0.0025                    0.0275                   295.48596763133673
0.0025                    0.0285                   295.48837674712365
0.0025                    0.0295                   295.4902747359375
0.0025                    0.0305                   295.49083462998374
0.0025                    0.0315                   295.4913485621808
0.0035                    -0.0315                  294.38179689784903
0.0035                    -0.0305                  294.3785962508593
0.0035                    -0.0295                  294.3741243287886
0.0035                    -0.0285                  294.35844586341256
0.0035                    -0.0275                  294.3440781538342
0.0035                    -0.0265                  294.32359582691436
0.0035                    -0.0255                  294.30309247200796
0.0035                    -0.0245                  294.2821010013801
0.0035                    -0.0235                  294.2634427723494
0.0035                    -0.0225                  293.8606037350696
0.0035                    -0.0215                  293.3601136397599
0.0035                    -0.0205                  293.18744469788294
0.0035                    -0.0195                  293.15757303201735
0.0035                    -0.0185                  293.15207185394365
0.0035                    -0.0175                  293.15067808417444
0.0035                    -0.0165                  293.1559739299152
0.0035                    -0.0155                  293.27549222026164
0.0035                    -0.0145                  293.5307762077045
0.0035                    -0.0135                  293.7254528897106
0.0035                    -0.0125                  293.74981645563724
0.0035                    -0.0115                  293.8235575453747
0.0035                    -0.0105                  293.95295899043344
0.0035                    -0.0095                  294.2931878245421
0.0035                    -0.0085                  294.8815291339542
0.0035                    -0.0075                  295.31448138804836
0.0035                    -0.0065                  295.31504045393694
0.0035                    -0.0055                  295.3152822356318
0.0035                    -0.0045                  295.31598304918697
0.0035                    -0.0035                  295.3171267863144
0.0035                    -0.0025                  295.31887855275534
0.0035                    -0.0015                  295.3206801372695
0.0035                    -5.0E-4                  295.3243092289884
0.0035                    5.0E-4                   295.32758663368486
0.0035                    0.0015                   295.3321789257422
0.0035                    0.0025                   295.33779761026733
0.0035                    0.0035                   295.3434162947924
0.0035                    0.0045                   295.3487396895768
0.0035                    0.0055                   295.35521613783317
0.0035                    0.0065                   295.36169258608965
0.0035                    0.0075                   295.36816903434607
0.0035                    0.0085                   295.37467038321705
0.0035                    0.0095                   295.3818576593483
0.0035                    0.0105                   295.38899483512597
0.0035                    0.0115                   295.3961320109036
0.0035                    0.0125                   295.4033581382128
0.0035                    0.0135                   295.4104472162954
0.0035                    0.0145                   295.41742574592575
0.0035                    0.0155                   295.4244042755562
0.0035                    0.0165                   295.43138280518656
0.0035                    0.0175                   295.4381003622198
0.0035                    0.0185                   295.44411009667715
0.0035                    0.0195                   295.45011983113454
0.0035                    0.0205                   295.4561295655919
0.0035                    0.0215                   295.46179540547877
0.0035                    0.0225                   295.4663559861867
0.0035                    0.0235                   295.47091656689463
0.0035                    0.0245                   295.4754131626986
0.0035                    0.0255                   295.47976554811066
0.0035                    0.0265                   295.4824137771574
0.0035                    0.0275                   295.48458061243605
0.0035                    0.0285                   295.4867414745816
0.0035                    0.0295                   295.4885697495845
0.0035                    0.0305                   295.48963970958334
0.0035                    0.0315                   295.49026720459625
0.0045                    -0.0315                  294.40379803958206
0.0045                    -0.0305                  294.3985704922479
0.0045                    -0.0295                  294.3938048823623
0.0045                    -0.0285                  294.38202199634287
0.0045                    -0.0275                  294.37108992809766
0.0045                    -0.0265                  294.35900371792184
0.0045                    -0.0255                  294.34220117829364
0.0045                    -0.0245                  294.3292739338036
0.0045                    -0.0235                  294.3188622343796
0.0045                    -0.0225                  293.96555077486084
0.0045                    -0.0215                  293.4267194726768
0.0045                    -0.0205                  293.22978397924373
0.0045                    -0.0195                  293.1639776243526
0.0045                    -0.0185                  293.1539035112601
0.0045                    -0.0175                  293.15188451303146
0.0045                    -0.0165                  293.1553710030604
0.0045                    -0.0155                  293.19860906936105
0.0045                    -0.0145                  293.3872741548684
0.0045                    -0.0135                  293.5668033939414
0.0045                    -0.0125                  293.6957116779856
0.0045                    -0.0115                  293.72486115808783
0.0045                    -0.0105                  293.77205479623336
0.0045                    -0.0095                  293.8904122489988
0.0045                    -0.0085                  294.24457109293996
0.0045                    -0.0075                  294.89560810341436
0.0045                    -0.0065                  295.31026919283465
0.0045                    -0.0055                  295.3098286819512
0.0045                    -0.0045                  295.30998375352675
0.0045                    -0.0035                  295.3106665391123
0.0045                    -0.0025                  295.3129950009751
0.0045                    -0.0015                  295.315742216125
0.0045                    -5.0E-4                  295.31876648286215
0.0045                    5.0E-4                   295.321923643536
0.0045                    0.0015                   295.32593610798517
0.0045                    0.0025                   295.3315547925103
0.0045                    0.0035                   295.3363494800978
0.0045                    0.0045                   295.3420866912618
0.0045                    0.0055                   295.3485147644787
0.0045                    0.0065                   295.3548537549025
0.0045                    0.0075                   295.36119274532626
0.0045                    0.0085                   295.36827928653565
0.0045                    0.0095                   295.3756277313596
0.0045                    0.0105                   295.3827649071372
0.0045                    0.0115                   295.3899020829148
0.0045                    0.0125                   295.3978496322044
0.0045                    0.0135                   295.4060644020026
0.0045                    0.0145                   295.413042931633
0.0045                    0.0155                   295.42002146126345
0.0045                    0.0165                   295.4271716843076
0.0045                    0.0175                   295.4346096759075
0.0045                    0.0185                   295.4408931139129
0.0045                    0.0195                   295.44690284837026
0.0045                    0.0205                   295.4528880293735
0.0045                    0.0215                   295.45882695132707
0.0045                    0.0225                   295.46367132170974
0.0045                    0.0235                   295.4682319024177
0.0045                    0.0245                   295.47279248312566
0.0045                    0.0255                   295.47703634791196
0.0045                    0.0265                   295.4801501493388
0.0045                    0.0275                   295.4824389568666
0.0045                    0.0285                   295.48459981901215
0.0045                    0.0295                   295.4863161540701
0.0045                    0.0305                   295.48738611406895
0.0045                    0.0315                   295.48842802336577
0.0055                    -0.0315                  294.425867707022
0.0055                    -0.0305                  294.4206401596878
0.0055                    -0.0295                  294.4177583193984
0.0055                    -0.0285                  294.4113046922013
0.0055                    -0.0275                  294.4018054024506
0.0055                    -0.0265                  294.3900126162164
0.0055                    -0.0255                  294.38038470401335
0.0055                    -0.0245                  294.37154854976757
0.0055                    -0.0235                  294.36926048017204
0.0055                    -0.0225                  294.10868351180886
0.0055                    -0.0215                  293.5505315581425
0.0055                    -0.0205                  293.28466942538006
0.0055                    -0.0195                  293.1841995216374
0.0055                    -0.0185                  293.15902628443484
0.0055                    -0.0175                  293.15359126023
0.0055                    -0.0165                  293.1531889043954
0.0055                    -0.0155                  293.1861821297099
0.0055                    -0.0145                  293.3047944449419
0.0055                    -0.0135                  293.431065245353
0.0055                    -0.0125                  293.5824185673261
0.0055                    -0.0115                  293.69836311623715
0.0055                    -0.0105                  293.7028847101276
0.0055                    -0.0095                  293.7514599049173
0.0055                    -0.0085                  293.8688227157404
0.0055                    -0.0075                  294.2215136984416
0.0055                    -0.0065                  294.9090986081733
0.0055                    -0.0055                  295.3029430935012
0.0055                    -0.0045                  295.30195921313174
0.0055                    -0.0035                  295.3029188511631
0.0055                    -0.0025                  295.3047919268194
0.0055                    -0.0015                  295.30682411546206
0.0055                    -5.0E-4                  295.3102566176839
0.0055                    5.0E-4                   295.3144532496901
0.0055                    0.0015                   295.31886138311825
0.0055                    0.0025                   295.3236999115149
0.0055                    0.0035                   295.32834024443724
0.0055                    0.0045                   295.33470829577493
0.0055                    0.0055                   295.34134334788286
0.0055                    0.0065                   295.34768233830664
0.0055                    0.0075                   295.35418302846386
0.0055                    0.0085                   295.36181709606046
0.0055                    0.0095                   295.3693978033707
0.0055                    0.0105                   295.37653497914835
0.0055                    0.0115                   295.38376321823625
0.0055                    0.0125                   295.392341126196
0.0055                    0.0135                   295.4009190341557
0.0055                    0.0145                   295.4086601173403
0.0055                    0.0155                   295.41564971619135
0.0055                    0.0165                   295.42308770779124
0.0055                    0.0175                   295.4305256993911
0.0055                    0.0185                   295.4376761311487
0.0055                    0.0195                   295.443685865606
0.0055                    0.0205                   295.4496259366125
0.0055                    0.0215                   295.45556485856616
0.0055                    0.0225                   295.46098665723275
0.0055                    0.0235                   295.46551040808424
0.0055                    0.0245                   295.46969381780673
0.0055                    0.0255                   295.4738772275292
0.0055                    0.0265                   295.47690307793556
0.0055                    0.0275                   295.4799200213162
0.0055                    0.0285                   295.48245816344263
0.0055                    0.0295                   295.4840625585557
0.0055                    0.0305                   295.48488395735126
0.0055                    0.0315                   295.485457225216
0.0065                    -0.0315                  294.4489014592895
0.0065                    -0.0305                  294.44634339154936
0.0065                    -0.0295                  294.44378532380915
0.0065                    -0.0285                  294.4381697943412
0.0065                    -0.0275                  294.4297484249745
0.0065                    -0.0265                  294.42300385253816
0.0065                    -0.0255                  294.414559619987
0.0065                    -0.0245                  294.4088152257982
0.0065                    -0.0235                  294.4057412915576
0.0065                    -0.0225                  294.4039129531849
0.0065                    -0.0215                  293.83496301909105
0.0065                    -0.0205                  293.37342147408265
0.0065                    -0.0195                  293.22515245607053
0.0065                    -0.0185                  293.1749857067923
0.0065                    -0.0175                  293.15579375842253
0.0065                    -0.0165                  293.1529015010727
0.0065                    -0.0155                  293.17529799539915
0.0065                    -0.0145                  293.2335185051777
0.0065                    -0.0135                  293.33449785764157
0.0065                    -0.0125                  293.4524924933084
0.0065                    -0.0115                  293.59704073236196
0.0065                    -0.0105                  293.65686093195063
0.0065                    -0.0095                  293.6608220790728
0.0065                    -0.0085                  293.70258105254254
0.0065                    -0.0075                  293.8401067556947
0.0065                    -0.0065                  294.24119392369505
0.0065                    -0.0055                  295.0862562054796
0.0065                    -0.0045                  295.29066756691884
0.0065                    -0.0035                  295.29285285478335
0.0065                    -0.0025                  295.295383713344
0.0065                    -0.0015                  295.29800989130376
0.0065                    -5.0E-4                  295.3011485131499
0.0065                    5.0E-4                   295.30495425793583
0.0065                    0.0015                   295.30915258153806
0.0065                    0.0025                   295.31522010465795
0.0065                    0.0035                   295.3206502319041
0.0065                    0.0045                   295.3273299002882
0.0065                    0.0055                   295.3340095686723
0.0065                    0.0065                   295.3405109217108
0.0065                    0.0075                   295.34772083798873
0.0065                    0.0085                   295.3553549055854
0.0065                    0.0095                   295.36298897318204
0.0065                    0.0105                   295.37030505115956