% Model:              模型结构导入comsolBench.mph
% Version:            COMSOL 6.2.0.339
% Date:               May 12 2026, 14:12
% Dimension:          2
% Nodes:              4096
% Expressions:        1
% Description:        温度
% Length unit:        m
% x                       y                        T (K)
5.0E-4                    -0.0315                  293.7619748874888
5.0E-4                    -0.0305                  293.87587434974125
5.0E-4                    -0.0295                  293.8734080874695
5.0E-4                    -0.0285                  293.78839693754503
5.0E-4                    -0.0275                  293.1825532057346
5.0E-4                    -0.0265                  293.15152452547045
5.0E-4                    -0.0255                  293.1510695110569
5.0E-4                    -0.0245                  293.15092802314064
5.0E-4                    -0.0235                  293.150907517803
5.0E-4                    -0.0225                  293.1509483431122
5.0E-4                    -0.0215                  293.15120363834296
5.0E-4                    -0.0205                  293.1698738010567
5.0E-4                    -0.0195                  293.8372406676685
5.0E-4                    -0.0185                  293.9580647778417
5.0E-4                    -0.0175                  293.92827077224223
5.0E-4                    -0.0165                  293.8999947133163
5.0E-4                    -0.0155                  293.87474018580684
5.0E-4                    -0.0145                  293.85192403344604
5.0E-4                    -0.0135                  293.83046660313016
5.0E-4                    -0.0125                  293.8108581703259
5.0E-4                    -0.0115                  293.79430133947716
5.0E-4                    -0.0105                  293.77933932554384
5.0E-4                    -0.0095                  293.76523250851426
5.0E-4                    -0.0085                  293.75294426665
5.0E-4                    -0.0075                  293.7418510572826
5.0E-4                    -0.0065                  293.73257096783675
5.0E-4                    -0.0055                  293.72579105310456
5.0E-4                    -0.0045                  293.7188571273099
5.0E-4                    -0.0035                  293.7148112188589
5.0E-4                    -0.0025                  293.7159076463243
5.0E-4                    -0.0015                  293.7152575807284
5.0E-4                    -5.0E-4                  293.7143592917199
5.0E-4                    5.0E-4                   293.7196484448764
5.0E-4                    0.0015                   293.7267206385692
5.0E-4                    0.0025                   293.73367301603827
5.0E-4                    0.0035                   293.745103693509
5.0E-4                    0.0045                   293.7618909688008
5.0E-4                    0.0055                   293.7833615583356
5.0E-4                    0.0065                   293.81070893309135
5.0E-4                    0.0075                   293.84294540071494
5.0E-4                    0.0085                   293.8833729447427
5.0E-4                    0.0095                   293.9397873292439
5.0E-4                    0.0105                   294.0225999712729
5.0E-4                    0.0115                   294.16220176649426
5.0E-4                    0.0125                   294.45138846324625
5.0E-4                    0.0135                   295.0123413866966
5.0E-4                    0.0145                   295.75853664130597
5.0E-4                    0.0155                   296.35255977900755
5.0E-4                    0.0165                   296.67401619864285
5.0E-4                    0.0175                   296.8692518810686
5.0E-4                    0.0185                   297.0066239093861
5.0E-4                    0.0195                   297.0238929465065
5.0E-4                    0.0205                   297.0252316932165
5.0E-4                    0.0215                   297.02750590982504
5.0E-4                    0.0225                   297.0302505742418
5.0E-4                    0.0235                   297.0331294010033
5.0E-4                    0.0245                   297.03590425987875
5.0E-4                    0.0255                   297.03854185023806
5.0E-4                    0.0265                   297.0407766345725
5.0E-4                    0.0275                   297.04269444131944
5.0E-4                    0.0285                   297.04441876479177
5.0E-4                    0.0295                   297.04534685277497
5.0E-4                    0.0305                   297.046146765984
5.0E-4                    0.0315                   297.04692015100227
0.0015                    -0.0315                  293.75956752864585
0.0015                    -0.0305                  293.7569700390711
0.0015                    -0.0295                  293.7107873254237
0.0015                    -0.0285                  293.6750772119997
0.0015                    -0.0275                  293.23311729601994
0.0015                    -0.0265                  293.15361988773
0.0015                    -0.0255                  293.1532281542583
0.0015                    -0.0245                  293.1527326350178
0.0015                    -0.0235                  293.1526483191339
0.0015                    -0.0225                  293.1528162529851
0.0015                    -0.0215                  293.1532415509508
0.0015                    -0.0205                  293.1812952560565
0.0015                    -0.0195                  293.71865935287906
0.0015                    -0.0185                  293.8665432063971
0.0015                    -0.0175                  293.84449438101785
0.0015                    -0.0165                  293.8212823436585
0.0015                    -0.0155                  293.79910718583943
0.0015                    -0.0145                  293.774529263995
0.0015                    -0.0135                  293.7540998175293
0.0015                    -0.0125                  293.73488426131564
0.0015                    -0.0115                  293.7147959162608
0.0015                    -0.0105                  293.6946198647658
0.0015                    -0.0095                  293.67750482472275
0.0015                    -0.0085                  293.65660867181225
0.0015                    -0.0075                  293.6363599863941
0.0015                    -0.0065                  293.6209596663183
0.0015                    -0.0055                  293.6076709288181
0.0015                    -0.0045                  293.59680548745246
0.0015                    -0.0035                  293.58298751327266
0.0015                    -0.0025                  293.56911705592756
0.0015                    -0.0015                  293.5650602873993
0.0015                    -5.0E-4                  293.5590376597565
0.0015                    5.0E-4                   293.55380988206315
0.0015                    0.0015                   293.55434928670354
0.0015                    0.0025                   293.55959862941086
0.0015                    0.0035                   293.56424632871096
0.0015                    0.0045                   293.5747527774437
0.0015                    0.0055                   293.59291519520923
0.0015                    0.0065                   293.6117375420742
0.0015                    0.0075                   293.6399118955482
0.0015                    0.0085                   293.6791724225933
0.0015                    0.0095                   293.721272613118
0.0015                    0.0105                   293.78520056500224
0.0015                    0.0115                   293.88691457857027
0.0015                    0.0125                   294.06795044566996
0.0015                    0.0135                   294.4642100003373
0.0015                    0.0145                   295.0766813249404
0.0015                    0.0155                   295.77463163596394
0.0015                    0.0165                   296.1756440358936
0.0015                    0.0175                   296.4329522387362
0.0015                    0.0185                   296.8127960451137
0.0015                    0.0195                   297.0212894638274
0.0015                    0.0205                   297.02334715642525
0.0015                    0.0215                   297.02602847983775
0.0015                    0.0225                   297.029092796855
0.0015                    0.0235                   297.0322849788243
0.0015                    0.0245                   297.0352652296619
0.0015                    0.0255                   297.03784703304336
0.0015                    0.0265                   297.0402052904989
0.0015                    0.0275                   297.04214614349075
0.0015                    0.0285                   297.0435909885048
0.0015                    0.0295                   297.04478418432694
0.0015                    0.0305                   297.04550451296353
0.0015                    0.0315                   297.0456988861982
0.0025                    -0.0315                  293.755384437231
0.0025                    -0.0305                  293.67541930525044
0.0025                    -0.0295                  293.63358158487125
0.0025                    -0.0285                  293.5784764980832
0.0025                    -0.0275                  293.26570583515434
0.0025                    -0.0265                  293.1548261517919
0.0025                    -0.0255                  293.1551011289156
0.0025                    -0.0245                  293.1546893803852
0.0025                    -0.0235                  293.1544920394161
0.0025                    -0.0225                  293.1547965174723
0.0025                    -0.0215                  293.15498591798456
0.0025                    -0.0205                  293.18159343592833
0.0025                    -0.0195                  293.46423163475606
0.0025                    -0.0185                  293.7548300161672
0.0025                    -0.0175                  293.8135127943665
0.0025                    -0.0165                  293.78923356370103
0.0025                    -0.0155                  293.7711656343153
0.0025                    -0.0145                  293.75317351634493
0.0025                    -0.0135                  293.72642853189507
0.0025                    -0.0125                  293.6996517114151
0.0025                    -0.0115                  293.68442889375393
0.0025                    -0.0105                  293.661222189917
0.0025                    -0.0095                  293.63240805334
0.0025                    -0.0085                  293.6156361575115
0.0025                    -0.0075                  293.58792980994406
0.0025                    -0.0065                  293.5541958025398
0.0025                    -0.0055                  293.53457785342124
0.0025                    -0.0045                  293.51041422496996
0.0025                    -0.0035                  293.4860216006531
0.0025                    -0.0025                  293.4731755525855
0.0025                    -0.0015                  293.4597287200174
0.0025                    -5.0E-4                  293.4475730404837
0.0025                    5.0E-4                   293.44028155610624
0.0025                    0.0015                   293.4360785299018
0.0025                    0.0025                   293.43499669164095
0.0025                    0.0035                   293.4374878010574
0.0025                    0.0045                   293.44185725824696
0.0025                    0.0055                   293.4510781809576
0.0025                    0.0065                   293.45987368211564
0.0025                    0.0075                   293.4758583269086
0.0025                    0.0085                   293.4985990167842
0.0025                    0.0095                   293.5237229994764
0.0025                    0.0105                   293.56285257086745
0.0025                    0.0115                   293.62299815867607
0.0025                    0.0125                   293.70664083068425
0.0025                    0.0135                   293.87515746324004
0.0025                    0.0145                   294.20832199975666
0.0025                    0.0155                   294.7391615662565
0.0025                    0.0165                   295.30232228821234
0.0025                    0.0175                   295.73740766059785
0.0025                    0.0185                   296.4949016056332
0.0025                    0.0195                   297.0163334580658
0.0025                    0.0205                   297.0197879346863
0.0025                    0.0215                   297.02329576384193
0.0025                    0.0225                   297.0270696245643
0.0025                    0.0235                   297.0303904272323
0.0025                    0.0245                   297.0334619294283
0.0025                    0.0255                   297.036296457518
0.0025                    0.0265                   297.0387429784603
0.0025                    0.0275                   297.0408498510809
0.0025                    0.0285                   297.0424641807854
0.0025                    0.0295                   297.0439509656722
0.0025                    0.0305                   297.0442832481595
0.0025                    0.0315                   297.04447762139415
0.0035                    -0.0315                  293.7499052951799
0.0035                    -0.0305                  293.61271541203877
0.0035                    -0.0295                  293.59120440917474
0.0035                    -0.0285                  293.54440519860174
0.0035                    -0.0275                  293.26234744177066
0.0035                    -0.0265                  293.1642128658357
0.0035                    -0.0255                  293.1568863821369
0.0035                    -0.0245                  293.1566522495686
0.0035                    -0.0235                  293.1563386127117
0.0035                    -0.0225                  293.1567848348636
0.0035                    -0.0215                  293.15646385292257
0.0035                    -0.0205                  293.1702520704656
0.0035                    -0.0195                  293.3127211570553
0.0035                    -0.0185                  293.4800222102751
0.0035                    -0.0175                  293.6338096598632
0.0035                    -0.0165                  293.6691855404946
0.0035                    -0.0155                  293.66704979926334
0.0035                    -0.0145                  293.67541998942187
0.0035                    -0.0135                  293.6504693296513
0.0035                    -0.0125                  293.61749017478587
0.0035                    -0.0115                  293.5944609522775
0.0035                    -0.0105                  293.5654817196205
0.0035                    -0.0095                  293.54201806485196
0.0035                    -0.0085                  293.5143411176344
0.0035                    -0.0075                  293.4843496429408
0.0035                    -0.0065                  293.4537896116556
0.0035                    -0.0055                  293.43356932037955
0.0035                    -0.0045                  293.4102708416147
0.0035                    -0.0035                  293.39699588537513
0.0035                    -0.0025                  293.38520873379184
0.0035                    -0.0015                  293.3735225368394
0.0035                    -5.0E-4                  293.37182641288564
0.0035                    5.0E-4                   293.3698926764084
0.0035                    0.0015                   293.3675694073698
0.0035                    0.0025                   293.372069061327
0.0035                    0.0035                   293.3727693873929
0.0035                    0.0045                   293.37659445715065
0.0035                    0.0055                   293.379245805486
0.0035                    0.0065                   293.38999854510496
0.0035                    0.0075                   293.39948658184227
0.0035                    0.0085                   293.41502565546966
0.0035                    0.0095                   293.42525745721457
0.0035                    0.0105                   293.4525832565186
0.0035                    0.0115                   293.4840284577729
0.0035                    0.0125                   293.5149770058799
0.0035                    0.0135                   293.6117926473199
0.0035                    0.0145                   293.75250811759787
0.0035                    0.0155                   293.99746587152003
0.0035                    0.0165                   294.4290662423691
0.0035                    0.0175                   294.9683533274689
0.0035                    0.0185                   296.11023782004577
0.0035                    0.0195                   297.00943157556435
0.0035                    0.0205                   297.01483751573244
0.0035                    0.0215                   297.0196190040102
0.0035                    0.0225                   297.02397012475006
0.0035                    0.0235                   297.02782175130795
0.0035                    0.0245                   297.0313706170274
0.0035                    0.0255                   297.03443114591727
0.0035                    0.0265                   297.0368350364232
0.0035                    0.0275                   297.0390136588839
0.0035                    0.0285                   297.04055451619683
0.0035                    0.0295                   297.0417183619767
0.0035                    0.0305                   297.0424465894029
0.0035                    0.0315                   297.0431748168291
0.0045                    -0.0315                  293.7436113674606
0.0045                    -0.0305                  293.5709986830416
0.0045                    -0.0295                  293.56286482116326
0.0045                    -0.0285                  293.5002436782936
0.0045                    -0.0275                  293.24547887416446
0.0045                    -0.0265                  293.1705315714405
0.0045                    -0.0255                  293.1597417009954
0.0045                    -0.0245                  293.1587806015792
0.0045                    -0.0235                  293.15861722881743
0.0045                    -0.0225                  293.15890296809636
0.0045                    -0.0215                  293.15909742368297
0.0045                    -0.0205                  293.17328070949367
0.0045                    -0.0195                  293.2057747217012
0.0045                    -0.0185                  293.2811468610213
0.0045                    -0.0175                  293.3486687303107
0.0045                    -0.0165                  293.42791185519525
0.0045                    -0.0155                  293.4714216712983
0.0045                    -0.0145                  293.4733109401599
0.0045                    -0.0135                  293.4799989069526
0.0045                    -0.0125                  293.4762626029401
0.0045                    -0.0115                  293.4460084251372
0.0045                    -0.0105                  293.42988635358074
0.0045                    -0.0095                  293.4034819947343
0.0045                    -0.0085                  293.389265515681
0.0045                    -0.0075                  293.3586776645784
0.0045                    -0.0065                  293.35241264134595
0.0045                    -0.0055                  293.33440172674597
0.0045                    -0.0045                  293.3314875273445
0.0045                    -0.0035                  293.32321551558584
0.0045                    -0.0025                  293.32579633232734
0.0045                    -0.0015                  293.3266593936296
0.0045                    -5.0E-4                  293.3256362907309
0.0045                    5.0E-4                   293.3299313934723
0.0045                    0.0015                   293.3324338402683
0.0045                    0.0025                   293.3344798654084
0.0045                    0.0035                   293.3402371098741
0.0045                    0.0045                   293.34555518095914
0.0045                    0.0055                   293.35158482612553
0.0045                    0.0065                   293.358608753676
0.0045                    0.0075                   293.365644467077
0.0045                    0.0085                   293.3732162084498
0.0045                    0.0095                   293.38722225094193
0.0045                    0.0105                   293.39979398193714
0.0045                    0.0115                   293.41865357710464
0.0045                    0.0125                   293.4465210264066
0.0045                    0.0135                   293.4770793508842
0.0045                    0.0145                   293.53189598529843
0.0045                    0.0155                   293.650183255362
0.0045                    0.0165                   293.83950181663135
0.0045                    0.0175                   294.2572349071651
0.0045                    0.0185                   295.65608780007176
0.0045                    0.0195                   297.0015887984331
0.0045                    0.0205                   297.00951309647996
0.0045                    0.0215                   297.01519034904555
0.0045                    0.0225                   297.02026660074443
0.0045                    0.0235                   297.0248807173175
0.0045                    0.0245                   297.0284589637987
0.0045                    0.0255                   297.03184777720986
0.0045                    0.0265                   297.0344671513551
0.0045                    0.0275                   297.0365476965319
0.0045                    0.0285                   297.03816768016065
0.0045                    0.0295                   297.0394857582813
0.0045                    0.0305                   297.0400900570541
0.0045                    0.0315                   297.04032394055406
0.0055                    -0.0315                  293.73693912047645
0.0055                    -0.0305                  293.5184295806404
0.0055                    -0.0295                  293.5408365196731
0.0055                    -0.0285                  293.40427428008684
0.0055                    -0.0275                  293.2270556621697
0.0055                    -0.0265                  293.1706689010848
0.0055                    -0.0255                  293.16210115937895
0.0055                    -0.0245                  293.16084177885716
0.0055                    -0.0235                  293.1613647779027
0.0055                    -0.0225                  293.16272870657383
0.0055                    -0.0215                  293.16269584232936
0.0055                    -0.0205                  293.1654046179952
0.0055                    -0.0195                  293.17283190829386
0.0055                    -0.0185                  293.1908665562892
0.0055                    -0.0175                  293.22166019084403
0.0055                    -0.0165                  293.24787957419346
0.0055                    -0.0155                  293.2621097470258
0.0055                    -0.0145                  293.28088661002806
0.0055                    -0.0135                  293.2842480221905
0.0055                    -0.0125                  293.2847192913801
0.0055                    -0.0115                  293.2892248919917
0.0055                    -0.0105                  293.2858740634764
0.0055                    -0.0095                  293.2920817925699
0.0055                    -0.0085                  293.28223907862326
0.0055                    -0.0075                  293.28745496819295
0.0055                    -0.0065                  293.28335242440437
0.0055                    -0.0055                  293.2814758734701
0.0055                    -0.0045                  293.28566478810205
0.0055                    -0.0035                  293.2909691027496
0.0055                    -0.0025                  293.2918139846953
0.0055                    -0.0015                  293.3005601581508
0.0055                    -5.0E-4                  293.30637595574
0.0055                    5.0E-4                   293.31128296884935
0.0055                    0.0015                   293.31968230362065
0.0055                    0.0025                   293.32372116819676
0.0055                    0.0035                   293.33065117768945
0.0055                    0.0045                   293.3362359426044
0.0055                    0.0055                   293.34251684678793
0.0055                    0.0065                   293.3478127763545
0.0055                    0.0075                   293.3533672573927
0.0055                    0.0085                   293.35917506988216
0.0055                    0.0095                   293.3663475781037
0.0055                    0.0105                   293.3781552855865
0.0055                    0.0115                   293.389935887476
0.0055                    0.0125                   293.40999966353723
0.0055                    0.0135                   293.426035943657
0.0055                    0.0145                   293.46159762107516
0.0055                    0.0155                   293.5052605960363
0.0055                    0.0165                   293.5972673626766
0.0055                    0.0175                   293.81029397561315
0.0055                    0.0185                   294.4916428803212
0.0055                    0.0195                   296.303691885815
0.0055                    0.0205                   297.0036257605365
0.0055                    0.0215                   297.0103873308609
0.0055                    0.0225                   297.0162714156908
0.0055                    0.0235                   297.02125289894184
0.0055                    0.0245                   297.0254265988758
0.0055                    0.0255                   297.0287370499481
0.0055                    0.0265                   297.0314431878945
0.0055                    0.0275                   297.03348816661264
0.0055                    0.0285                   297.0350374691787
0.0055                    0.0295                   297.03618850455035
0.0055                    0.0305                   297.0367977571607
0.0055                    0.0315                   297.03703164066064
0.0065                    -0.0315                  293.73033744903734
0.0065                    -0.0305                  293.4804864489318
0.0065                    -0.0295                  293.47347701957744
0.0065                    -0.0285                  293.3081406550802
0.0065                    -0.0275                  293.2096031125773
0.0065                    -0.0265                  293.1710501660704
0.0065                    -0.0255                  293.1642432866863
0.0065                    -0.0245                  293.16287139809157
0.0065                    -0.0235                  293.16491124145057
0.0065                    -0.0225                  293.1749024310525
0.0065                    -0.0215                  293.1733405821887
0.0065                    -0.0205                  293.17124019157353
0.0065                    -0.0195                  293.1746183099091
0.0065                    -0.0185                  293.17921670449056
0.0065                    -0.0175                  293.186029190854
0.0065                    -0.0165                  293.19391049969937
0.0065                    -0.0155                  293.1983976516725
0.0065                    -0.0145                  293.20466930246107
0.0065                    -0.0135                  293.21293749440287
0.0065                    -0.0125                  293.21812866572395
0.0065                    -0.0115                  293.2229107193094
0.0065                    -0.0105                  293.2312555814896
0.0065                    -0.0095                  293.2401729687574
0.0065                    -0.0085                  293.24776317090164
0.0065                    -0.0075                  293.25528030439125
0.0065                    -0.0065                  293.2658562099842
0.0065                    -0.0055                  293.2754932553912
0.0065                    -0.0045                  293.2852896962353
0.0065                    -0.0035                  293.28780046570466
0.0065                    -0.0025                  293.29646958139915
0.0065                    -0.0015                  293.31010210801696
0.0065                    -5.0E-4                  293.3206354827073
0.0065                    5.0E-4                   293.3237146036952
0.0065                    0.0015                   293.3340937845744
0.0065                    0.0025                   293.34029151299796
0.0065                    0.0035                   293.34604245543574
0.0065                    0.0045                   293.35269591365807
0.0065                    0.0055                   293.3578958654024
0.0065                    0.0065                   293.36185942288745
0.0065                    0.0075                   293.3668863413501
0.0065                    0.0085                   293.3669699057631
0.0065                    0.0095                   293.3698045498283
0.0065                    0.0105                   293.3735519777743
0.0065                    0.0115                   293.3844383265071