% Model:              模型结构导入comsolBench.mph
% Version:            COMSOL 6.2.0.339
% Date:               May 12 2026, 14:02
% Dimension:          2
% Nodes:              4096
% Expressions:        1
% Description:        温度
% Length unit:        m
% x                       y                        T (K)
5.0E-4                    -0.0315                  298.56911359738984
5.0E-4                    -0.0305                  298.5695294019337
5.0E-4                    -0.0295                  298.5699452064776
5.0E-4                    -0.0285                  298.5714932025478
5.0E-4                    -0.0275                  298.57329100179294
5.0E-4                    -0.0265                  298.57584111514916
5.0E-4                    -0.0255                  298.57883959779457
5.0E-4                    -0.0245                  298.5823769071929
5.0E-4                    -0.0235                  298.58639801679755
5.0E-4                    -0.0225                  299.4453153002566
5.0E-4                    -0.0215                  300.88867954496277
5.0E-4                    -0.0205                  301.99918891324717
5.0E-4                    -0.0195                  302.86271787171614
5.0E-4                    -0.0185                  303.52667419577585
5.0E-4                    -0.0175                  303.98256078684943
5.0E-4                    -0.0165                  304.3058998376569
5.0E-4                    -0.0155                  304.28421326470766
5.0E-4                    -0.0145                  304.1629521796501
5.0E-4                    -0.0135                  303.47733539720474
5.0E-4                    -0.0125                  302.71759381170614
5.0E-4                    -0.0115                  301.95785222620754
5.0E-4                    -0.0105                  301.06352283050524
5.0E-4                    -0.0095                  300.4360614754916
5.0E-4                    -0.0085                  299.808600120478
5.0E-4                    -0.0075                  299.2264631210291
5.0E-4                    -0.0065                  299.004956465067
5.0E-4                    -0.0055                  298.7484324118333
5.0E-4                    -0.0045                  298.4919083585996
5.0E-4                    -0.0035                  298.2353843053658
5.0E-4                    -0.0025                  298.1283026906941
5.0E-4                    -0.0015                  297.9998478255961
5.0E-4                    -5.0E-4                  297.87139296049804
5.0E-4                    5.0E-4                   297.7429380954
5.0E-4                    0.0015                   297.68380446022076
5.0E-4                    0.0025                   297.59133829707537
5.0E-4                    0.0035                   297.4988721339299
5.0E-4                    0.0045                   297.40640597078453
5.0E-4                    0.0055                   297.3701857808333
5.0E-4                    0.0065                   297.30806558403816
5.0E-4                    0.0075                   297.2459453872431
5.0E-4                    0.0085                   297.2044022331865
5.0E-4                    0.0095                   297.1553347695353
5.0E-4                    0.0105                   297.10568271481736
5.0E-4                    0.0115                   297.05779686883875
5.0E-4                    0.0125                   297.00370780087957
5.0E-4                    0.0135                   296.96290433363504
5.0E-4                    0.0145                   296.92187278898007
5.0E-4                    0.0155                   296.8836144699682
5.0E-4                    0.0165                   296.85556462362126
5.0E-4                    0.0175                   296.82020426434894
5.0E-4                    0.0185                   296.7804198308253
5.0E-4                    0.0195                   296.7339820200974
5.0E-4                    0.0205                   296.65298134144086
5.0E-4                    0.0215                   295.80091166409443
5.0E-4                    0.0225                   293.24146926366456
5.0E-4                    0.0235                   293.15001858204585
5.0E-4                    0.0245                   293.1501117871446
5.0E-4                    0.0255                   293.16713503356294
5.0E-4                    0.0265                   293.40973872926435
5.0E-4                    0.0275                   293.52748054188896
5.0E-4                    0.0285                   293.6169591976462
5.0E-4                    0.0295                   293.6941315309246
5.0E-4                    0.0305                   293.6810603297085
5.0E-4                    0.0315                   293.5425400151572
0.0015                    -0.0315                  298.5666032370992
0.0015                    -0.0305                  298.5677815136654
0.0015                    -0.0295                  298.56857832778144
0.0015                    -0.0285                  298.5702522539108
0.0015                    -0.0275                  298.57203775987074
0.0015                    -0.0265                  298.57415264052196
0.0015                    -0.0255                  298.57718399636894
0.0015                    -0.0245                  298.5807917275123
0.0015                    -0.0235                  298.58464426897956
0.0015                    -0.0225                  299.43135786898074
0.0015                    -0.0215                  300.836470591278
0.0015                    -0.0205                  301.9088040969057
0.0015                    -0.0195                  302.7566696812095
0.0015                    -0.0185                  303.38800780534507
0.0015                    -0.0175                  303.9111461443657
0.0015                    -0.0165                  304.13393259164604
0.0015                    -0.0155                  304.2840646982113
0.0015                    -0.0145                  303.80243714319005
0.0015                    -0.0135                  303.1771977513139
0.0015                    -0.0125                  302.43973146783355
0.0015                    -0.0115                  301.4807807970888
0.0015                    -0.0105                  300.4447138315982
0.0015                    -0.0095                  299.7250678319356
0.0015                    -0.0085                  299.097606476922
0.0015                    -0.0075                  298.85004969652715
0.0015                    -0.0065                  298.65584973074436
0.0015                    -0.0055                  298.406964551655
0.0015                    -0.0045                  298.1504404984213
0.0015                    -0.0035                  298.00670234086647
0.0015                    -0.0025                  297.9386227157796
0.0015                    -0.0015                  297.82919565440613
0.0015                    -5.0E-4                  297.70074078930816
0.0015                    5.0E-4                   297.62938456311383
0.0015                    0.0015                   297.6026454502636
0.0015                    0.0025                   297.5390665024778
0.0015                    0.0035                   297.44660033933235
0.0015                    0.0045                   297.40670170753066
0.0015                    0.0055                   297.3903123481888
0.0015                    0.0065                   297.3452063285073
0.0015                    0.0075                   297.29577003726115
0.0015                    0.0085                   297.26661829861666
0.0015                    0.0095                   297.22807978753804
0.0015                    0.0105                   297.1776633416332
0.0015                    0.0115                   297.12714542505245
0.0015                    0.0125                   297.11206149690537
0.0015                    0.0135                   297.0866561682982
0.0015                    0.0145                   297.0536596965451
0.0015                    0.0155                   297.0001580180192
0.0015                    0.0165                   296.92212191955036
0.0015                    0.0175                   296.8285589935876
0.0015                    0.0185                   296.6797893955363
0.0015                    0.0195                   296.48361946891237
0.0015                    0.0205                   296.23682078261635
0.0015                    0.0215                   295.5664198343981
0.0015                    0.0225                   293.28587925738077
0.0015                    0.0235                   293.1515921220895
0.0015                    0.0245                   293.15021724454243
0.0015                    0.0255                   293.18702214840573
0.0015                    0.0265                   293.3382716937106
0.0015                    0.0275                   293.3916911074779
0.0015                    0.0285                   293.5705039272459
0.0015                    0.0295                   293.71795178107675
0.0015                    0.0305                   293.701997297847
0.0015                    0.0315                   293.54016094389704
0.0025                    -0.0315                  298.5640697413377
0.0025                    -0.0305                  298.5649238413116
0.0025                    -0.0295                  298.56566847481724
0.0025                    -0.0285                  298.566855976113
0.0025                    -0.0275                  298.56882074337057
0.0025                    -0.0265                  298.5714380656854
0.0025                    -0.0255                  298.573954230156
0.0025                    -0.0245                  298.57761429338245
0.0025                    -0.0235                  298.5815048661689
0.0025                    -0.0225                  299.3893690434396
0.0025                    -0.0215                  300.761787983353
0.0025                    -0.0205                  301.8047641863542
0.0025                    -0.0195                  302.60731933285933
0.0025                    -0.0185                  303.24993383026936
0.0025                    -0.0175                  303.72406337833877
0.0025                    -0.0165                  303.9990010806566
0.0025                    -0.0155                  304.0628310124324
0.0025                    -0.0145                  303.50278364611285
0.0025                    -0.0135                  302.8558143233633
0.0025                    -0.0125                  302.00387564182097
0.0025                    -0.0115                  301.00005996696177
0.0025                    -0.0105                  299.9639930014712
0.0025                    -0.0095                  299.01407418837965
0.0025                    -0.0085                  298.6678362378079
0.0025                    -0.0075                  298.47363627202515
0.0025                    -0.0065                  298.27943630624236
0.0025                    -0.0055                  298.0654966914767
0.0025                    -0.0045                  297.87131951227667
0.0025                    -0.0035                  297.80323988718976
0.0025                    -0.0025                  297.7351602621029
0.0025                    -0.0015                  297.65854348321625
0.0025                    -5.0E-4                  297.5722586910307
0.0025                    5.0E-4                   297.54551957818046
0.0025                    0.0015                   297.5187804653303
0.0025                    0.0025                   297.48679470788016
0.0025                    0.0035                   297.4372956063232
0.0025                    0.0045                   297.42090624698136
0.0025                    0.0055                   297.4045168876395
0.0025                    0.0065                   297.39142059274127
0.0025                    0.0075                   297.3814760375267
0.0025                    0.0085                   297.3715314823122
0.0025                    0.0095                   297.3819002622136
0.0025                    0.0105                   297.38009379038044
0.0025                    0.0115                   297.3764840028515
0.0025                    0.0125                   297.3789744305512
0.0025                    0.0135                   297.32127595854274
0.0025                    0.0145                   297.24410262328706
0.0025                    0.0155                   297.1065462430662
0.0025                    0.0165                   296.9539037675214
0.0025                    0.0175                   296.76761153272264
0.0025                    0.0185                   296.49058723810185
0.0025                    0.0195                   296.1856030180396
0.0025                    0.0205                   295.87582355305193
0.0025                    0.0215                   295.0447432177515
0.0025                    0.0225                   293.5113592192203
0.0025                    0.0235                   293.15618800791674
0.0025                    0.0245                   293.15622509327216
0.0025                    0.0255                   293.20205637955297
0.0025                    0.0265                   293.3085032958673
0.0025                    0.0275                   293.34480278171554
0.0025                    0.0285                   293.4495508633076
0.0025                    0.0295                   293.7378540146894
0.0025                    0.0305                   293.6486949208349
0.0025                    0.0315                   293.5361235446937
0.0035                    -0.0315                  298.56015038985475
0.0035                    -0.0305                  298.5599103721303
0.0035                    -0.0295                  298.5601474211574
0.0035                    -0.0285                  298.56211113107696
0.0035                    -0.0275                  298.564019582914
0.0035                    -0.0265                  298.5666219325113
0.0035                    -0.0255                  298.5697065942563
0.0035                    -0.0245                  298.5729890238393
0.0035                    -0.0235                  298.5769237322719
0.0035                    -0.0225                  299.3742051888491
0.0035                    -0.0215                  300.7082673175032
0.0035                    -0.0205                  301.7290120910477
0.0035                    -0.0195                  302.5070210401594
0.0035                    -0.0185                  303.11824467120425
0.0035                    -0.0175                  303.5525678196659
0.0035                    -0.0165                  303.72416200978523
0.0035                    -0.0155                  303.68674579947316
0.0035                    -0.0145                  303.28281487959987
0.0035                    -0.0135                  302.4106742260527
0.0035                    -0.0125                  301.24776277357455
0.0035                    -0.0115                  300.2590863117867
0.0035                    -0.0105                  299.2721953144541
0.0035                    -0.0095                  298.62746885505646
0.0035                    -0.0085                  298.4027830031196
0.0035                    -0.0075                  298.1898631505296
0.0035                    -0.0065                  297.97694329793956
0.0035                    -0.0055                  297.77424445149234
0.0035                    -0.0045                  297.7248722933375
0.0035                    -0.0035                  297.6685606432047
0.0035                    -0.0025                  297.61224899307206
0.0035                    -0.0015                  297.56477672770336
0.0035                    -5.0E-4                  297.55323659231
0.0035                    5.0E-4                   297.53099533430293
0.0035                    0.0015                   297.5087540762959
0.0035                    0.0025                   297.49848872656435
0.0035                    0.0035                   297.5149272982694
0.0035                    0.0045                   297.50786837804634
0.0035                    0.0055                   297.50080945782327
0.0035                    0.0065                   297.5254404123213
0.0035                    0.0075                   297.5578516065681
0.0035                    0.0085                   297.54790705135355
0.0035                    0.0095                   297.57764040967857
0.0035                    0.0105                   297.6182531631052
0.0035                    0.0115                   297.59603538150975
0.0035                    0.0125                   297.5499613723639
0.0035                    0.0135                   297.48197881249627
0.0035                    0.0145                   297.34439593168594
0.0035                    0.0155                   297.1388660867607
0.0035                    0.0165                   296.90103236091863
0.0035                    0.0175                   296.6163858368889
0.0035                    0.0185                   296.2670366969629
0.0035                    0.0195                   295.98244725238067
0.0035                    0.0205                   295.65699133905565
0.0035                    0.0215                   294.6859746503184
0.0035                    0.0225                   293.55393490488564
0.0035                    0.0235                   293.1355885055927
0.0035                    0.0245                   293.1514029882556
0.0035                    0.0255                   293.20727476376
0.0035                    0.0265                   293.2787983663625
0.0035                    0.0275                   293.3216453866892
0.0035                    0.0285                   293.38379360133735
0.0035                    0.0295                   293.57081479257727
0.0035                    0.0305                   293.53090531703106
0.0035                    0.0315                   293.53161980441786
0.0045                    -0.0315                  298.5527243247693
0.0045                    -0.0305                  298.55409796040385
0.0045                    -0.0295                  298.5546568852245
0.0045                    -0.0285                  298.5565794510809
0.0045                    -0.0275                  298.55815772270233
0.0045                    -0.0265                  298.5605722126987
0.0045                    -0.0255                  298.56335713480536
0.0045                    -0.0245                  298.5669573516378
0.0045                    -0.0235                  298.5708662915573
0.0045                    -0.0225                  299.35261269167086
0.0045                    -0.0215                  300.688934772927
0.0045                    -0.0205                  301.6831855701881
0.0045                    -0.0195                  302.4433643366821
0.0045                    -0.0185                  303.0050662399436
0.0045                    -0.0175                  303.42037247222424
0.0045                    -0.0165                  303.5275036781851
0.0045                    -0.0155                  303.38504974615415
0.0045                    -0.0145                  302.86622508448374
0.0045                    -0.0135                  301.70331363200546
0.0045                    -0.0125                  300.54040217952735
0.0045                    -0.0115                  299.50118797908493
0.0045                    -0.0105                  298.75228351601453
0.0045                    -0.0095                  298.49290100871474
0.0045                    -0.0085                  298.25000789607367
0.0045                    -0.0075                  298.03708804348366
0.0045                    -0.0065                  297.8241681908936
0.0045                    -0.0055                  297.75173569404035
0.0045                    -0.0045                  297.71736727560915
0.0045                    -0.0035                  297.66105562547637
0.0045                    -0.0025                  297.6047439753437
0.0045                    -0.0015                  297.5945920217109
0.0045                    -5.0E-4                  297.5965187229467
0.0045                    5.0E-4                   297.57427746493966
0.0045                    0.0015                   297.5520362069326
0.0045                    0.0025                   297.57161298658036
0.0045                    0.0035                   297.6126910782557
0.0045                    0.0045                   297.61091072380384
0.0045                    0.0055                   297.6038518035807
0.0045                    0.0065                   297.6523254876055
0.0045                    0.0075                   297.7011958667527
0.0045                    0.0085                   297.73276780371685
0.0045                    0.0095                   297.74414244738466
0.0045                    0.0105                   297.7459308457882
0.0045                    0.0115                   297.7233821491219
0.0045                    0.0125                   297.6784652448597
0.0045                    0.0135                   297.5515243818406
0.0045                    0.0145                   297.35594243725325
0.0045                    0.0155                   297.0785956282049
0.0045                    0.0165                   296.76442695308344
0.0045                    0.0175                   296.3969256208288
0.0045                    0.0185                   296.05998071405304
0.0045                    0.0195                   295.8523019334685
0.0045                    0.0205                   295.3276768881633
0.0045                    0.0215                   294.4276882522216
0.0045                    0.0225                   293.6227790973161
0.0045                    0.0235                   293.1477263172581
0.0045                    0.0245                   293.1523994694755
0.0045                    0.0255                   293.2096125135369
0.0045                    0.0265                   293.2756032607469
0.0045                    0.0275                   293.2944136280851
0.0045                    0.0285                   293.3636129142874
0.0045                    0.0295                   293.51821449277645
0.0045                    0.0305                   293.5259612166227
0.0045                    0.0315                   293.52699956567136
0.0055                    -0.0315                  298.5451534767677
0.0055                    -0.0305                  298.5465271124022
0.0055                    -0.0295                  298.5465881070291
0.0055                    -0.0285                  298.54869155263384
0.0055                    -0.0275                  298.54989295151466
0.0055                    -0.0265                  298.55241929910784
0.0055                    -0.0255                  298.55573841466276
0.0055                    -0.0245                  298.55940588868276
0.0055                    -0.0235                  298.56339551402215
0.0055                    -0.0225                  299.3426272748054
0.0055                    -0.0215                  300.6961583882316
0.0055                    -0.0205                  301.68665863579025
0.0055                    -0.0195                  302.413809416583
0.0055                    -0.0185                  302.9359431434636
0.0055                    -0.0175                  303.21577058752683
0.0055                    -0.0165                  303.2717817351833
0.0055                    -0.0155                  303.0602916866473
0.0055                    -0.0145                  302.19021934541615
0.0055                    -0.0135                  301.0127259073682
0.0055                    -0.0125                  299.8352324693202
0.0055                    -0.0115                  298.87709817697254
0.0055                    -0.0105                  298.61771566967275
0.0055                    -0.0095                  298.358333162373
0.0055                    -0.0085                  298.0989506550732
0.0055                    -0.0075                  297.8843129364377
0.0055                    -0.0065                  297.755070961586
0.0055                    -0.0055                  297.72922693658836
0.0055                    -0.0045                  297.70338291159084
0.0055                    -0.0035                  297.653550607748
0.0055                    -0.0025                  297.6166462562891
0.0055                    -0.0015                  297.6244073157185
0.0055                    -5.0E-4                  297.6321683751479
0.0055                    5.0E-4                   297.6175595955764
0.0055                    0.0015                   297.603659154921
0.0055                    0.0025                   297.6447372465963
0.0055                    0.0035                   297.68581533827165
0.0055                    0.0045                   297.7139530695613
0.0055                    0.0055                   297.73034018374256
0.0055                    0.0065                   297.7792105628897
0.0055                    0.0075                   297.8071734769717
0.0055                    0.0085                   297.8328637767291
0.0055                    0.0095                   297.85328546127494
0.0055                    0.0105                   297.85063759227774
0.0055                    0.0115                   297.8063857310631
0.0055                    0.0125                   297.70017337278733
0.0055                    0.0135                   297.5502067517686
0.0055                    0.0145                   297.2730617857245
0.0055                    0.0155                   296.9455974468649
0.0055                    0.0165                   296.5688911346432
0.0055                    0.0175                   296.1790109111052
0.0055                    0.0185                   295.86931086829
0.0055                    0.0195                   295.68224669401695
0.0055                    0.0205                   295.1043300788788
0.0055                    0.0215                   294.3039816469527
0.0055                    0.0225                   293.648332022756
0.0055                    0.0235                   293.1688427132234
0.0055                    0.0245                   293.1546971547291
0.0055                    0.0255                   293.21073211923283
0.0055                    0.0265                   293.25962654683826
0.0055                    0.0275                   293.2843688626617
0.0055                    0.0285                   293.38049270174656
0.0055                    0.0295                   293.51759368832563
0.0055                    0.0305                   293.5208238969474
0.0055                    0.0315                   293.5224655711579
0.0065                    -0.0315                  298.5369849912067
0.0065                    -0.0305                  298.53680932253434
0.0065                    -0.0295                  298.53663365386194
0.0065                    -0.0285                  298.53857920662756
0.0065                    -0.0275                  298.5410902580071
0.0065                    -0.0265                  298.54369756863235
0.0065                    -0.0255                  298.5465148251217
0.0065                    -0.0245                  298.55045207773765
0.0065                    -0.0235                  298.55459358054264
0.0065                    -0.0225                  299.3346773126412
0.0065                    -0.0215                  300.69882667814875
0.0065                    -0.0205                  301.68314610209
0.0065                    -0.0195                  302.38346933220015
0.0065                    -0.0185                  302.836754949926
0.0065                    -0.0175                  303.0484267826854
0.0065                    -0.0165                  302.9230389586262
0.0065                    -0.0155                  302.3903537411006
0.0065                    -0.0145                  301.4902738577299
0.0065                    -0.0135                  300.3632268335813
0.0065                    -0.0125                  299.2567834575023
0.0065                    -0.0115                  298.6983085321966
0.0065                    -0.0105                  298.45830232315154
0.0065                    -0.0095                  298.21829611410647
0.0065                    -0.0085                  297.96438280873144
0.0065                    -0.0075                  297.7584062291316
0.0065                    -0.0065                  297.73256220413407
0.0065                    -0.0055                  297.7067181791365
0.0065                    -0.0045                  297.6808741541389
0.0065                    -0.0035                  297.6460455900196
0.0065                    -0.0025                  297.6464615502966
0.0065                    -0.0015                  297.654222609726
0.0065                    -5.0E-4                  297.66198366915546
0.0065                    5.0E-4                   297.66084172621305
0.0065                    0.0015                   297.67678341493695
0.0065                    0.0025                   297.7178615066123
0.0065                    0.0035                   297.7589395982876
0.0065                    0.0045                   297.79976388317067
0.0065                    0.0055                   297.83182473448363
0.0065                    0.0065                   297.85921958189675
0.0065                    0.0075                   297.8866144293099
0.0065                    0.0085                   297.9116242426263
0.0065                    0.0095                   297.9343672490228
0.0065                    0.0105                   297.90137388741493
0.0065                    0.0115                   297.82212009248