% Model:              模型结构导入comsolBench.mph
% Version:            COMSOL 6.2.0.339
% Date:               May 12 2026, 14:10
% Dimension:          2
% Nodes:              4096
% Expressions:        1
% Description:        温度
% Length unit:        m
% x                       y                        T (K)
5.0E-4                    -0.0315                  294.91311896043413
5.0E-4                    -0.0305                  294.9111343445063
5.0E-4                    -0.0295                  294.9091473146891
5.0E-4                    -0.0285                  294.9071602848719
5.0E-4                    -0.0275                  294.90406918323515
5.0E-4                    -0.0265                  294.89828827648205
5.0E-4                    -0.0255                  294.8925063882442
5.0E-4                    -0.0245                  294.8867245000064
5.0E-4                    -0.0235                  294.88025305632243
5.0E-4                    -0.0225                  294.87130285597266
5.0E-4                    -0.0215                  294.8620893133396
5.0E-4                    -0.0205                  294.85287577070665
5.0E-4                    -0.0195                  294.8429154094766
5.0E-4                    -0.0185                  294.83086892807614
5.0E-4                    -0.0175                  294.8188224466758
5.0E-4                    -0.0165                  294.80626093009283
5.0E-4                    -0.0155                  294.7925636758523
5.0E-4                    -0.0145                  294.77868141370016
5.0E-4                    -0.0135                  294.76432000128466
5.0E-4                    -0.0125                  294.750115446796
5.0E-4                    -0.0115                  294.73694701445146
5.0E-4                    -0.0105                  294.72586201845024
5.0E-4                    -0.0095                  294.7184865372853
5.0E-4                    -0.0085                  294.60819093911863
5.0E-4                    -0.0075                  294.2486499524253
5.0E-4                    -0.0065                  293.922228290906
5.0E-4                    -0.0055                  293.83257475874643
5.0E-4                    -0.0045                  293.8278816133338
5.0E-4                    -0.0035                  293.83907390816734
5.0E-4                    -0.0025                  293.8521822234681
5.0E-4                    -0.0015                  293.86809028384056
5.0E-4                    -5.0E-4                  293.8847009300688
5.0E-4                    5.0E-4                   293.90288130351945
5.0E-4                    0.0015                   293.924807581227
5.0E-4                    0.0025                   293.9462087481943
5.0E-4                    0.0035                   293.8866058588242
5.0E-4                    0.0045                   293.2109787331638
5.0E-4                    0.0055                   293.1505727469842
5.0E-4                    0.0065                   293.15038398940607
5.0E-4                    0.0075                   293.15034552443547
5.0E-4                    0.0085                   293.15032837511666
5.0E-4                    0.0095                   293.1503347320451
5.0E-4                    0.0105                   293.1503289856795
5.0E-4                    0.0115                   293.1650894196295
5.0E-4                    0.0125                   293.82672761879223
5.0E-4                    0.0135                   294.1955663042353
5.0E-4                    0.0145                   294.33779645674
5.0E-4                    0.0155                   294.34526772650594
5.0E-4                    0.0165                   294.35765399227427
5.0E-4                    0.0175                   294.37210447891874
5.0E-4                    0.0185                   294.3867757749341
5.0E-4                    0.0195                   294.40086364634453
5.0E-4                    0.0205                   294.4135389936855
5.0E-4                    0.0215                   294.42540564370944
5.0E-4                    0.0225                   294.4351085425753
5.0E-4                    0.0235                   294.44467982524225
5.0E-4                    0.0245                   294.45274129133423
5.0E-4                    0.0255                   294.4586718342373
5.0E-4                    0.0265                   294.4646023771404
5.0E-4                    0.0275                   294.47053292004347
5.0E-4                    0.0285                   294.47365339642624
5.0E-4                    0.0295                   294.47568265880864
5.0E-4                    0.0305                   294.4777119211909
5.0E-4                    0.0315                   294.479731055985
0.0015                    -0.0315                  294.91277631090065
0.0015                    -0.0305                  294.9114473870828
0.0015                    -0.0295                  294.90946759893365
0.0015                    -0.0285                  294.907320673081
0.0015                    -0.0275                  294.9033527574072
0.0015                    -0.0265                  294.89864653992083
0.0015                    -0.0255                  294.89286465168294
0.0015                    -0.0245                  294.8866567960205
0.0015                    -0.0235                  294.8794892313432
0.0015                    -0.0225                  294.87144521419395
0.0015                    -0.0215                  294.8622316715609
0.0015                    -0.0205                  294.85263610818726
0.0015                    -0.0195                  294.8422205080517
0.0015                    -0.0185                  294.8308545889834
0.0015                    -0.0175                  294.81863531086975
0.0015                    -0.0165                  294.80553548155837
0.0015                    -0.0155                  294.79225493444693
0.0015                    -0.0145                  294.77797730514783
0.0015                    -0.0135                  294.7634039664155
0.0015                    -0.0125                  294.7483208549769
0.0015                    -0.0115                  294.73374558564353
0.0015                    -0.0105                  294.72094002535965
0.0015                    -0.0095                  294.7098957889922
0.0015                    -0.0085                  294.40459963200936
0.0015                    -0.0075                  293.67218242760913
0.0015                    -0.0065                  293.54484236179417
0.0015                    -0.0055                  293.53968731625025
0.0015                    -0.0045                  293.5924693677207
0.0015                    -0.0035                  293.64104465895866
0.0015                    -0.0025                  293.6810769365692
0.0015                    -0.0015                  293.7243145298383
0.0015                    -5.0E-4                  293.75340753696304
0.0015                    5.0E-4                   293.773513845101
0.0015                    0.0015                   293.7936546747237
0.0015                    0.0025                   293.8096569621174
0.0015                    0.0035                   293.78635502063423
0.0015                    0.0045                   293.31947632438914
0.0015                    0.0055                   293.1518371673091
0.0015                    0.0065                   293.15080106165055
0.0015                    0.0075                   293.1511190698985
0.0015                    0.0085                   293.1509247599705
0.0015                    0.0095                   293.15093616797066
0.0015                    0.0105                   293.1513596295351
0.0015                    0.0115                   293.177518164266
0.0015                    0.0125                   293.53759937573807
0.0015                    0.0135                   294.0294099982322
0.0015                    0.0145                   294.32701494809623
0.0015                    0.0155                   294.3395742305589
0.0015                    0.0165                   294.3549070764592
0.0015                    0.0175                   294.371047797493
0.0015                    0.0185                   294.38668633226916
0.0015                    0.0195                   294.4006682369549
0.0015                    0.0205                   294.41382803667557
0.0015                    0.0215                   294.4250953908717
0.0015                    0.0225                   294.4359047562159
0.0015                    0.0235                   294.444672916092
0.0015                    0.0245                   294.4523769045167
0.0015                    0.0255                   294.45928337471037
0.0015                    0.0265                   294.46521391761337
0.0015                    0.0275                   294.469927659171
0.0015                    0.0285                   294.47385840859994
0.0015                    0.0295                   294.47608608784367
0.0015                    0.0305                   294.4780849674613
0.0015                    0.0315                   294.47940321283545
0.0025                    -0.0315                  294.9124336613671
0.0025                    -0.0305                  294.9111047375493
0.0025                    -0.0295                  294.9097758137314
0.0025                    -0.0285                  294.90660424725303
0.0025                    -0.0275                  294.9026363315793
0.0025                    -0.0265                  294.8986684159055
0.0025                    -0.0255                  294.8930605357184
0.0025                    -0.0245                  294.88589297104113
0.0025                    -0.0235                  294.87872540636386
0.0025                    -0.0225                  294.87155784168664
0.0025                    -0.0215                  294.8623271087872
0.0025                    -0.0205                  294.8519115086516
0.0025                    -0.0195                  294.8414959085161
0.0025                    -0.0185                  294.8308402498906
0.0025                    -0.0175                  294.8179098623353
0.0025                    -0.0165                  294.8048321406742
0.0025                    -0.0155                  294.7914301749514
0.0025                    -0.0145                  294.7765803360754
0.0025                    -0.0135                  294.76122136961266
0.0025                    -0.0125                  294.7449155015122
0.0025                    -0.0115                  294.7291187428029
0.0025                    -0.0105                  294.7133537755827
0.0025                    -0.0095                  294.6937786252657
0.0025                    -0.0085                  293.8157383959803
0.0025                    -0.0075                  293.47016760026213
0.0025                    -0.0065                  293.4958518344813
0.0025                    -0.0055                  293.5138746790266
0.0025                    -0.0045                  293.52450825083906
0.0025                    -0.0035                  293.5492786900576
0.0025                    -0.0025                  293.58123156008054
0.0025                    -0.0015                  293.6089348505515
0.0025                    -5.0E-4                  293.63757926373637
0.0025                    5.0E-4                   293.6569160645477
0.0025                    0.0015                   293.6821020769306
0.0025                    0.0025                   293.70516945044614
0.0025                    0.0035                   293.69217608149546
0.0025                    0.0045                   293.3882061036805
0.0025                    0.0055                   293.16121971160175
0.0025                    0.0065                   293.15049107569484
0.0025                    0.0075                   293.15164618496664
0.0025                    0.0085                   293.15160480200944
0.0025                    0.0095                   293.15155465419866
0.0025                    0.0105                   293.15150599069887
0.0025                    0.0115                   293.17142704402113
0.0025                    0.0125                   293.3787986126419
0.0025                    0.0135                   293.88930785596204
0.0025                    0.0145                   294.30616254727056
0.0025                    0.0155                   294.32897732690753
0.0025                    0.0165                   294.35050195773164
0.0025                    0.0175                   294.3699690933488
0.0025                    0.0185                   294.3866293989545
0.0025                    0.0195                   294.40135241401555
0.0025                    0.0205                   294.41470023371147
0.0025                    0.0215                   294.4257042703017
0.0025                    0.0225                   294.4363872536562
0.0025                    0.0235                   294.4443800025118
0.0025                    0.0245                   294.45187751310414
0.0025                    0.0255                   294.459581501529
0.0025                    0.0265                   294.4653887864092
0.0025                    0.0275                   294.46931953583817
0.0025                    0.0285                   294.4732502852671
0.0025                    0.0295                   294.47643887893753
0.0025                    0.0305                   294.4777571243117
0.0025                    0.0315                   294.4790753696859
0.0035                    -0.0315                  294.9120910118336
0.0035                    -0.0305                  294.91074658154946
0.0035                    -0.0295                  294.9092949937991
0.0035                    -0.0285                  294.9063322593056
0.0035                    -0.0275                  294.9023145408391
0.0035                    -0.0265                  294.8982968223725
0.0035                    -0.0255                  294.892576401219
0.0035                    -0.0245                  294.885359611456
0.0035                    -0.0235                  294.878142821693
0.0035                    -0.0225                  294.87092603193
0.0035                    -0.0215                  294.86164783271744
0.0035                    -0.0205                  294.8512563156865
0.0035                    -0.0195                  294.84086479865556
0.0035                    -0.0185                  294.8299490469967
0.0035                    -0.0175                  294.81727010898396
0.0035                    -0.0165                  294.8041966431074
0.0035                    -0.0155                  294.7900426252943
0.0035                    -0.0145                  294.7751238776811
0.0035                    -0.0135                  294.7586606611418
0.0035                    -0.0125                  294.7415191049335
0.0035                    -0.0115                  294.72244487224236
0.0035                    -0.0105                  294.7050231252777
0.0035                    -0.0095                  293.8789834313123
0.0035                    -0.0085                  293.44612521000346
0.0035                    -0.0075                  293.4737574485664
0.0035                    -0.0065                  293.5135598365815
0.0035                    -0.0055                  293.5271440301931
0.0035                    -0.0045                  293.5324363992759
0.0035                    -0.0035                  293.53605288408005
0.0035                    -0.0025                  293.56282404437457
0.0035                    -0.0015                  293.5854381412204
0.0035                    -5.0E-4                  293.59812622223996
0.0035                    5.0E-4                   293.61022647927786
0.0035                    0.0015                   293.62358845459056
0.0035                    0.0025                   293.62267395617044
0.0035                    0.0035                   293.5814926410076
0.0035                    0.0045                   293.3668484906479
0.0035                    0.0055                   293.1860480700109
0.0035                    0.0065                   293.15150500591943
0.0035                    0.0075                   293.1520263228214
0.0035                    0.0085                   293.152254363527
0.0035                    0.0095                   293.15219501873867
0.0035                    0.0105                   293.15221814361547
0.0035                    0.0115                   293.1685893808849
0.0035                    0.0125                   293.2916008377378
0.0035                    0.0135                   293.7807243315251
0.0035                    0.0145                   294.28141201559083
0.0035                    0.0155                   294.32113003935194
0.0035                    0.0165                   294.3488973589738
0.0035                    0.0175                   294.3703366190331
0.0035                    0.0185                   294.3872737323377
0.0035                    0.0195                   294.4023565102543
0.0035                    0.0205                   294.4150023137739
0.0035                    0.0215                   294.42657126522926
0.0035                    0.0225                   294.43646775885753
0.0035                    0.0235                   294.445231033896
0.0035                    0.0245                   294.45258579044275
0.0035                    0.0255                   294.45977159160765
0.0035                    0.0265                   294.4651678754588
0.0035                    0.0275                   294.4691629469737
0.0035                    0.0285                   294.4731580184886
0.0035                    0.0295                   294.4759406564575
0.0035                    0.0305                   294.4774003687686
0.0035                    0.0315                   294.4787475265363
0.0045                    -0.0315                  294.91162865856285
0.0045                    -0.0305                  294.91017707081255
0.0045                    -0.0295                  294.9087254830622
0.0045                    -0.0285                  294.906254272742
0.0045                    -0.0275                  294.9022365542754
0.0045                    -0.0265                  294.89731702216744
0.0045                    -0.0255                  294.8921277614177
0.0045                    -0.0245                  294.8852031129618
0.0045                    -0.0235                  294.8779863231988
0.0045                    -0.0225                  294.86995106157775
0.0045                    -0.0215                  294.8607681009704
0.0045                    -0.0205                  294.8506935393231
0.0045                    -0.0195                  294.84013702648826
0.0045                    -0.0185                  294.82869903483095
0.0045                    -0.0175                  294.81624257192897
0.0045                    -0.0165                  294.8034516395257
0.0045                    -0.0155                  294.7887719493767
0.0045                    -0.0145                  294.77391864249955
0.0045                    -0.0135                  294.7564325015374
0.0045                    -0.0125                  294.73690546419823
0.0045                    -0.0115                  294.7149141370316
0.0045                    -0.0105                  294.68745664473994
0.0045                    -0.0095                  293.5690589543649
0.0045                    -0.0085                  293.42278219937583
0.0045                    -0.0075                  293.4415533241985
0.0045                    -0.0065                  293.45480487631664
0.0045                    -0.0055                  293.4735696447433
0.0045                    -0.0045                  293.4754315776928
0.0045                    -0.0035                  293.4835617650996
0.0045                    -0.0025                  293.4857587293734
0.0045                    -0.0015                  293.49803489152856
0.0045                    -5.0E-4                  293.5217200507709
0.0045                    5.0E-4                   293.527763832679
0.0045                    0.0015                   293.52336916117025
0.0045                    0.0025                   293.4926057159446
0.0045                    0.0035                   293.4324531774739
0.0045                    0.0045                   293.2775000493766
0.0045                    0.0055                   293.1927732293298
0.0045                    0.0065                   293.1550060747513
0.0045                    0.0075                   293.15280029085545
0.0045                    0.0085                   293.15292994628277
0.0045                    0.0095                   293.1528561176552
0.0045                    0.0105                   293.1530414401283
0.0045                    0.0115                   293.15925239855954
0.0045                    0.0125                   293.2239734870101
0.0045                    0.0135                   293.6314325647362
0.0045                    0.0145                   294.273220609558
0.0045                    0.0155                   294.32116562014187
0.0045                    0.0165                   294.3509860246083
0.0045                    0.0175                   294.3727123902605
0.0045                    0.0185                   294.3892227986597
0.0045                    0.0195                   294.40491389688304
0.0045                    0.0205                   294.41700447136384
0.0045                    0.0215                   294.42778730428756
0.0045                    0.0225                   294.4371100470619
0.0045                    0.0235                   294.4459886469249
0.0045                    0.0245                   294.4529577959847
0.0045                    0.0255                   294.4599269450444
0.0045                    0.0265                   294.46479459171394
0.0045                    0.0275                   294.4692479186258
0.0045                    0.0285                   294.47324299014076
0.0045                    0.0295                   294.47535718183104
0.0045                    0.0305                   294.4768168941422
0.0045                    0.0315                   294.4782738486284
0.0055                    -0.0315                  294.9111339637783
0.0055                    -0.0305                  294.9096412327397
0.0055                    -0.0295                  294.9081559723252
0.0055                    -0.0285                  294.9061762861783
0.0055                    -0.0275                  294.9014538582285
0.0055                    -0.0265                  294.8962645974788
0.0055                    -0.0255                  294.8910753367291
0.0055                    -0.0245                  294.88504661446746
0.0055                    -0.0235                  294.8769622836162
0.0055                    -0.0225                  294.86880970935675
0.0055                    -0.0215                  294.8596642569279
0.0055                    -0.0205                  294.84976532833133
0.0055                    -0.0195                  294.83883372023877
0.0055                    -0.0185                  294.8273850624039
0.0055                    -0.0175                  294.8152645371164
0.0055                    -0.0165                  294.8022230669614
0.0055                    -0.0155                  294.78812441361026
0.0055                    -0.0145                  294.7729688397183
0.0055                    -0.0135                  294.75554804899895
0.0055                    -0.0125                  294.73520266946116
0.0055                    -0.0115                  294.7101599892018
0.0055                    -0.0105                  293.80053406478925
0.0055                    -0.0095                  293.3941428857491
0.0055                    -0.0085                  293.3757897970353
0.0055                    -0.0075                  293.3724693550357
0.0055                    -0.0065                  293.3720625652144
0.0055                    -0.0055                  293.3683634198009
0.0055                    -0.0045                  293.3545355411776
0.0055                    -0.0035                  293.341181492606
0.0055                    -0.0025                  293.3386347944521
0.0055                    -0.0015                  293.31810972985147
0.0055                    -5.0E-4                  293.2986637591613
0.0055                    5.0E-4                   293.30628798309664
0.0055                    0.0015                   293.3123339835098
0.0055                    0.0025                   293.3076518801084
0.0055                    0.0035                   293.27753946197396
0.0055                    0.0045                   293.2388445427827
0.0055                    0.0055                   293.18393737539424
0.0055                    0.0065                   293.1575513189619
0.0055                    0.0075                   293.1540712435227
0.0055                    0.0085                   293.15363931252114
0.0055                    0.0095                   293.15353036266305
0.0055                    0.0105                   293.153684281573
0.0055                    0.0115                   293.15756550903484
0.0055                    0.0125                   293.1863035920577
0.0055                    0.0135                   293.3352269914542
0.0055                    0.0145                   293.96123033172853
0.0055                    0.0155                   294.33398252089046
0.0055                    0.0165                   294.358454952094
0.0055                    0.0175                   294.3779274204895
0.0055                    0.0185                   294.39360446985904
0.0055                    0.0195                   294.4074908513445
0.0055                    0.0205                   294.4181918848055
0.0055                    0.0215                   294.4295211755289
0.0055                    0.0225                   294.4384383493434
0.0055                    0.0235                   294.44654697787365
0.0055                    0.0245                   294.4532598884978
0.0055                    0.0255                   294.4596209104439
0.0055                    0.0265                   294.4643314759362
0.0055                    0.0275                   294.4690420414285
0.0055                    0.0285                   294.4733139948935
0.0055                    0.0295                   294.47477228220515
0.0055                    0.0305                   294.4761844929477
0.0055                    0.0315                   294.47759670369027
0.0065                    -0.0315                  294.91064031995325
0.0065                    -0.0305                  294.9091475889146
0.0065                    -0.0295                  294.90765485787597
0.0065                    -0.0285                  294.90568519392207
0.0065                    -0.0275                  294.90073496486025
0.0065                    -0.0265                  294.89559329985633
0.0065                    -0.0255                  294.8904516348525
0.0065                    -0.0245                  294.8841209078867
0.0065                    -0.0235                  294.87599260914567
0.0065                    -0.0225                  294.8677793294629
0.0065                    -0.0215                  294.858365363671
0.0065                    -0.0205                  294.8482953592043
0.0065                    -0.0195                  294.83729294986756
0.0065                    -0.0185                  294.8259648884228
0.0065                    -0.0175                  294.81379778029924
0.0065                    -0.0165                  294.80126248789344
0.0065                    -0.0155                  294.7877259472488
0.0065                    -0.0145                  294.77289070626307
0.0065                    -0.0135                  294.7562106389162
0.0065                    -0.0125                  294.73701410075086
0.0065                    -0.0115                  293.8954758807889
0.0065                    -0.0105                  293.35971590086797
0.0065                    -0.0095                  293.33220541058563
0.0065                    -0.0085                  293.3201126993489
0.0065                    -0.0075                  293.3082587173003
0.0065                    -0.0065                  293.29514085571293
0.0065                    -0.0055                  293.2862021781781
0.0065                    -0.0045                  293.2762601207872
0.0065                    -0.0035                  293.27565134205025
0.0065                    -0.0025                  293.24847352213794
0.0065                    -0.0015                  293.2444640011289
0.0065                    -5.0E-4                  293.23605458147796
0.0065                    5.0E-4                   293.2273954933763
0.0065                    0.0015                   293.21917712652544
0.0065                    0.0025                   293.2082465195815
0.0065                    0.0035                   293.2014286787057
0.0065                    0.0045                   293.1863249774185
0.0065                    0.0055                   293.17357553938155
0.0065                    0.0065                   293.16024682212685
0.0065                    0.0075                   293.1558857192056
0.0065                    0.0085                   293.1544789393889
0.0065                    0.0095                   293.15428244035905
0.0065                    0.0105                   293.1542393091212
0.0065                    0.0115                   293.15623284602503