% Model:              模型结构导入comsolBench.mph
% Version:            COMSOL 6.2.0.339
% Date:               May 12 2026, 14:14
% Dimension:          2
% Nodes:              4096
% Expressions:        1
% Description:        温度
% Length unit:        m
% x                       y                        T (K)
5.0E-4                    -0.0315                  296.4333654822224
5.0E-4                    -0.0305                  296.43197688317593
5.0E-4                    -0.0295                  296.43058792770734
5.0E-4                    -0.0285                  296.42919897223874
5.0E-4                    -0.0275                  296.4270606608097
5.0E-4                    -0.0265                  296.4231311580746
5.0E-4                    -0.0255                  296.4192016553395
5.0E-4                    -0.0245                  296.4152721526044
5.0E-4                    -0.0235                  296.4104626282054
5.0E-4                    -0.0225                  296.4043439867599
5.0E-4                    -0.0215                  296.39822534531436
5.0E-4                    -0.0205                  296.39166087666143
5.0E-4                    -0.0195                  296.3843014962098
5.0E-4                    -0.0185                  296.3768429559442
5.0E-4                    -0.0175                  296.36912268785846
5.0E-4                    -0.0165                  296.36146336260964
5.0E-4                    -0.0155                  296.3543957687899
5.0E-4                    -0.0145                  296.34846466372346
5.0E-4                    -0.0135                  296.3444544344009
5.0E-4                    -0.0125                  296.1348023288584
5.0E-4                    -0.0115                  295.7170491064134
5.0E-4                    -0.0105                  295.3512385504172
5.0E-4                    -0.0095                  295.14740294801925
5.0E-4                    -0.0085                  295.0580636760308
5.0E-4                    -0.0075                  294.99911587888425
5.0E-4                    -0.0065                  294.97521953576927
5.0E-4                    -0.0055                  294.95123546126706
5.0E-4                    -0.0045                  294.932558390543
5.0E-4                    -0.0035                  294.91113800141295
5.0E-4                    -0.0025                  294.88073457105787
5.0E-4                    -0.0015                  294.8346331372323
5.0E-4                    -5.0E-4                  294.78606763510584
5.0E-4                    5.0E-4                   294.7435629516023
5.0E-4                    0.0015                   294.70470091974875
5.0E-4                    0.0025                   294.6739156741812
5.0E-4                    0.0035                   294.6558288459081
5.0E-4                    0.0045                   294.6407408251028
5.0E-4                    0.0055                   294.62844650299735
5.0E-4                    0.0065                   294.6237251750356
5.0E-4                    0.0075                   294.6214011282709
5.0E-4                    0.0085                   294.6207797574658
5.0E-4                    0.0095                   294.6260328194225
5.0E-4                    0.0105                   294.633442890617
5.0E-4                    0.0115                   294.6427503728943
5.0E-4                    0.0125                   294.6560559936519
5.0E-4                    0.0135                   294.6736501742764
5.0E-4                    0.0145                   294.68607268444305
5.0E-4                    0.0155                   294.184244999937
5.0E-4                    0.0165                   293.15414840336916
5.0E-4                    0.0175                   293.1511688712629
5.0E-4                    0.0185                   293.1512113242105
5.0E-4                    0.0195                   293.1511215481181
5.0E-4                    0.0205                   293.15039475448754
5.0E-4                    0.0215                   293.1502137441671
5.0E-4                    0.0225                   293.1519203091018
5.0E-4                    0.0235                   293.16551441866636
5.0E-4                    0.0245                   293.5600096621438
5.0E-4                    0.0255                   294.2045947483525
5.0E-4                    0.0265                   294.2225900007049
5.0E-4                    0.0275                   294.2359055615317
5.0E-4                    0.0285                   294.24582055384906
5.0E-4                    0.0295                   294.25312711300353
5.0E-4                    0.0305                   294.2571033268053
5.0E-4                    0.0315                   294.25952729311757
0.0015                    -0.0315                  296.43246270851847
0.0015                    -0.0305                  296.43177951700955
0.0015                    -0.0295                  296.4303916308072
0.0015                    -0.0285                  296.42884451252684
0.0015                    -0.0275                  296.42615431310287
0.0015                    -0.0265                  296.4228579659739
0.0015                    -0.0255                  296.4189284632388
0.0015                    -0.0245                  296.4146627621165
0.0015                    -0.0235                  296.40983774774895
0.0015                    -0.0225                  296.4039710708865
0.0015                    -0.0215                  296.39758029321774
0.0015                    -0.0205                  296.39074493849796
0.0015                    -0.0195                  296.38371754635455
0.0015                    -0.0185                  296.3760354542152
0.0015                    -0.0175                  296.36824856353104
0.0015                    -0.0165                  296.36015497332204
0.0015                    -0.0155                  296.35225930028514
0.0015                    -0.0145                  296.3455799163855
0.0015                    -0.0135                  296.34003150027155
0.0015                    -0.0125                  295.77035485842
0.0015                    -0.0115                  294.8574387256806
0.0015                    -0.0105                  294.4196223716332
0.0015                    -0.0095                  294.37052938395914
0.0015                    -0.0085                  294.40823004365666
0.0015                    -0.0075                  294.52373762850016
0.0015                    -0.0065                  294.52405699512
0.0015                    -0.0055                  294.5076891235965
0.0015                    -0.0045                  294.4772032119476
0.0015                    -0.0035                  294.38319534390286
0.0015                    -0.0025                  294.30720361287655
0.0015                    -0.0015                  294.2588414832989
0.0015                    -5.0E-4                  294.21633935517855
0.0015                    5.0E-4                   294.18208296820575
0.0015                    0.0015                   294.1774649899338
0.0015                    0.0025                   294.18851849163406
0.0015                    0.0035                   294.18010585522427
0.0015                    0.0045                   294.20145932880826
0.0015                    0.0055                   294.2301554831231
0.0015                    0.0065                   294.24536796093
0.0015                    0.0075                   294.27704331633066
0.0015                    0.0085                   294.31148568556165
0.0015                    0.0095                   294.33546792381196
0.0015                    0.0105                   294.37036129572573
0.0015                    0.0115                   294.40255923463246
0.0015                    0.0125                   294.42447384395973
0.0015                    0.0135                   294.4560604257631
0.0015                    0.0145                   294.4952325570754
0.0015                    0.0155                   293.60726366779835
0.0015                    0.0165                   293.15280510572813
0.0015                    0.0175                   293.15332472295876
0.0015                    0.0185                   293.1533185104273
0.0015                    0.0195                   293.15307744754864
0.0015                    0.0205                   293.15255107846946
0.0015                    0.0215                   293.1530277645842
0.0015                    0.0225                   293.1562804025099
0.0015                    0.0235                   293.18541307913455
0.0015                    0.0245                   293.66668732154125
0.0015                    0.0255                   294.22349170355227
0.0015                    0.0265                   294.23277230500685
0.0015                    0.0275                   294.24189656096644
0.0015                    0.0285                   294.24991465474307
0.0015                    0.0295                   294.25508693413724
0.0015                    0.0305                   294.259448472757
0.0015                    0.0315                   294.2612830779931
0.0025                    -0.0315                  296.4315599348145
0.0025                    -0.0305                  296.43087674330553
0.0025                    -0.0295                  296.4301935517966
0.0025                    -0.0285                  296.4279180247467
0.0025                    -0.0275                  296.4252278253226
0.0025                    -0.0265                  296.4225376258986
0.0025                    -0.0255                  296.41861984017726
0.0025                    -0.0245                  296.4137948258097
0.0025                    -0.0235                  296.40896981144215
0.0025                    -0.0225                  296.4034997097741
0.0025                    -0.0215                  296.3966429395922
0.0025                    -0.0205                  296.3896843871663
0.0025                    -0.0195                  296.3824531574151
0.0025                    -0.0185                  296.3742763433566
0.0025                    -0.0175                  296.365921021712
0.0025                    -0.0165                  296.3572593872602
0.0025                    -0.0155                  296.34862377272987
0.0025                    -0.0145                  296.34017131237766
0.0025                    -0.0135                  296.33228684369504
0.0025                    -0.0125                  295.3513447860885
0.0025                    -0.0115                  294.1167179442192
0.0025                    -0.0105                  293.92436665163103
0.0025                    -0.0095                  294.0284612052759
0.0025                    -0.0085                  294.1113985529358
0.0025                    -0.0075                  294.0813193953591
0.0025                    -0.0065                  294.0116561769173
0.0025                    -0.0055                  294.00374095563575
0.0025                    -0.0045                  293.90795939492756
0.0025                    -0.0035                  293.8824158750262
0.0025                    -0.0025                  293.8040768628721
0.0025                    -0.0015                  293.7964458400519
0.0025                    -5.0E-4                  293.7979438600468
0.0025                    5.0E-4                   293.81109636789574
0.0025                    0.0015                   293.8420908568141
0.0025                    0.0025                   293.8569078026204
0.0025                    0.0035                   293.9011122660387
0.0025                    0.0045                   293.937904465784
0.0025                    0.0055                   293.9676164776308
0.0025                    0.0065                   294.0205985671223
0.0025                    0.0075                   294.0646960443072
0.0025                    0.0085                   294.09687327313344
0.0025                    0.0095                   294.14880814015993
0.0025                    0.0105                   294.19499623935866
0.0025                    0.0115                   294.23347946887077
0.0025                    0.0125                   294.2647901952418
0.0025                    0.0135                   294.147714948974
0.0025                    0.0145                   293.84369723466887
0.0025                    0.0155                   293.23201629395
0.0025                    0.0165                   293.15639032131173
0.0025                    0.0175                   293.1554848772963
0.0025                    0.0185                   293.1554451039254
0.0025                    0.0195                   293.1551750129726
0.0025                    0.0205                   293.1552107702347
0.0025                    0.0215                   293.15659109661897
0.0025                    0.0225                   293.16201375876136
0.0025                    0.0235                   293.2536697694396
0.0025                    0.0245                   293.7716979522798
0.0025                    0.0255                   294.2365947341134
0.0025                    0.0265                   294.242532007474
0.0025                    0.0275                   294.2487982948226
0.0025                    0.0285                   294.2544724280478
0.0025                    0.0295                   294.25901972577674
0.0025                    0.0305                   294.2625222407621
0.0025                    0.0315                   294.26346985748876
0.0035                    -0.0315                  296.4306571611105
0.0035                    -0.0305                  296.42987904761264
0.0035                    -0.0295                  296.4287200921496
0.0035                    -0.0285                  296.4266024713359
0.0035                    -0.0275                  296.4240167530063
0.0035                    -0.0265                  296.42143103467674
0.0035                    -0.0255                  296.41761063080645
0.0035                    -0.0245                  296.41271292226395
0.0035                    -0.0235                  296.4078152137215
0.0035                    -0.0225                  296.40204322365656
0.0035                    -0.0215                  296.3951590587069
0.0035                    -0.0205                  296.38820050628095
0.0035                    -0.0195                  296.38045743916433
0.0035                    -0.0185                  296.37220445378694
0.0035                    -0.0175                  296.36306640869674
0.0035                    -0.0165                  296.3536106780458
0.0035                    -0.0155                  296.34372887320256
0.0035                    -0.0145                  296.3333256032425
0.0035                    -0.0135                  296.3198755245958
0.0035                    -0.0125                  294.9764750809961
0.0035                    -0.0115                  293.8065394848543
0.0035                    -0.0105                  293.85272211823656
0.0035                    -0.0095                  293.8654161913196
0.0035                    -0.0085                  293.82621528090533
0.0035                    -0.0075                  293.75031236405573
0.0035                    -0.0065                  293.70361665827556
0.0035                    -0.0055                  293.63754419292525
0.0035                    -0.0045                  293.623941922334
0.0035                    -0.0035                  293.596425016063
0.0035                    -0.0025                  293.59796516627887
0.0035                    -0.0015                  293.60277004591154
0.0035                    -5.0E-4                  293.61626121076677
0.0035                    5.0E-4                   293.63304290623927
0.0035                    0.0015                   293.6609182166733
0.0035                    0.0025                   293.6864498996414
0.0035                    0.0035                   293.7195793520743
0.0035                    0.0045                   293.7537467646113
0.0035                    0.0055                   293.77894498562955
0.0035                    0.0065                   293.8075115116989
0.0035                    0.0075                   293.84706778377586
0.0035                    0.0085                   293.8646435267006
0.0035                    0.0095                   293.8961474815403
0.0035                    0.0105                   293.9287073604397
0.0035                    0.0115                   293.9249033663118
0.0035                    0.0125                   293.83760538831905
0.0035                    0.0135                   293.67218119955817
0.0035                    0.0145                   293.3914517580265
0.0035                    0.0155                   293.1977195066676
0.0035                    0.0165                   293.1604516624884
0.0035                    0.0175                   293.15779321595716
0.0035                    0.0185                   293.15768321451867
0.0035                    0.0195                   293.1575007072584
0.0035                    0.0205                   293.1578445977789
0.0035                    0.0215                   293.1603292847036
0.0035                    0.0225                   293.17383279326424
0.0035                    0.0235                   293.30492490932045
0.0035                    0.0245                   293.8370169823539
0.0035                    0.0255                   294.2462840640702
0.0035                    0.0265                   294.25060609926845
0.0035                    0.0275                   294.25549554001583
0.0035                    0.0285                   294.25962568959136
0.0035                    0.0295                   294.26321808017093
0.0035                    0.0305                   294.2658523148386
0.0035                    0.0315                   294.2668709998419
0.0045                    -0.0315                  296.42929884346626
0.0045                    -0.0305                  296.4281398880032
0.0045                    -0.0295                  296.4269809325402
0.0045                    -0.0285                  296.42508461219614
0.0045                    -0.0275                  296.42249889386653
0.0045                    -0.0265                  296.41952314926306
0.0045                    -0.0255                  296.4158538429468
0.0045                    -0.0245                  296.41139468112925
0.0045                    -0.0235                  296.4061980572281
0.0045                    -0.0225                  296.4004184156918
0.0045                    -0.0215                  296.3935555988384
0.0045                    -0.0205                  296.38663421184367
0.0045                    -0.0195                  296.37810976227405
0.0045                    -0.0185                  296.3695011296015
0.0045                    -0.0175                  296.35977696936897
0.0045                    -0.0165                  296.34918813043566
0.0045                    -0.0155                  296.33780415668787
0.0045                    -0.0145                  296.32619747302476
0.0045                    -0.0135                  295.1469620143213
0.0045                    -0.0125                  293.90348052770935
0.0045                    -0.0115                  293.7424341120161
0.0045                    -0.0105                  293.69736901031683
0.0045                    -0.0095                  293.6243800384203
0.0045                    -0.0085                  293.536214008683
0.0045                    -0.0075                  293.49863808436885
0.0045                    -0.0065                  293.46848596696555
0.0045                    -0.0055                  293.4464709676841
0.0045                    -0.0045                  293.4318246604454
0.0045                    -0.0035                  293.42601787095407
0.0045                    -0.0025                  293.4250703280746
0.0045                    -0.0015                  293.43522714907874
0.0045                    -5.0E-4                  293.4446341789252
0.0045                    5.0E-4                   293.45665963767624
0.0045                    0.0015                   293.46808431197076
0.0045                    0.0025                   293.4873659814308
0.0045                    0.0035                   293.51514379613525
0.0045                    0.0045                   293.5290184198375
0.0045                    0.0055                   293.53800278919414
0.0045                    0.0065                   293.55395659640135
0.0045                    0.0075                   293.54936908759635
0.0045                    0.0085                   293.5634435115119
0.0045                    0.0095                   293.5661831158816
0.0045                    0.0105                   293.5393818209494
0.0045                    0.0115                   293.52103121144637
0.0045                    0.0125                   293.43805958586563
0.0045                    0.0135                   293.3111003667547
0.0045                    0.0145                   293.21988214124616
0.0045                    0.0155                   293.1687066986934
0.0045                    0.0165                   293.16162944406426
0.0045                    0.0175                   293.16019574309144
0.0045                    0.0185                   293.1602104820762
0.0045                    0.0195                   293.16020328811624
0.0045                    0.0205                   293.16091429252276
0.0045                    0.0215                   293.166326519951
0.0045                    0.0225                   293.1853630917343
0.0045                    0.0235                   293.322412087213
0.0045                    0.0245                   293.8578764358765
0.0045                    0.0255                   294.2531260511379
0.0045                    0.0265                   294.25743997886116
0.0045                    0.0275                   294.2613742639345
0.0045                    0.0285                   294.2647461412767
0.0045                    0.0295                   294.2674908307841
0.0045                    0.0305                   294.2692201915417
0.0045                    0.0315                   294.2702969402036
0.0055                    -0.0315                  296.4268812347292
0.0055                    -0.0305                  296.4261580175846
0.0055                    -0.0295                  296.4252417729307
0.0055                    -0.0285                  296.4235667530564
0.0055                    -0.0275                  296.42064281536915
0.0055                    -0.0265                  296.4174752897835
0.0055                    -0.0255                  296.4139801846636
0.0055                    -0.0245                  296.4094175742921
0.0055                    -0.0235                  296.4043053350162
0.0055                    -0.0225                  296.39845566586007
0.0055                    -0.0215                  296.39171763240773
0.0055                    -0.0205                  296.3841296707487
0.0055                    -0.0195                  296.37575276641104
0.0055                    -0.0185                  296.3663929441721
0.0055                    -0.0175                  296.356157442089
0.0055                    -0.0165                  296.3447567002434
0.0055                    -0.0155                  296.3320365820371
0.0055                    -0.0145                  296.3153552106641
0.0055                    -0.0135                  293.98394856704454
0.0055                    -0.0125                  293.62123702599325
0.0055                    -0.0115                  293.56255732067984
0.0055                    -0.0105                  293.5074412856227
0.0055                    -0.0095                  293.4579900979298
0.0055                    -0.0085                  293.427954803585
0.0055                    -0.0075                  293.4049149440124
0.0055                    -0.0065                  293.38081190497934
0.0055                    -0.0055                  293.3571768795738
0.0055                    -0.0045                  293.34364813326334
0.0055                    -0.0035                  293.33360864510337
0.0055                    -0.0025                  293.33145234126675
0.0055                    -0.0015                  293.3287881945902
0.0055                    -5.0E-4                  293.32172013627604
0.0055                    5.0E-4                   293.31734845505684
0.0055                    0.0015                   293.32624696045957
0.0055                    0.0025                   293.3224756569062
0.0055                    0.0035                   293.32172688537986
0.0055                    0.0045                   293.31049462252554
0.0055                    0.0055                   293.3105906999467
0.0055                    0.0065                   293.30606212936743
0.0055                    0.0075                   293.32146101120185
0.0055                    0.0085                   293.28553973915194
0.0055                    0.0095                   293.2897841628936
0.0055                    0.0105                   293.2742005481977
0.0055                    0.0115                   293.2348985130656
0.0055                    0.0125                   293.2199581395564
0.0055                    0.0135                   293.2005464601398
0.0055                    0.0145                   293.1743675558277
0.0055                    0.0155                   293.1684574865293
0.0055                    0.0165                   293.16358892292334
0.0055                    0.0175                   293.1631828892285
0.0055                    0.0185                   293.16339263999464
0.0055                    0.0195                   293.16329612436715
0.0055                    0.0205                   293.16558545922044
0.0055                    0.0215                   293.17228269843804
0.0055                    0.0225                   293.1927199742337
0.0055                    0.0235                   293.33014163466817
0.0055                    0.0245                   293.8241461396019
0.0055                    0.0255                   294.22636985354626
0.0055                    0.0265                   294.2637570404405
0.0055                    0.0275                   294.26673118898395
0.0055                    0.0285                   294.2694184754926
0.0055                    0.0295                   294.27145262168244
0.0055                    0.0305                   294.27293222676457
0.0055                    0.0315                   294.2737923027224
0.0065                    -0.0315                  296.4244308474762
0.0065                    -0.0305                  296.4237076303316
0.0065                    -0.0295                  296.422984413187
0.0065                    -0.0285                  296.42160557100055
0.0065                    -0.0275                  296.41844941031616
0.0065                    -0.0265                  296.4152932496318
0.0065                    -0.0255                  296.41192399689106
0.0065                    -0.0245                  296.4071278567003
0.0065                    -0.0235                  296.40229149678447
0.0065                    -0.0225                  296.396192015671
0.0065                    -0.0215                  296.3896927192861
0.0065                    -0.0205                  296.38174235050326
0.0065                    -0.0195                  296.3731058048301
0.0065                    -0.0185                  296.3632551015987
0.0065                    -0.0175                  296.3524804589758
0.0065                    -0.0165                  296.34077618107807
0.0065                    -0.0155                  296.32754645016445
0.0065                    -0.0145                  294.7891949852329
0.0065                    -0.0135                  293.62816744042993
0.0065                    -0.0125                  293.4933399232368
0.0065                    -0.0115                  293.4468493584117
0.0065                    -0.0105                  293.41219851601517
0.0065                    -0.0095                  293.38565454139393
0.0065                    -0.0085                  293.3650164031354
0.0065                    -0.0075                  293.35185946703155
0.0065                    -0.0065                  293.3400562542833
0.0065                    -0.0055                  293.3236964527544
0.0065                    -0.0045                  293.3116870947043
0.0065                    -0.0035                  293.2998491195247
0.0065                    -0.0025                  293.29516659827954
0.0065                    -0.0015                  293.28897122182036
0.0065                    -5.0E-4                  293.28203033360876
0.0065                    5.0E-4                   293.27541290451154
0.0065                    0.0015                   293.2696260460356
0.0065                    0.0025                   293.26189980281
0.0065                    0.0035                   293.25784569019993
0.0065                    0.0045                   293.2553442597319
0.0065                    0.0055                   293.24354744464216
0.0065                    0.0065                   293.2415786372354
0.0065                    0.0075                   293.23124284477734
0.0065                    0.0085                   293.2169197192526
0.0065                    0.0095                   293.2050393231231
0.0065                    0.0105                   293.19565828351955