% Model:              模型结构导入comsolBench.mph
% Version:            COMSOL 6.2.0.339
% Date:               May 12 2026, 14:12
% Dimension:          2
% Nodes:              4096
% Expressions:        1
% Description:        温度
% Length unit:        m
% x                       y                        T (K)
5.0E-4                    -0.0315                  294.4322763080272
5.0E-4                    -0.0305                  294.43081291103306
5.0E-4                    -0.0295                  294.42934543556896
5.0E-4                    -0.0285                  294.42787796010475
5.0E-4                    -0.0275                  294.42549091105496
5.0E-4                    -0.0265                  294.421404219864
5.0E-4                    -0.0255                  294.4173175286729
5.0E-4                    -0.0245                  294.4132308374819
5.0E-4                    -0.0235                  294.40848722552437
5.0E-4                    -0.0225                  294.40227613017004
5.0E-4                    -0.0215                  294.3959370965199
5.0E-4                    -0.0205                  294.38959806286977
5.0E-4                    -0.0195                  294.38282706956556
5.0E-4                    -0.0185                  294.3750211179314
5.0E-4                    -0.0175                  294.367102441518
5.0E-4                    -0.0165                  294.3591837651046
5.0E-4                    -0.0155                  294.35084779273564
5.0E-4                    -0.0145                  294.3420521788415
5.0E-4                    -0.0135                  294.3332565649474
5.0E-4                    -0.0125                  294.32433353691346
5.0E-4                    -0.0115                  294.31539182284484
5.0E-4                    -0.0105                  294.3066599108323
5.0E-4                    -0.0095                  294.2984954332275
5.0E-4                    -0.0085                  294.2914314113604
5.0E-4                    -0.0075                  294.2859825035081
5.0E-4                    -0.0065                  294.28324341977043
5.0E-4                    -0.0055                  294.19021229806486
5.0E-4                    -0.0045                  293.91496991497473
5.0E-4                    -0.0035                  293.1798486411964
5.0E-4                    -0.0025                  293.15028865686014
5.0E-4                    -0.0015                  293.15027988632903
5.0E-4                    -5.0E-4                  293.15027116013437
5.0E-4                    5.0E-4                   293.1502951417589
5.0E-4                    0.0015                   293.15025732807635
5.0E-4                    0.0025                   293.1502366531921
5.0E-4                    0.0035                   293.26228935739755
5.0E-4                    0.0045                   294.87779576375715
5.0E-4                    0.0055                   295.3233603959495
5.0E-4                    0.0065                   295.52906817446416
5.0E-4                    0.0075                   295.5585342740612
5.0E-4                    0.0085                   295.5596714999598
5.0E-4                    0.0095                   295.5616059761193
5.0E-4                    0.0105                   295.56412405719396
5.0E-4                    0.0115                   295.56697815859326
5.0E-4                    0.0125                   295.570050761454
5.0E-4                    0.0135                   295.57316013361253
5.0E-4                    0.0145                   295.5762913125548
5.0E-4                    0.0155                   295.57939869570845
5.0E-4                    0.0165                   295.58230607266955
5.0E-4                    0.0175                   295.58514113731115
5.0E-4                    0.0185                   295.58797620195276
5.0E-4                    0.0195                   295.59052378604474
5.0E-4                    0.0205                   295.59280116738546
5.0E-4                    0.0215                   295.59507405273655
5.0E-4                    0.0225                   295.5973469380876
5.0E-4                    0.0235                   295.59944086634226
5.0E-4                    0.0245                   295.6009698531824
5.0E-4                    0.0255                   295.60240136605523
5.0E-4                    0.0265                   295.6038328789281
5.0E-4                    0.0275                   295.6052455279737
5.0E-4                    0.0285                   295.6061482503423
5.0E-4                    0.0295                   295.60674526168407
5.0E-4                    0.0305                   295.60734227302584
5.0E-4                    0.0315                   295.60793928436766
0.0015                    -0.0315                  294.43146972502467
0.0015                    -0.0305                  294.43062642655946
0.0015                    -0.0295                  294.42917118650547
0.0015                    -0.0285                  294.4275599831733
0.0015                    -0.0275                  294.4245797466024
0.0015                    -0.0265                  294.4211902962158
0.0015                    -0.0255                  294.4171036050248
0.0015                    -0.0245                  294.4126776610085
0.0015                    -0.0235                  294.40740360100034
0.0015                    -0.0225                  294.4018467404279
0.0015                    -0.0215                  294.3955077067777
0.0015                    -0.0205                  294.38891719507336
0.0015                    -0.0195                  294.3816099526373
0.0015                    -0.0185                  294.37407756668364
0.0015                    -0.0175                  294.3661588902702
0.0015                    -0.0165                  294.35805916505393
0.0015                    -0.0155                  294.34970056170147
0.0015                    -0.0145                  294.34102716403135
0.0015                    -0.0135                  294.33215935013504
0.0015                    -0.0125                  294.32323742320295
0.0015                    -0.0115                  294.3143144781609
0.0015                    -0.0105                  294.30541119339887
0.0015                    -0.0095                  294.29670426567276
0.0015                    -0.0085                  294.2886600025562
0.0015                    -0.0075                  294.2824979670492
0.0015                    -0.0065                  294.2790689620668
0.0015                    -0.0055                  294.0838614151086
0.0015                    -0.0045                  293.79945228190275
0.0015                    -0.0035                  293.20959047997064
0.0015                    -0.0025                  293.1502670720769
0.0015                    -0.0015                  293.15086357797355
0.0015                    -5.0E-4                  293.1507644460177
0.0015                    5.0E-4                   293.1508008294182
0.0015                    0.0015                   293.1502639608391
0.0015                    0.0025                   293.15079222012884
0.0015                    0.0035                   293.4146733603422
0.0015                    0.0045                   294.55091082893875
0.0015                    0.0055                   294.93660533190115
0.0015                    0.0065                   295.3973892674045
0.0015                    0.0075                   295.5560354403085
0.0015                    0.0085                   295.55779811396354
0.0015                    0.0095                   295.56001079273324
0.0015                    0.0105                   295.5628024083966
0.0015                    0.0115                   295.566063433142
0.0015                    0.0125                   295.5690553086554
0.0015                    0.0135                   295.5721658645355
0.0015                    0.0145                   295.57528497356157
0.0015                    0.0155                   295.5783173239654
0.0015                    0.0165                   295.5812987959982
0.0015                    0.0175                   295.5841775538339
0.0015                    0.0185                   295.5868643093806
0.0015                    0.0195                   295.58924733266963
0.0015                    0.0205                   295.5915975633875
0.0015                    0.0215                   295.5938704487386
0.0015                    0.0225                   295.5960660284895
0.0015                    0.0235                   295.5979295688636
0.0015                    0.0245                   295.59970650716866
0.0015                    0.0255                   295.6011380200415
0.0015                    0.0265                   295.6025695329144
0.0015                    0.0275                   295.6038504286761
0.0015                    0.0285                   295.6050675931974
0.0015                    0.0295                   295.6056895492572
0.0015                    0.0305                   295.60628656059896
0.0015                    0.0315                   295.6062938557719
0.0025                    -0.0315                  294.4306631420222
0.0025                    -0.0305                  294.42981984355697
0.0025                    -0.0295                  294.4289765450918
0.0025                    -0.0285                  294.4266278441627
0.0025                    -0.0275                  294.42364760759176
0.0025                    -0.0265                  294.4206673710208
0.0025                    -0.0255                  294.41686809649275
0.0025                    -0.0245                  294.41159403648453
0.0025                    -0.0235                  294.4063199764763
0.0025                    -0.0225                  294.4010459164681
0.0025                    -0.0215                  294.39500732058127
0.0025                    -0.0205                  294.38770007814514
0.0025                    -0.0195                  294.380392835709
0.0025                    -0.0185                  294.3730855932729
0.0025                    -0.0175                  294.3651861721638
0.0025                    -0.0165                  294.35682756881135
0.0025                    -0.0155                  294.34846896545884
0.0025                    -0.0145                  294.3399619272079
0.0025                    -0.0135                  294.33062499352536
0.0025                    -0.0125                  294.3212880598428
0.0025                    -0.0115                  294.3117100680745
0.0025                    -0.0105                  294.30228911048994
0.0025                    -0.0095                  294.29282271296
0.0025                    -0.0085                  294.28351152758586
0.0025                    -0.0075                  294.2755072894451
0.0025                    -0.0065                  294.26979273185003
0.0025                    -0.0055                  294.025818887827
0.0025                    -0.0045                  293.6010277895346
0.0025                    -0.0035                  293.2297856712794
0.0025                    -0.0025                  293.1502918982263
0.0025                    -0.0015                  293.15129163247775
0.0025                    -5.0E-4                  293.1512666476568
0.0025                    5.0E-4                   293.1512171160158
0.0025                    0.0015                   293.14869147344564
0.0025                    0.0025                   293.16714515955147
0.0025                    0.0035                   293.48848792001036
0.0025                    0.0045                   294.4101012582144
0.0025                    0.0055                   294.7757589198534
0.0025                    0.0065                   295.298748116902
0.0025                    0.0075                   295.5517654196154
0.0025                    0.0085                   295.5541575473177
0.0025                    0.0095                   295.556944654041
0.0025                    0.0105                   295.5603023131753
0.0025                    0.0115                   295.5633876386447
0.0025                    0.0125                   295.5665567695943
0.0025                    0.0135                   295.57001995228916
0.0025                    0.0145                   295.57328328379566
0.0025                    0.0155                   295.57648921447975
0.0025                    0.0165                   295.5797390314498
0.0025                    0.0175                   295.5829786280109
0.0025                    0.0185                   295.58558785600553
0.0025                    0.0195                   295.58797087929463
0.0025                    0.0205                   295.5903539025836
0.0025                    0.0215                   295.5926668447405
0.0025                    0.0225                   295.5945547310108
0.0025                    0.0235                   295.5964182713849
0.0025                    0.0245                   295.5982818117591
0.0025                    0.0255                   295.5998746740277
0.0025                    0.0265                   295.6012381648571
0.0025                    0.0275                   295.6024553293784
0.0025                    0.0285                   295.6036724938998
0.0025                    0.0295                   295.60463383683026
0.0025                    0.0305                   295.6046446564824
0.0025                    0.0315                   295.6046466649367
0.0035                    -0.0315                  294.42985655901964
0.0035                    -0.0305                  294.4289536028006
0.0035                    -0.0295                  294.4276833551134
0.0035                    -0.0285                  294.4254442885466
0.0035                    -0.0275                  294.4224925483021
0.0035                    -0.0265                  294.4195408080577
0.0035                    -0.0255                  294.41553213696966
0.0035                    -0.0245                  294.410244985144
0.0035                    -0.0235                  294.4049578333183
0.0035                    -0.0225                  294.39967068149264
0.0035                    -0.0215                  294.3931975363681
0.0035                    -0.0205                  294.3859934080898
0.0035                    -0.0195                  294.37878927981154
0.0035                    -0.0185                  294.3715851515333
0.0035                    -0.0175                  294.3632668326999
0.0035                    -0.0165                  294.35447990690045
0.0035                    -0.0155                  294.345692981101
0.0035                    -0.0145                  294.33689460550056
0.0035                    -0.0135                  294.32782047529435
0.0035                    -0.0125                  294.31837726770493
0.0035                    -0.0115                  294.3087585280352
0.0035                    -0.0105                  294.2981101727401
0.0035                    -0.0095                  294.28734903757106
0.0035                    -0.0085                  294.27630838528324
0.0035                    -0.0075                  294.26521874444023
0.0035                    -0.0065                  294.2550438984238
0.0035                    -0.0055                  293.9514121531993
0.0035                    -0.0045                  293.49958493489675
0.0035                    -0.0035                  293.2098797343916
0.0035                    -0.0025                  293.15344614343303
0.0035                    -0.0015                  293.1515952225796
0.0035                    -5.0E-4                  293.1517442663019
0.0035                    5.0E-4                   293.1507624174561
0.0035                    0.0015                   293.1497933011047
0.0035                    0.0025                   293.221755067872
0.0035                    0.0035                   293.58493278412476
0.0035                    0.0045                   294.2918297040884
0.0035                    0.0055                   294.70517126452376
0.0035                    0.0065                   295.2535225258007
0.0035                    0.0075                   295.5458405706097
0.0035                    0.0085                   295.54929474466553
0.0035                    0.0095                   295.5527947417467
0.0035                    0.0105                   295.55634281211
0.0035                    0.0115                   295.56004899768544
0.0035                    0.0125                   295.56371407020237
0.0035                    0.0135                   295.56686671415343
0.0035                    0.0145                   295.5698462364887
0.0035                    0.0155                   295.57297543047196
0.0035                    0.0165                   295.57622524744204
0.0035                    0.0175                   295.5790780261299
0.0035                    0.0185                   295.58181317956877
0.0035                    0.0195                   295.5846184965724
0.0035                    0.0205                   295.5874238135759
0.0035                    0.0215                   295.5900852406622
0.0035                    0.0225                   295.59228184158644
0.0035                    0.0235                   295.59447844251076
0.0035                    0.0245                   295.5966750434351
0.0035                    0.0255                   295.598611328014
0.0035                    0.0265                   295.59960573941413
0.0035                    0.0275                   295.6003791260763
0.0035                    0.0285                   295.6011525127385
0.0035                    0.0295                   295.60193422378853
0.0035                    0.0305                   295.6027316047406
0.0035                    0.0315                   295.6029994741014
0.0045                    -0.0315                  294.4286135172215
0.0045                    -0.0305                  294.4273432695342
0.0045                    -0.0295                  294.426073021847
0.0045                    -0.0285                  294.42415189633624
0.0045                    -0.0275                  294.4212001560917
0.0045                    -0.0265                  294.41756941554354
0.0045                    -0.0255                  294.413419384596
0.0045                    -0.0245                  294.4086583543984
0.0045                    -0.0235                  294.40337120257277
0.0045                    -0.0225                  294.3973392499495
0.0045                    -0.0215                  294.39069798541817
0.0045                    -0.0205                  294.38371094863714
0.0045                    -0.0195                  294.37650682035894
0.0045                    -0.0185                  294.36832794220277
0.0045                    -0.0175                  294.3598833561874
0.0045                    -0.0165                  294.3512816781917
0.0045                    -0.0155                  294.3424947523923
0.0045                    -0.0145                  294.33368950706347
0.0045                    -0.0135                  294.3248808981415
0.0045                    -0.0125                  294.31493482469773
0.0045                    -0.0115                  294.30470839112843
0.0045                    -0.0105                  294.2940927349065
0.0045                    -0.0095                  294.2820976955909
0.0045                    -0.0085                  294.268113651278
0.0045                    -0.0075                  294.25280976833545
0.0045                    -0.0065                  294.23654384420183
0.0045                    -0.0055                  293.87449220914004
0.0045                    -0.0045                  293.41758500082784
0.0045                    -0.0035                  293.1973548880966
0.0045                    -0.0025                  293.15312200839793
0.0045                    -0.0015                  293.15202766716294
0.0045                    -5.0E-4                  293.15192800807307
0.0045                    5.0E-4                   293.1521797610059
0.0045                    0.0015                   293.15933504454273
0.0045                    0.0025                   293.26232521499196
0.0045                    0.0035                   293.5587055136493
0.0045                    0.0045                   294.2156104112562
0.0045                    0.0055                   294.6124851829193
0.0045                    0.0065                   295.2084764815122
0.0045                    0.0075                   295.5382528570625
0.0045                    0.0085                   295.5432458561007
0.0045                    0.0095                   295.54757428131984
0.0045                    0.0105                   295.5517402789594
0.0045                    0.0115                   295.5556929103468
0.0045                    0.0125                   295.55927231883976
0.0045                    0.0135                   295.56305078523656
0.0045                    0.0145                   295.56640918918174
0.0045                    0.0155                   295.56946164646416
0.0045                    0.0165                   295.57251579684237
0.0045                    0.0175                   295.5751774242489
0.0045                    0.0185                   295.57785262820437
0.0045                    0.0195                   295.5806579452079
0.0045                    0.0205                   295.58343828965405
0.0045                    0.0215                   295.5860375151676
0.0045                    0.0225                   295.5884103218459
0.0045                    0.0235                   295.59060692277023
0.0045                    0.0245                   295.5927645350904
0.0045                    0.0255                   295.5943621861763
0.0045                    0.0265                   295.59600084755016
0.0045                    0.0275                   295.59697377640214
0.0045                    0.0285                   295.59774716306435
0.0045                    0.0295                   295.59853173387586
0.0045                    0.0305                   295.5993291148279
0.0045                    0.0315                   295.59993407122937
0.0055                    -0.0315                  294.42656073180444
0.0055                    -0.0305                  294.4255725342145
0.0055                    -0.0295                  294.42446268858066
0.0055                    -0.0285                  294.42285950412577
0.0055                    -0.0275                  294.41948223519535
0.0055                    -0.0265                  294.4153322042479
0.0055                    -0.0255                  294.4111821733004
0.0055                    -0.0245                  294.4070321423529
0.0055                    -0.0235                  294.4014199218819
0.0055                    -0.0225                  294.3947786573506
0.0055                    -0.0215                  294.3881373928193
0.0055                    -0.0205                  294.3814284891845
0.0055                    -0.0195                  294.3731985311829
0.0055                    -0.0185                  294.3648522135329
0.0055                    -0.0175                  294.3564030186433
0.0055                    -0.0165                  294.34789531487957
0.0055                    -0.0155                  294.33929301754836
0.0055                    -0.0145                  294.3298197891482
0.0055                    -0.0135                  294.32030645248096
0.0055                    -0.0125                  294.31102659598184
0.0055                    -0.0115                  294.30075277772556
0.0055                    -0.0105                  294.28994559032566
0.0055                    -0.0095                  294.2764202432056
0.0055                    -0.0085                  294.26089182409646
0.0055                    -0.0075                  294.2409165246488
0.0055                    -0.0065                  294.21438617705326
0.0055                    -0.0055                  293.78887682616846
0.0055                    -0.0045                  293.34159813123586
0.0055                    -0.0035                  293.1806314048253
0.0055                    -0.0025                  293.1538292024369
0.0055                    -0.0015                  293.1526531677401
0.0055                    -5.0E-4                  293.1522152631306
0.0055                    5.0E-4                   293.15269537702073
0.0055                    0.0015                   293.166273892134
0.0055                    0.0025                   293.2376444872517
0.0055                    0.0035                   293.5436937160443
0.0055                    0.0045                   294.0303189614241
0.0055                    0.0055                   294.3292594880781
0.0055                    0.0065                   295.0358722609978
0.0055                    0.0075                   295.5284027418104
0.0055                    0.0085                   295.5367337811159
0.0055                    0.0095                   295.54150097992306
0.0055                    0.0105                   295.5461314303524
0.0055                    0.0115                   295.55045911484723
0.0055                    0.0125                   295.5545052716319
0.0055                    0.0135                   295.55830849479656
0.0055                    0.0145                   295.5621217389053
0.0055                    0.0155                   295.56593191966067
0.0055                    0.0165                   295.5686151949614
0.0055                    0.0175                   295.5712768223679
0.0055                    0.0185                   295.5739384497744
0.0055                    0.0195                   295.5766973938435
0.0055                    0.0205                   295.5793669375428
0.0055                    0.0215                   295.5819661630563
0.0055                    0.0225                   295.5845388021053
0.0055                    0.0235                   295.58658161135895
0.0055                    0.0245                   295.58817898422217
0.0055                    0.0255                   295.58977720339897
0.0055                    0.0265                   295.59141586477284
0.0055                    0.0275                   295.5930545261467
0.0055                    0.0285                   295.5943418133902
0.0055                    0.0295                   295.5951292439631
0.0055                    0.0305                   295.59527712464404
0.0055                    0.0315                   295.5952522305174
0.0065                    -0.0315                  294.42449363977863
0.0065                    -0.0305                  294.4235054421888
0.0065                    -0.0295                  294.4225172445989
0.0065                    -0.0285                  294.4213069229694
0.0065                    -0.0275                  294.41717701328497
0.0065                    -0.0265                  294.4130035313245
0.0065                    -0.0255                  294.408830049364
0.0065                    -0.0245                  294.40465656740355
0.0065                    -0.0235                  294.39850407459244
0.0065                    -0.0225                  294.39178991195985
0.0065                    -0.0215                  294.38507574932726
0.0065                    -0.0205                  294.37758845351914
0.0065                    -0.0195                  294.3692711295956
0.0065                    -0.0185                  294.36110506371716
0.0065                    -0.0175                  294.35208216311275
0.0065                    -0.0165                  294.3431109154756
0.0065                    -0.0155                  294.33367995534223
0.0065                    -0.0145                  294.3250054097947
0.0065                    -0.0135                  294.3156352798872
0.0065                    -0.0125                  294.3064107916798
0.0065                    -0.0115                  294.2968939707891
0.0065                    -0.0105                  294.28590302543574
0.0065                    -0.0095                  294.2730391947365
0.0065                    -0.0085                  294.256729574461
0.0065                    -0.0075                  294.23379352513405
0.0065                    -0.0065                  294.19292389652026
0.0065                    -0.0055                  293.6770256453364
0.0065                    -0.0045                  293.2672673350046
0.0065                    -0.0035                  293.17648122572456
0.0065                    -0.0025                  293.1539523275495
0.0065                    -0.0015                  293.15310274514934
0.0065                    -5.0E-4                  293.1527414083034
0.0065                    5.0E-4                   293.1525887983787
0.0065                    0.0015                   293.1666076143936
0.0065                    0.0025                   293.264077455615
0.0065                    0.0035                   293.4841943452446
0.0065                    0.0045                   293.9086636651692
0.0065                    0.0055                   294.092957133479
0.0065                    0.0065                   294.51289925016056
0.0065                    0.0075                   295.32182225133903
0.0065                    0.0085                   295.52975923537883
0.0065                    0.0095                   295.5346345751716
0.0065                    0.0105                   295.5397811678039
0.0065                    0.0115                   295.5445658413544