% Model:              模型结构导入comsolBench.mph
% Version:            COMSOL 6.2.0.339
% Date:               May 12 2026, 14:14
% Dimension:          2
% Nodes:              4096
% Expressions:        1
% Description:        温度
% Length unit:        m
% x                       y                        T (K)
5.0E-4                    -0.0315                  304.02877837418293
5.0E-4                    -0.0305                  304.0303697735741
5.0E-4                    -0.0295                  304.0319611729652
5.0E-4                    -0.0285                  304.03467806748006
5.0E-4                    -0.0275                  304.038780606163
5.0E-4                    -0.0265                  304.0428779153448
5.0E-4                    -0.0255                  304.04774602884174
5.0E-4                    -0.0245                  304.05245807993975
5.0E-4                    -0.0235                  304.05732360393927
5.0E-4                    -0.0225                  304.06178669687404
5.0E-4                    -0.0215                  304.06591288003904
5.0E-4                    -0.0205                  304.0695751717832
5.0E-4                    -0.0195                  304.0726502175693
5.0E-4                    -0.0185                  304.51445571614363
5.0E-4                    -0.0175                  305.1706140736661
5.0E-4                    -0.0165                  305.56973454759986
5.0E-4                    -0.0155                  305.80241605251854
5.0E-4                    -0.0145                  305.9307682513739
5.0E-4                    -0.0135                  305.9778693201946
5.0E-4                    -0.0125                  305.935217429359
5.0E-4                    -0.0115                  305.7517123573532
5.0E-4                    -0.0105                  305.35908499987784
5.0E-4                    -0.0095                  304.7315251597406
5.0E-4                    -0.0085                  303.92664994649346
5.0E-4                    -0.0075                  303.05489114392964
5.0E-4                    -0.0065                  302.2111503075845
5.0E-4                    -0.0055                  301.45469423514845
5.0E-4                    -0.0045                  300.8286577014405
5.0E-4                    -0.0035                  300.35434659596
5.0E-4                    -0.0025                  300.02735672885393
5.0E-4                    -0.0015                  299.7453385702056
5.0E-4                    -5.0E-4                  298.28982888305734
5.0E-4                    5.0E-4                   293.3042359129463
5.0E-4                    0.0015                   293.1525851897836
5.0E-4                    0.0025                   293.15165050983364
5.0E-4                    0.0035                   293.15148571325744
5.0E-4                    0.0045                   293.1514188416752
5.0E-4                    0.0055                   293.1514302940257
5.0E-4                    0.0065                   293.15149813391116
5.0E-4                    0.0075                   293.1516492584055
5.0E-4                    0.0085                   293.15188986453865
5.0E-4                    0.0095                   293.15223899939133
5.0E-4                    0.0105                   293.152786393449
5.0E-4                    0.0115                   293.15370120301685
5.0E-4                    0.0125                   293.15534708828795
5.0E-4                    0.0135                   293.15874474633426
5.0E-4                    0.0145                   293.21961399351284
5.0E-4                    0.0155                   294.5832062749778
5.0E-4                    0.0165                   298.0438859136897
5.0E-4                    0.0175                   299.38005725244693
5.0E-4                    0.0185                   299.5964498875829
5.0E-4                    0.0195                   299.5559884195205
5.0E-4                    0.0205                   299.40688016737437
5.0E-4                    0.0215                   299.1063888910734
5.0E-4                    0.0225                   298.54014310707413
5.0E-4                    0.0235                   298.1471244435532
5.0E-4                    0.0245                   298.14509762581093
5.0E-4                    0.0255                   298.14324852120774
5.0E-4                    0.0265                   298.14153088696133
5.0E-4                    0.0275                   298.13995876452816
5.0E-4                    0.0285                   298.1387261831586
5.0E-4                    0.0295                   298.1374969877656
5.0E-4                    0.0305                   298.1372827825978
5.0E-4                    0.0315                   298.13701530414284
0.0015                    -0.0315                  304.0259851920485
0.0015                    -0.0305                  304.02794981440746
0.0015                    -0.0295                  304.02970074171026
0.0015                    -0.0285                  304.0326967697998
0.0015                    -0.0275                  304.03694760882547
0.0015                    -0.0265                  304.0413477659634
0.0015                    -0.0255                  304.04654884931745
0.0015                    -0.0245                  304.0514779749043
0.0015                    -0.0235                  304.05654451318765
0.0015                    -0.0225                  304.06120458416535
0.0015                    -0.0215                  304.06545528206965
0.0015                    -0.0205                  304.0690779914695
0.0015                    -0.0195                  304.07210252658604
0.0015                    -0.0185                  304.46467862556875
0.0015                    -0.0175                  305.0435136388512
0.0015                    -0.0165                  305.3637324817729
0.0015                    -0.0155                  305.5441071741779
0.0015                    -0.0145                  305.63451184063604
0.0015                    -0.0135                  305.6752097867604
0.0015                    -0.0125                  305.66079900972727
0.0015                    -0.0115                  305.53452403975166
0.0015                    -0.0105                  305.18634920064414
0.0015                    -0.0095                  304.53988335921105
0.0015                    -0.0085                  303.6009303289595
0.0015                    -0.0075                  302.4745579619141
0.0015                    -0.0065                  301.3001449472679
0.0015                    -0.0055                  300.2926066846127
0.0015                    -0.0045                  299.51507258933964
0.0015                    -0.0035                  298.98144018845454
0.0015                    -0.0025                  298.645746321146
0.0015                    -0.0015                  298.3517140709516
0.0015                    -5.0E-4                  297.4238326353245
0.0015                    5.0E-4                   293.34830929757743
0.0015                    0.0015                   293.1577887361036
0.0015                    0.0025                   293.15491206476133
0.0015                    0.0035                   293.15435458939277
0.0015                    0.0045                   293.1541933881512
0.0015                    0.0055                   293.1542500172134
0.0015                    0.0065                   293.15445479152817
0.0015                    0.0075                   293.15492761777676
0.0015                    0.0085                   293.15562771605335
0.0015                    0.0095                   293.15664083843797
0.0015                    0.0105                   293.1582525143158
0.0015                    0.0115                   293.16082187020163
0.0015                    0.0125                   293.16537496892954
0.0015                    0.0135                   293.17388470751547
0.0015                    0.0145                   293.46176528726664
0.0015                    0.0155                   295.7200407361993
0.0015                    0.0165                   298.6514202154416
0.0015                    0.0175                   299.36791213140583
0.0015                    0.0185                   299.4040348793153
0.0015                    0.0195                   299.3417825770378
0.0015                    0.0205                   299.2164094379335
0.0015                    0.0215                   298.9675784715556
0.0015                    0.0225                   298.49976362368193
0.0015                    0.0235                   298.1457811592728
0.0015                    0.0245                   298.14393932154184
0.0015                    0.0255                   298.1420340205544
0.0015                    0.0265                   298.1402398628173
0.0015                    0.0275                   298.13870447078256
0.0015                    0.0285                   298.1375538521056
0.0015                    0.0295                   298.1359821837005
0.0015                    0.0305                   298.135608158671
0.0015                    0.0315                   298.1346693396335
0.0025                    -0.0315                  304.02303608644195
0.0025                    -0.0305                  304.0232309281161
0.0025                    -0.0295                  304.0262816541661
0.0025                    -0.0285                  304.0301663024139
0.0025                    -0.0275                  304.034401967445
0.0025                    -0.0265                  304.0394395229439
0.0025                    -0.0255                  304.0443421218652
0.0025                    -0.0245                  304.04983060088136
0.0025                    -0.0235                  304.05509405420116
0.0025                    -0.0225                  304.0599884222592
0.0025                    -0.0215                  304.0644339884772
0.0025                    -0.0205                  304.0682523968244
0.0025                    -0.0195                  304.07122936469875
0.0025                    -0.0185                  304.3782534700049
0.0025                    -0.0175                  304.8069905288863
0.0025                    -0.0165                  304.9903857242201
0.0025                    -0.0155                  305.05505865222557
0.0025                    -0.0145                  305.0635744563413
0.0025                    -0.0135                  305.0531757558422
0.0025                    -0.0125                  305.037914248682
0.0025                    -0.0115                  304.9686984812743
0.0025                    -0.0105                  304.7086381588326
0.0025                    -0.0095                  303.99896688287384
0.0025                    -0.0085                  302.80012481147617
0.0025                    -0.0075                  301.2518809171061
0.0025                    -0.0065                  299.7066654968121
0.0025                    -0.0055                  298.5162738421812
0.0025                    -0.0045                  297.72079741366724
0.0025                    -0.0035                  297.20795031355664
0.0025                    -0.0025                  297.063383908996
0.0025                    -0.0015                  297.15559243848094
0.0025                    -5.0E-4                  296.50988987977803
0.0025                    5.0E-4                   293.5179866778766
0.0025                    0.0015                   293.1685823880348
0.0025                    0.0025                   293.15725414304626
0.0025                    0.0035                   293.15742748240973
0.0025                    0.0045                   293.1570715265125
0.0025                    0.0055                   293.15708926379295
0.0025                    0.0065                   293.15746058394416
0.0025                    0.0075                   293.15823240439516
0.0025                    0.0085                   293.1594136951486
0.0025                    0.0095                   293.1610980056839
0.0025                    0.0105                   293.1636384670219
0.0025                    0.0115                   293.1679894891294
0.0025                    0.0125                   293.17539704699544
0.0025                    0.0135                   293.1977374791827
0.0025                    0.0145                   293.5878757690101
0.0025                    0.0155                   296.36194718578247
0.0025                    0.0165                   298.8774515186649
0.0025                    0.0175                   299.1904997716605
0.0025                    0.0185                   299.1234843367988
0.0025                    0.0195                   299.04930527996595
0.0025                    0.0205                   298.9492088296469
0.0025                    0.0215                   298.718874021125
0.0025                    0.0225                   298.34406860277477
0.0025                    0.0235                   298.1434177634384
0.0025                    0.0245                   298.14171017453657
0.0025                    0.0255                   298.13971768788286
0.0025                    0.0265                   298.1380219625705
0.0025                    0.0275                   298.136296007604
0.0025                    0.0285                   298.1351591557304
0.0025                    0.0295                   298.133541796051
0.0025                    0.0305                   298.1332621941617
0.0025                    0.0315                   298.13232337512414
0.0035                    -0.0315                  304.01594559118007
0.0035                    -0.0305                  304.0175322657643
0.0035                    -0.0295                  304.020544503745
0.0035                    -0.0285                  304.02442451029003
0.0035                    -0.0275                  304.02932185309544
0.0035                    -0.0265                  304.03522052235144
0.0035                    -0.0255                  304.04075430990446
0.0035                    -0.0245                  304.0469228259938
0.0035                    -0.0235                  304.05275149418594
0.0035                    -0.0225                  304.05833315380943
0.0035                    -0.0215                  304.06318894932485
0.0035                    -0.0205                  304.0671938866291
0.0035                    -0.0195                  304.07028147948927
0.0035                    -0.0185                  304.27129962273847
0.0035                    -0.0175                  304.50190731920725
0.0035                    -0.0165                  304.50165650084995
0.0035                    -0.0155                  304.3805443251368
0.0035                    -0.0145                  304.2178369377137
0.0035                    -0.0135                  304.05986751610226
0.0035                    -0.0125                  304.0122752474116
0.0035                    -0.0115                  303.93004237226637
0.0035                    -0.0105                  303.73545711640907
0.0035                    -0.0095                  303.07301788713687
0.0035                    -0.0085                  301.6136908265133
0.0035                    -0.0075                  299.61200844080093
0.0035                    -0.0065                  298.12971612159276
0.0035                    -0.0055                  297.1052371683413
0.0035                    -0.0045                  296.57887472260904
0.0035                    -0.0035                  296.2769409422851
0.0035                    -0.0025                  296.26326677203843
0.0035                    -0.0015                  296.60711808007636
0.0035                    -5.0E-4                  296.0623482081321
0.0035                    5.0E-4                   293.57521919713366
0.0035                    0.0015                   293.1948577682765
0.0035                    0.0025                   293.1594240489022
0.0035                    0.0035                   293.1599285479517
0.0035                    0.0045                   293.15994382809066
0.0035                    0.0055                   293.1599596212136
0.0035                    0.0065                   293.1605186526977
0.0035                    0.0075                   293.1615765612162
0.0035                    0.0085                   293.1632406393149
0.0035                    0.0095                   293.1654779046238
0.0035                    0.0105                   293.1694099754517
0.0035                    0.0115                   293.17514479947914
0.0035                    0.0125                   293.1854045241631
0.0035                    0.0135                   293.2196454734536
0.0035                    0.0145                   293.98420454721577
0.0035                    0.0155                   296.7731813050649
0.0035                    0.0165                   298.7571224317053
0.0035                    0.0175                   299.00756554604953
0.0035                    0.0185                   298.9081036820808
0.0035                    0.0195                   298.8288262717098
0.0035                    0.0205                   298.72023627726537
0.0035                    0.0215                   298.42131017696727
0.0035                    0.0225                   298.14264134558476
0.0035                    0.0235                   298.14075022724523
0.0035                    0.0245                   298.13866526770494
0.0035                    0.0255                   298.13648624735026
0.0035                    0.0265                   298.1343171631378
0.0035                    0.0275                   298.1320458907177
0.0035                    0.0285                   298.1309763284333
0.0035                    0.0295                   298.12944321989755
0.0035                    0.0305                   298.12897454800077
0.0035                    0.0315                   298.12897863645327
0.0045                    -0.0315                  304.0069282231924
0.0045                    -0.0305                  304.0077316267578
0.0045                    -0.0295                  304.0123186057443
0.0045                    -0.0285                  304.01720435792845
0.0045                    -0.0275                  304.02319159115376
0.0045                    -0.0265                  304.02970039277534
0.0045                    -0.0255                  304.03643802030604
0.0045                    -0.0245                  304.04317124739123
0.0045                    -0.0235                  304.0499816455259
0.0045                    -0.0225                  304.0562037773112
0.0045                    -0.0215                  304.06173472824156
0.0045                    -0.0205                  304.0661817246678
0.0045                    -0.0195                  304.13463161393025
0.0045                    -0.0185                  304.2014920245905
0.0045                    -0.0175                  304.13978569935466
0.0045                    -0.0165                  303.91225276039415
0.0045                    -0.0155                  303.5756304121585
0.0045                    -0.0145                  303.1503817175868
0.0045                    -0.0135                  302.74071639603073
0.0045                    -0.0125                  302.3884216987836
0.0045                    -0.0115                  302.2374196489842
0.0045                    -0.0105                  302.142877489526
0.0045                    -0.0095                  301.59053557894936
0.0045                    -0.0085                  299.9922015642141
0.0045                    -0.0075                  298.19315613263757
0.0045                    -0.0065                  297.0144612890203
0.0045                    -0.0055                  296.35421103732676
0.0045                    -0.0045                  296.0430978514315
0.0045                    -0.0035                  295.9071129420493
0.0045                    -0.0025                  295.9497940413914
0.0045                    -0.0015                  296.2619059281414
0.0045                    -5.0E-4                  295.52340950445733
0.0045                    5.0E-4                   293.608185278904
0.0045                    0.0015                   293.2215213694421
0.0045                    0.0025                   293.1580415334845
0.0045                    0.0035                   293.16264390378154
0.0045                    0.0045                   293.16286618573326
0.0045                    0.0055                   293.1628874807269
0.0045                    0.0065                   293.16365781361253
0.0045                    0.0075                   293.16501027873164
0.0045                    0.0085                   293.1671138185636
0.0045                    0.0095                   293.17011880367073
0.0045                    0.0105                   293.174991746459
0.0045                    0.0115                   293.1822921632239
0.0045                    0.0125                   293.1948940053904
0.0045                    0.0135                   293.26489911182495
0.0045                    0.0145                   294.23370392982423
0.0045                    0.0155                   296.9603137443788
0.0045                    0.0165                   298.68327772014186
0.0045                    0.0175                   298.86511379716353
0.0045                    0.0185                   298.76133129705266
0.0045                    0.0195                   298.68007987878275
0.0045                    0.0205                   298.5921317056925
0.0045                    0.0215                   298.3456867728398
0.0045                    0.0225                   298.13994139256477
0.0045                    0.0235                   298.1375547910305
0.0045                    0.0245                   298.1347077644152
0.0045                    0.0255                   298.1319715422254
0.0045                    0.0265                   298.1295380965441
0.0045                    0.0275                   298.1269551815971
0.0045                    0.0285                   298.12567220879663
0.0045                    0.0295                   298.1240264395398
0.0045                    0.0305                   298.12277740188665
0.0045                    0.0315                   298.1217992458621
0.0055                    -0.0315                  303.9944536515278
0.0055                    -0.0305                  303.99709719671364
0.0055                    -0.0295                  304.0018819556703
0.0055                    -0.0285                  304.0085481796121
0.0055                    -0.0275                  304.0156655498265
0.0055                    -0.0265                  304.0229846900185
0.0055                    -0.0255                  304.030690322683
0.0055                    -0.0245                  304.0385597324507
0.0055                    -0.0235                  304.04678314381727
0.0055                    -0.0225                  304.05391678600427
0.0055                    -0.0215                  304.1392325604776
0.0055                    -0.0205                  304.17261128480897
0.0055                    -0.0195                  304.1435437472497
0.0055                    -0.0185                  303.97610820608327
0.0055                    -0.0175                  303.6576786891429
0.0055                    -0.0165                  303.2076178344348
0.0055                    -0.0155                  302.6073445251964
0.0055                    -0.0145                  301.8788710936817
0.0055                    -0.0135                  301.01043584617753
0.0055                    -0.0125                  299.97671403595746
0.0055                    -0.0115                  299.76560440933014
0.0055                    -0.0105                  299.70316257279325
0.0055                    -0.0095                  299.4316813872308
0.0055                    -0.0085                  298.4730311068466
0.0055                    -0.0075                  297.1910817543348
0.0055                    -0.0065                  296.36729547629574
0.0055                    -0.0055                  295.8870795403965
0.0055                    -0.0045                  295.76630738771445
0.0055                    -0.0035                  295.7902204406569
0.0055                    -0.0025                  295.9016291944373
0.0055                    -0.0015                  295.9433338156254
0.0055                    -5.0E-4                  294.63778081931156
0.0055                    5.0E-4                   293.7745363872026
0.0055                    0.0015                   293.2212828763004
0.0055                    0.0025                   293.15888521007275
0.0055                    0.0035                   293.16511045360477
0.0055                    0.0045                   293.16581232830845
0.0055                    0.0055                   293.1658728313712
0.0055                    0.0065                   293.1668306277222
0.0055                    0.0075                   293.1684683257769
0.0055                    0.0085                   293.171021974881
0.0055                    0.0095                   293.1746670371173
0.0055                    0.0105                   293.1801958563963
0.0055                    0.0115                   293.18902575406565
0.0055                    0.0125                   293.2045866965324
0.0055                    0.0135                   293.28845065361975
0.0055                    0.0145                   294.37561689843454
0.0055                    0.0155                   297.0797818607789
0.0055                    0.0165                   298.62646181312914
0.0055                    0.0175                   298.7588116813701
0.0055                    0.0185                   298.6365486876572
0.0055                    0.0195                   298.56272259596716
0.0055                    0.0205                   298.5152191334908
0.0055                    0.0215                   298.33186377360414
0.0055                    0.0225                   298.1371885934853
0.0055                    0.0235                   298.1334795651042
0.0055                    0.0245                   298.12974113513366
0.0055                    0.0255                   298.12624486226
0.0055                    0.0265                   298.1232733282352
0.0055                    0.0275                   298.12069253169
0.0055                    0.0285                   298.1185244676767
0.0055                    0.0295                   298.1165328272629
0.0055                    0.0305                   298.1155814403537
0.0055                    0.0315                   298.1146198552709
0.0065                    -0.0315                  303.9785983484145
0.0065                    -0.0305                  303.98209522173113
0.0065                    -0.0295                  303.9889932927098
0.0065                    -0.0285                  303.9975429511087
0.0065                    -0.0275                  304.0062646280305
0.0065                    -0.0265                  304.0151534366965
0.0065                    -0.0255                  304.0238611607038
0.0065                    -0.0245                  304.0324266730003
0.0065                    -0.0235                  304.1313972872408
0.0065                    -0.0225                  304.1983880544216
0.0065                    -0.0215                  304.24055038259525
0.0065                    -0.0205                  304.1397243289025
0.0065                    -0.0195                  303.89755609856513
0.0065                    -0.0185                  303.52967121171855
0.0065                    -0.0175                  303.03108809681936
0.0065                    -0.0165                  302.3443623129743
0.0065                    -0.0155                  301.5211260647688
0.0065                    -0.0145                  300.48877229493036
0.0065                    -0.0135                  299.1379695173439
0.0065                    -0.0125                  298.2977880235462
0.0065                    -0.0115                  298.2961973606003
0.0065                    -0.0105                  298.2945089021238
0.0065                    -0.0095                  298.2920472964043
0.0065                    -0.0085                  297.766608184924
0.0065                    -0.0075                  296.65125886966075
0.0065                    -0.0065                  295.95894624545815
0.0065                    -0.0055                  295.6879327395901
0.0065                    -0.0045                  295.6811523188918
0.0065                    -0.0035                  295.7919224591245
0.0065                    -0.0025                  295.8919793317562
0.0065                    -0.0015                  295.3487432645809
0.0065                    -5.0E-4                  294.32045782363184
0.0065                    5.0E-4                   293.7149536193449
0.0065                    0.0015                   293.2641128207928
0.0065                    0.0025                   293.1626378654439
0.0065                    0.0035                   293.1677806260356
0.0065                    0.0045                   293.1689052605074
0.0065                    0.0055                   293.16893128615544
0.0065                    0.0065                   293.1700627878416
0.0065                    0.0075                   293.17197935329153
0.0065                    0.0085                   293.1748733230047
0.0065                    0.0095                   293.1792449206028
0.0065                    0.0105                   293.1854080715557
0.0065                    0.0115                   293.1954473565305