% Model:              模型结构导入comsolBench.mph
% Version:            COMSOL 6.2.0.339
% Date:               May 12 2026, 14:17
% Dimension:          2
% Nodes:              4096
% Expressions:        1
% Description:        温度
% Length unit:        m
% x                       y                        T (K)
5.0E-4                    -0.0315                  294.8982827098442
5.0E-4                    -0.0305                  294.8986845138241
5.0E-4                    -0.0295                  294.899086317804
5.0E-4                    -0.0285                  294.89973798941776
5.0E-4                    -0.0275                  294.90130147209516
5.0E-4                    -0.0265                  294.902790502495
5.0E-4                    -0.0255                  294.90458675826784
5.0E-4                    -0.0245                  294.9063197232035
5.0E-4                    -0.0235                  294.90818019508765
5.0E-4                    -0.0225                  294.90977702321754
5.0E-4                    -0.0215                  294.91125127263484
5.0E-4                    -0.0205                  294.91242207000846
5.0E-4                    -0.0195                  294.91330627615
5.0E-4                    -0.0185                  294.98543662182294
5.0E-4                    -0.0175                  294.9721662651741
5.0E-4                    -0.0165                  294.8158805422783
5.0E-4                    -0.0155                  294.4848640248428
5.0E-4                    -0.0145                  294.24385252080384
5.0E-4                    -0.0135                  293.67366511118416
5.0E-4                    -0.0125                  293.4299399787266
5.0E-4                    -0.0115                  293.26956001087007
5.0E-4                    -0.0105                  293.1865714932317
5.0E-4                    -0.0095                  293.15176832833754
5.0E-4                    -0.0085                  293.1414590945641
5.0E-4                    -0.0075                  293.14584931463116
5.0E-4                    -0.0065                  293.1501426151242
5.0E-4                    -0.0055                  293.15077899524806
5.0E-4                    -0.0045                  293.15054404232217
5.0E-4                    -0.0035                  293.150327044423
5.0E-4                    -0.0025                  293.15021805289643
5.0E-4                    -0.0015                  293.1502689817877
5.0E-4                    -5.0E-4                  293.1590665739392
5.0E-4                    5.0E-4                   293.4305367738644
5.0E-4                    0.0015                   293.5114437211631
5.0E-4                    0.0025                   293.5059857709381
5.0E-4                    0.0035                   293.49074098260513
5.0E-4                    0.0045                   293.4772637610931
5.0E-4                    0.0055                   293.4651853970211
5.0E-4                    0.0065                   293.45520214877854
5.0E-4                    0.0075                   293.4471191996259
5.0E-4                    0.0085                   293.43941131995
5.0E-4                    0.0095                   293.4329095103134
5.0E-4                    0.0105                   293.4277508232814
5.0E-4                    0.0115                   293.4235404989791
5.0E-4                    0.0125                   293.4176050360095
5.0E-4                    0.0135                   293.41608233655325
5.0E-4                    0.0145                   293.4421294405632
5.0E-4                    0.0155                   293.5201178659279
5.0E-4                    0.0165                   293.5884786622404
5.0E-4                    0.0175                   293.58717728190413
5.0E-4                    0.0185                   293.5905822200574
5.0E-4                    0.0195                   293.59638002172835
5.0E-4                    0.0205                   293.6036342888822
5.0E-4                    0.0215                   293.6116158906342
5.0E-4                    0.0225                   293.6196790318412
5.0E-4                    0.0235                   293.62729198024306
5.0E-4                    0.0245                   293.6346524601948
5.0E-4                    0.0255                   293.64084315117896
5.0E-4                    0.0265                   293.6460209193176
5.0E-4                    0.0275                   293.6511986874562
5.0E-4                    0.0285                   293.65488678925755
5.0E-4                    0.0295                   293.65679494121474
5.0E-4                    0.0305                   293.658703093172
5.0E-4                    0.0315                   293.66056932777235
0.0015                    -0.0315                  294.8955917449846
0.0015                    -0.0305                  294.89667032445243
0.0015                    -0.0295                  294.89707212843234
0.0015                    -0.0285                  294.89824152384153
0.0015                    -0.0275                  294.89995068727774
0.0015                    -0.0265                  294.9015939990224
0.0015                    -0.0255                  294.90357456963267
0.0015                    -0.0245                  294.90548857233733
0.0015                    -0.0235                  294.9072904997635
0.0015                    -0.0225                  294.90901691998675
0.0015                    -0.0215                  294.91049964478356
0.0015                    -0.0205                  294.91171019294666
0.0015                    -0.0195                  294.9124572814601
0.0015                    -0.0185                  294.91305830933504
0.0015                    -0.0175                  294.76068253317777
0.0015                    -0.0165                  294.5051623850996
0.0015                    -0.0155                  294.2927082543897
0.0015                    -0.0145                  294.21398622019893
0.0015                    -0.0135                  293.7390562034168
0.0015                    -0.0125                  293.42823456760885
0.0015                    -0.0115                  293.2696746352128
0.0015                    -0.0105                  293.1880474279452
0.0015                    -0.0095                  293.1530491257754
0.0015                    -0.0085                  293.1423885412122
0.0015                    -0.0075                  293.1461398930917
0.0015                    -0.0065                  293.15061488825114
0.0015                    -0.0055                  293.15125543806045
0.0015                    -0.0045                  293.151034227776
0.0015                    -0.0035                  293.15080832995545
0.0015                    -0.0025                  293.1507201828082
0.0015                    -0.0015                  293.1504047298198
0.0015                    -5.0E-4                  293.1633309903041
0.0015                    5.0E-4                   293.37776251582454
0.0015                    0.0015                   293.4390071856077
0.0015                    0.0025                   293.4414858281264
0.0015                    0.0035                   293.4348996197883
0.0015                    0.0045                   293.42589677900463
0.0015                    0.0055                   293.4177769832278
0.0015                    0.0065                   293.41157007740253
0.0015                    0.0075                   293.40343409095635
0.0015                    0.0085                   293.39705088114016
0.0015                    0.0095                   293.3893863332081
0.0015                    0.0105                   293.3771747468384
0.0015                    0.0115                   293.36648112002695
0.0015                    0.0125                   293.3556662809922
0.0015                    0.0135                   293.3422508441025
0.0015                    0.0145                   293.3384228571125
0.0015                    0.0155                   293.3816900757799
0.0015                    0.0165                   293.5383551304076
0.0015                    0.0175                   293.5820254691711
0.0015                    0.0185                   293.5871468742674
0.0015                    0.0195                   293.593758102911
0.0015                    0.0205                   293.6020905289083
0.0015                    0.0215                   293.61061314227015
0.0015                    0.0225                   293.6190165885164
0.0015                    0.0235                   293.62718053014606
0.0015                    0.0245                   293.6340383295993
0.0015                    0.0255                   293.64072568731183
0.0015                    0.0265                   293.64636866379834
0.0015                    0.0275                   293.65072144253423
0.0015                    0.0285                   293.6549925886335
0.0015                    0.0295                   293.657107078673
0.0015                    0.0305                   293.6588894785597
0.0015                    0.0315                   293.66026635817764
0.0025                    -0.0315                  294.89285796287993
0.0025                    -0.0305                  294.8940649940827
0.0025                    -0.0295                  294.8950579390607
0.0025                    -0.0285                  294.8965851410662
0.0025                    -0.0275                  294.8974767794363
0.0025                    -0.0265                  294.89939315546235
0.0025                    -0.0255                  294.90095984283204
0.0025                    -0.0245                  294.9033049170215
0.0025                    -0.0235                  294.90540148515794
0.0025                    -0.0225                  294.9073981143242
0.0025                    -0.0215                  294.9091177268838
0.0025                    -0.0205                  294.91036192746503
0.0025                    -0.0195                  294.9110328972912
0.0025                    -0.0185                  294.8478984957847
0.0025                    -0.0175                  294.609810059515
0.0025                    -0.0165                  294.36393384794326
0.0025                    -0.0155                  294.2181541863172
0.0025                    -0.0145                  294.1777729804264
0.0025                    -0.0135                  293.8006354178354
0.0025                    -0.0125                  293.43279130148045
0.0025                    -0.0115                  293.27268184761186
0.0025                    -0.0105                  293.189857685873
0.0025                    -0.0095                  293.1541485928336
0.0025                    -0.0085                  293.1438223043706
0.0025                    -0.0075                  293.14690212922505
0.0025                    -0.0065                  293.1507932892972
0.0025                    -0.0055                  293.1516544646902
0.0025                    -0.0045                  293.15152272337167
0.0025                    -0.0035                  293.1513179229745
0.0025                    -0.0025                  293.15123902490916
0.0025                    -0.0015                  293.1506170045285
0.0025                    -5.0E-4                  293.1714193704195
0.0025                    5.0E-4                   293.32890251893645
0.0025                    0.0015                   293.4096814712425
0.0025                    0.0025                   293.41357686066914
0.0025                    0.0035                   293.4056884645629
0.0025                    0.0045                   293.397369569845
0.0025                    0.0055                   293.39076303582993
0.0025                    0.0065                   293.38450121502694
0.0025                    0.0075                   293.3783242379078
0.0025                    0.0085                   293.3713156248901
0.0025                    0.0095                   293.36281653038276
0.0025                    0.0105                   293.3545709804817
0.0025                    0.0115                   293.34730799471896
0.0025                    0.0125                   293.34053096342905
0.0025                    0.0135                   293.3358191091339
0.0025                    0.0145                   293.3282839827075
0.0025                    0.0155                   293.315703603982
0.0025                    0.0165                   293.4180021372025
0.0025                    0.0175                   293.5717184494148
0.0025                    0.0185                   293.5809690348575
0.0025                    0.0195                   293.58966710387006
0.0025                    0.0205                   293.599115222485
0.0025                    0.0215                   293.60861236262787
0.0025                    0.0225                   293.61736168408777
0.0025                    0.0235                   293.62610019144347
0.0025                    0.0245                   293.6336207982687
0.0025                    0.0255                   293.64027576001143
0.0025                    0.0265                   293.6461742147553
0.0025                    0.0275                   293.6503158527168
0.0025                    0.0285                   293.65445801109763
0.0025                    0.0295                   293.65720962934705
0.0025                    0.0305                   293.6585865089651
0.0025                    0.0315                   293.659963388583
0.0035                    -0.0315                  294.8901241807752
0.0035                    -0.0305                  294.8901187752265
0.0035                    -0.0295                  294.8901829490621
0.0035                    -0.0285                  294.8919369015359
0.0035                    -0.0275                  294.8929149853787
0.0035                    -0.0265                  294.89559181542904
0.0035                    -0.0255                  294.89780290287354
0.0035                    -0.0245                  294.9002631498274
0.0035                    -0.0235                  294.9026714158807
0.0035                    -0.0225                  294.9051626746678
0.0035                    -0.0215                  294.9070654193354
0.0035                    -0.0205                  294.90859976262993
0.0035                    -0.0195                  294.9092870090632
0.0035                    -0.0185                  294.7968692941724
0.0035                    -0.0175                  294.5073780229533
0.0035                    -0.0165                  294.2768894794903
0.0035                    -0.0155                  294.1765686940545
0.0035                    -0.0145                  294.16520536866
0.0035                    -0.0135                  293.80216639475276
0.0035                    -0.0125                  293.426916567163
0.0035                    -0.0115                  293.2725694752324
0.0035                    -0.0105                  293.1902274618371
0.0035                    -0.0095                  293.15326158296693
0.0035                    -0.0085                  293.14491181747593
0.0035                    -0.0075                  293.14751959575557
0.0035                    -0.0065                  293.1512334086801
0.0035                    -0.0055                  293.152161038014
0.0035                    -0.0045                  293.1519968646751
0.0035                    -0.0035                  293.1517930916072
0.0035                    -0.0025                  293.15164604803175
0.0035                    -0.0015                  293.15224091573486
0.0035                    -5.0E-4                  293.17646113543424
0.0035                    5.0E-4                   293.2740544635081
0.0035                    0.0015                   293.36240493632044
0.0035                    0.0025                   293.4019353162187
0.0035                    0.0035                   293.3967509323491
0.0035                    0.0045                   293.39170431326284
0.0035                    0.0055                   293.38499842286717
0.0035                    0.0065                   293.3739186174503
0.0035                    0.0075                   293.3729694855922
0.0035                    0.0085                   293.3642496245421
0.0035                    0.0095                   293.34860191131315
0.0035                    0.0105                   293.34859740763636
0.0035                    0.0115                   293.34400876087426
0.0035                    0.0125                   293.34020310797547
0.0035                    0.0135                   293.3412602115798
0.0035                    0.0145                   293.33315183577395
0.0035                    0.0155                   293.32271838654054
0.0035                    0.0165                   293.2999528394124
0.0035                    0.0175                   293.44736785323676
0.0035                    0.0185                   293.57301004671837
0.0035                    0.0195                   293.58348225379757
0.0035                    0.0205                   293.59482146168057
0.0035                    0.0215                   293.60577504509297
0.0035                    0.0225                   293.6161113426438
0.0035                    0.0235                   293.6249942602288
0.0035                    0.0245                   293.63324617444476
0.0035                    0.0255                   293.63962316032666
0.0035                    0.0265                   293.64600014620856
0.0035                    0.0275                   293.6503690749339
0.0035                    0.0285                   293.65428383455
0.0035                    0.0295                   293.6568978534984
0.0035                    0.0305                   293.65828151905816
0.0035                    0.0315                   293.6596604189883
0.0045                    -0.0315                  294.883705773615
0.0045                    -0.0305                  294.88401972369587
0.0045                    -0.0295                  294.88429847860857
0.0045                    -0.0285                  294.8866751188494
0.0045                    -0.0275                  294.88871111209835
0.0045                    -0.0265                  294.8908374065408
0.0045                    -0.0255                  294.89335236204704
0.0045                    -0.0245                  294.89633314165167
0.0045                    -0.0235                  294.8993188751262
0.0045                    -0.0225                  294.9019934324926
0.0045                    -0.0215                  294.90456381788937
0.0045                    -0.0205                  294.9064880665317
0.0045                    -0.0195                  294.9074273945896
0.0045                    -0.0185                  294.73549791063516
0.0045                    -0.0175                  294.4123415121486
0.0045                    -0.0165                  294.2147342926777
0.0045                    -0.0155                  294.15095843285
0.0045                    -0.0145                  294.1118685658017
0.0045                    -0.0135                  293.81433019397946
0.0045                    -0.0125                  293.42643982036924
0.0045                    -0.0115                  293.26865150901006
0.0045                    -0.0105                  293.1891816489925
0.0045                    -0.0095                  293.1542553569575
0.0045                    -0.0085                  293.1461704178587
0.0045                    -0.0075                  293.1481474400439
0.0045                    -0.0065                  293.15164522122484
0.0045                    -0.0055                  293.1526235273339
0.0045                    -0.0045                  293.15249059465316
0.0045                    -0.0035                  293.1522938963037
0.0045                    -0.0025                  293.15208974075995
0.0045                    -0.0015                  293.15181362750286
0.0045                    -5.0E-4                  293.1675752633908
0.0045                    5.0E-4                   293.24642967238185
0.0045                    0.0015                   293.32014735061335
0.0045                    0.0025                   293.3676982157618
0.0045                    0.0035                   293.36993444707696
0.0045                    0.0045                   293.36645019939726
0.0045                    0.0055                   293.3479344214684
0.0045                    0.0065                   293.33082683230407
0.0045                    0.0075                   293.3202498283184
0.0045                    0.0085                   293.3084290791644
0.0045                    0.0095                   293.3009952994581
0.0045                    0.0105                   293.295399343725
0.0045                    0.0115                   293.2957898201505
0.0045                    0.0125                   293.2983544842876
0.0045                    0.0135                   293.3029867338435
0.0045                    0.0145                   293.29492877922877
0.0045                    0.0155                   293.2916127825141
0.0045                    0.0165                   293.280945768033
0.0045                    0.0175                   293.3605210317447
0.0045                    0.0185                   293.559107308974
0.0045                    0.0195                   293.57578803377487
0.0045                    0.0205                   293.5902263583581
0.0045                    0.0215                   293.60345257398876
0.0045                    0.0225                   293.61523614960305
0.0045                    0.0235                   293.62411831663536
0.0045                    0.0245                   293.63299296449793
0.0045                    0.0255                   293.6393921335064
0.0045                    0.0265                   293.64560360835134
0.0045                    0.0275                   293.6500441310903
0.0045                    0.0285                   293.65395954434695
0.0045                    0.0295                   293.6565811210739
0.0045                    0.0305                   293.6579647866337
0.0045                    0.0315                   293.6593175895657
0.0055                    -0.0315                  294.8754762795543
0.0055                    -0.0305                  294.87707863690395
0.0055                    -0.0295                  294.878414008155
0.0055                    -0.0285                  294.87985370192484
0.0055                    -0.0275                  294.88163645670653
0.0055                    -0.0265                  294.88488815835177
0.0055                    -0.0255                  294.8877725035295
0.0055                    -0.0245                  294.89129381172944
0.0055                    -0.0235                  294.8947256130965
0.0055                    -0.0225                  294.8982842721188
0.0055                    -0.0215                  294.9015612760594
0.0055                    -0.0205                  294.9042629306027
0.0055                    -0.0195                  294.8478703822161
0.0055                    -0.0185                  294.597207749306
0.0055                    -0.0175                  294.3152716418682
0.0055                    -0.0165                  294.1700802371507
0.0055                    -0.0155                  294.13411504459054
0.0055                    -0.0145                  294.1331057005352
0.0055                    -0.0135                  293.79646397232426
0.0055                    -0.0125                  293.4212981687565
0.0055                    -0.0115                  293.26094525221225
0.0055                    -0.0105                  293.1866411525042
0.0055                    -0.0095                  293.15529857208327
0.0055                    -0.0085                  293.1470223483934
0.0055                    -0.0075                  293.14867563707617
0.0055                    -0.0065                  293.1521280679113
0.0055                    -0.0055                  293.15310327729475
0.0055                    -0.0045                  293.15300429249123
0.0055                    -0.0035                  293.1528095544904
0.0055                    -0.0025                  293.15240558154585
0.0055                    -0.0015                  293.15237966359075
0.0055                    -5.0E-4                  293.16611497520563
0.0055                    5.0E-4                   293.2059754997948
0.0055                    0.0015                   293.2577311624504
0.0055                    0.0025                   293.29122831712664
0.0055                    0.0035                   293.2987483562594
0.0055                    0.0045                   293.2890620187925
0.0055                    0.0055                   293.26858682707694
0.0055                    0.0065                   293.25064316744266
0.0055                    0.0075                   293.2362594985675
0.0055                    0.0085                   293.21924414786156
0.0055                    0.0095                   293.2182589388089
0.0055                    0.0105                   293.21767486594183
0.0055                    0.0115                   293.21649469525124
0.0055                    0.0125                   293.22043158764023
0.0055                    0.0135                   293.2273141572298
0.0055                    0.0145                   293.239910578912
0.0055                    0.0155                   293.2427338319519
0.0055                    0.0165                   293.24558512951745
0.0055                    0.0175                   293.25791987089144
0.0055                    0.0185                   293.39691849703945
0.0055                    0.0195                   293.5674020090083
0.0055                    0.0205                   293.5860847166533
0.0055                    0.0215                   293.6013267485695
0.0055                    0.0225                   293.61425616077486
0.0055                    0.0235                   293.6234273227228
0.0055                    0.0245                   293.6323566368843
0.0055                    0.0255                   293.6391560690535
0.0055                    0.0265                   293.6452943134188
0.0055                    0.0275                   293.6495296966854
0.0055                    0.0285                   293.653589994349
0.0055                    0.0295                   293.6562393162227
0.0055                    0.0305                   293.65751731917163
0.0055                    0.0315                   293.65879532212057
0.0065                    -0.0315                  294.86724678549353
0.0065                    -0.0305                  294.86803632424676
0.0065                    -0.0295                  294.8687145615983
0.0065                    -0.0285                  294.8717486444291
0.0065                    -0.0275                  294.8731436065669
0.0065                    -0.0265                  294.8766598428796
0.0065                    -0.0255                  294.88057540191824
0.0065                    -0.0245                  294.8849070891418
0.0065                    -0.0235                  294.889371423896
0.0065                    -0.0225                  294.89389963279405
0.0065                    -0.0215                  294.8981614774678
0.0065                    -0.0205                  294.89484545448477
0.0065                    -0.0195                  294.7376477371693
0.0065                    -0.0185                  294.4613100600859
0.0065                    -0.0175                  294.24748826983284
0.0065                    -0.0165                  294.1292884522592
0.0065                    -0.0155                  294.1097163234933
0.0065                    -0.0145                  294.12380980212436
0.0065                    -0.0135                  293.7634036741375
0.0065                    -0.0125                  293.41061126064653
0.0065                    -0.0115                  293.253322396785
0.0065                    -0.0105                  293.1821273560429
0.0065                    -0.0095                  293.15525752626763
0.0065                    -0.0085                  293.14814857006075
0.0065                    -0.0075                  293.1495854028138
0.0065                    -0.0065                  293.1527522428344
0.0065                    -0.0055                  293.1536000772757
0.0065                    -0.0045                  293.15353941344165
0.0065                    -0.0035                  293.15330718368193
0.0065                    -0.0025                  293.1530156415408
0.0065                    -0.0015                  293.1537578069647
0.0065                    -5.0E-4                  293.1609089476337
0.0065                    5.0E-4                   293.1736278476569
0.0065                    0.0015                   293.2079775695508
0.0065                    0.0025                   293.2138059113183
0.0065                    0.0035                   293.21879699502796
0.0065                    0.0045                   293.2024371457564
0.0065                    0.0055                   293.1913069640588
0.0065                    0.0065                   293.18936437638564
0.0065                    0.0075                   293.18975787345255
0.0065                    0.0085                   293.1913840975171
0.0065                    0.0095                   293.19593372638235
0.0065                    0.0105                   293.1994754593071
0.0065                    0.0115                   293.2030443602901