% Model:              模型结构导入comsolBench.mph
% Version:            COMSOL 6.2.0.339
% Date:               May 12 2026, 14:17
% Dimension:          2
% Nodes:              4096
% Expressions:        1
% Description:        温度
% Length unit:        m
% x                       y                        T (K)
5.0E-4                    -0.0315                  297.89991369493384
5.0E-4                    -0.0305                  297.8995301190167
5.0E-4                    -0.0295                  297.8991272370288
5.0E-4                    -0.0285                  297.8987243550409
5.0E-4                    -0.0275                  297.89829175843465
5.0E-4                    -0.0265                  297.89760639880524
5.0E-4                    -0.0255                  297.89690154225633
5.0E-4                    -0.0245                  297.8961966857075
5.0E-4                    -0.0235                  297.89540578013134
5.0E-4                    -0.0225                  297.89417664892204
5.0E-4                    -0.0215                  297.8929475177128
5.0E-4                    -0.0205                  297.8916632708213
5.0E-4                    -0.0195                  297.8901597329924
5.0E-4                    -0.0185                  297.88865205163484
5.0E-4                    -0.0175                  297.88711546075257
5.0E-4                    -0.0165                  297.88562063024904
5.0E-4                    -0.0155                  297.88430031794366
5.0E-4                    -0.0145                  297.8832884485496
5.0E-4                    -0.0135                  297.8827902867264
5.0E-4                    -0.0125                  297.884437823429
5.0E-4                    -0.0115                  297.75099176473344
5.0E-4                    -0.0105                  297.5595289091963
5.0E-4                    -0.0095                  297.3673057899081
5.0E-4                    -0.0085                  296.59980885761706
5.0E-4                    -0.0075                  293.26515772312354
5.0E-4                    -0.0065                  293.150694913081
5.0E-4                    -0.0055                  293.1506070284829
5.0E-4                    -0.0045                  293.1505597899677
5.0E-4                    -0.0035                  293.1506507065249
5.0E-4                    -0.0025                  293.15090638813587
5.0E-4                    -0.0015                  293.1506407604448
5.0E-4                    -5.0E-4                  293.1499657076709
5.0E-4                    5.0E-4                   293.1501850471091
5.0E-4                    0.0015                   293.15216518004974
5.0E-4                    0.0025                   293.16155663068764
5.0E-4                    0.0035                   293.19798274826934
5.0E-4                    0.0045                   293.34196663461756
5.0E-4                    0.0055                   294.16899430262134
5.0E-4                    0.0065                   297.50656041368677
5.0E-4                    0.0075                   299.24377755766363
5.0E-4                    0.0085                   299.56258919097877
5.0E-4                    0.0095                   299.7180885666487
5.0E-4                    0.0105                   299.7642054847694
5.0E-4                    0.0115                   299.6347582461487
5.0E-4                    0.0125                   299.4799776963068
5.0E-4                    0.0135                   299.4791622179391
5.0E-4                    0.0145                   299.4785386528186
5.0E-4                    0.0155                   299.4780680878546
5.0E-4                    0.0165                   299.47762360924446
5.0E-4                    0.0175                   299.47729138016587
5.0E-4                    0.0185                   299.47694898415784
5.0E-4                    0.0195                   299.4767191148753
5.0E-4                    0.0205                   299.4763911242548
5.0E-4                    0.0215                   299.47620085968583
5.0E-4                    0.0225                   299.47602834716383
5.0E-4                    0.0235                   299.4758346970458
5.0E-4                    0.0245                   299.4755955278399
5.0E-4                    0.0255                   299.4754099273039
5.0E-4                    0.0265                   299.47522432676783
5.0E-4                    0.0275                   299.4750469084547
5.0E-4                    0.0285                   299.4750568222508
5.0E-4                    0.0295                   299.475180615667
5.0E-4                    0.0305                   299.47530440908326
5.0E-4                    0.0315                   299.4754041501695
0.0015                    -0.0315                  297.89790912653484
0.0015                    -0.0305                  297.8982316461309
0.0015                    -0.0295                  297.8978866823552
0.0015                    -0.0285                  297.89748183797803
0.0015                    -0.0275                  297.89702305788614
0.0015                    -0.0265                  297.89651440873064
0.0015                    -0.0255                  297.89580955218173
0.0015                    -0.0245                  297.89506373350804
0.0015                    -0.0235                  297.89426215560957
0.0015                    -0.0225                  297.89331018907774
0.0015                    -0.0215                  297.8920433055017
0.0015                    -0.0205                  297.8907283347133
0.0015                    -0.0195                  297.88933314380466
0.0015                    -0.0185                  297.88783141667506
0.0015                    -0.0175                  297.88619211740496
0.0015                    -0.0165                  297.8844220152894
0.0015                    -0.0155                  297.88293850042214
0.0015                    -0.0145                  297.8817910493996
0.0015                    -0.0135                  297.8808422147649
0.0015                    -0.0125                  297.7591114985187
0.0015                    -0.0115                  297.3604788258273
0.0015                    -0.0105                  296.872110425942
0.0015                    -0.0095                  296.52193131553133
0.0015                    -0.0085                  295.9873083662841
0.0015                    -0.0075                  293.2714300223326
0.0015                    -0.0065                  293.1515509118721
0.0015                    -0.0055                  293.15187040714625
0.0015                    -0.0045                  293.15168946237713
0.0015                    -0.0035                  293.151809121484
0.0015                    -0.0025                  293.1522128014035
0.0015                    -0.0015                  293.1520016624513
0.0015                    -5.0E-4                  293.1516869444837
0.0015                    5.0E-4                   293.1522575646238
0.0015                    0.0015                   293.15582814480405
0.0015                    0.0025                   293.1668941241294
0.0015                    0.0035                   293.2025588208972
0.0015                    0.0045                   293.3806126776045
0.0015                    0.0055                   294.5898712088962
0.0015                    0.0065                   298.0714524440066
0.0015                    0.0075                   298.8311443929707
0.0015                    0.0085                   299.1126640220382
0.0015                    0.0095                   299.38654402000554
0.0015                    0.0105                   299.57188893697264
0.0015                    0.0115                   299.56970952642894
0.0015                    0.0125                   299.4785087889853
0.0015                    0.0135                   299.47795151976163
0.0015                    0.0145                   299.47737271427064
0.0015                    0.0155                   299.47695382017633
0.0015                    0.0165                   299.47678601986195
0.0015                    0.0175                   299.47636738164033
0.0015                    0.0185                   299.47592319337457
0.0015                    0.0195                   299.47561772681956
0.0015                    0.0205                   299.47521789823463
0.0015                    0.0215                   299.4748754125017
0.0015                    0.0225                   299.4747028999798
0.0015                    0.0235                   299.4744269929672
0.0015                    0.0245                   299.474134726605
0.0015                    0.0255                   299.4739306979485
0.0015                    0.0265                   299.4737450974125
0.0015                    0.0275                   299.47362828525087
0.0015                    0.0285                   299.4735281150491
0.0015                    0.0295                   299.4736502169959
0.0015                    0.0305                   299.4737018534219
0.0015                    0.0315                   299.4730845285093
0.0025                    -0.0315                  297.89590455813584
0.0025                    -0.0305                  297.8962270777319
0.0025                    -0.0295                  297.896549597328
0.0025                    -0.0285                  297.89621313742947
0.0025                    -0.0275                  297.8957543573375
0.0025                    -0.0265                  297.8952955772455
0.0025                    -0.0255                  297.89470598463663
0.0025                    -0.0245                  297.8939044067381
0.0025                    -0.0235                  297.8926881299355
0.0025                    -0.0225                  297.8914793004401
0.0025                    -0.0215                  297.89011395476643
0.0025                    -0.0205                  297.88854041668884
0.0025                    -0.0195                  297.88705002012637
0.0025                    -0.0185                  297.88539616960975
0.0025                    -0.0175                  297.8837363518627
0.0025                    -0.0165                  297.88216008701414
0.0025                    -0.0155                  297.8804169635136
0.0025                    -0.0145                  297.8788684053116
0.0025                    -0.0135                  297.87740610173125
0.0025                    -0.0125                  297.61693840180953
0.0025                    -0.0115                  296.95666004708585
0.0025                    -0.0105                  296.3338425636158
0.0025                    -0.0095                  296.027268476513
0.0025                    -0.0085                  295.56512134282457
0.0025                    -0.0075                  293.5244113232258
0.0025                    -0.0065                  293.15593190631125
0.0025                    -0.0055                  293.1531334784583
0.0025                    -0.0045                  293.1528255157758
0.0025                    -0.0035                  293.1529965313466
0.0025                    -0.0025                  293.15343549495014
0.0025                    -0.0015                  293.1533924572777
0.0025                    -5.0E-4                  293.1533454096276
0.0025                    5.0E-4                   293.1545095261789
0.0025                    0.0015                   293.15801805437013
0.0025                    0.0025                   293.1690480287483
0.0025                    0.0035                   293.2194504636874
0.0025                    0.0045                   293.43538967212385
0.0025                    0.0055                   295.1788695194311
0.0025                    0.0065                   298.12479538178616
0.0025                    0.0075                   298.3760525192905
0.0025                    0.0085                   298.60959144448003
0.0025                    0.0095                   298.9952708145951
0.0025                    0.0105                   299.31224066202424
0.0025                    0.0115                   299.48240502055614
0.0025                    0.0125                   299.4759493137488
0.0025                    0.0135                   299.4755633926339
0.0025                    0.0145                   299.4750811446206
0.0025                    0.0155                   299.4748277333649
0.0025                    0.0165                   299.4743547461008
0.0025                    0.0175                   299.47391960502046
0.0025                    0.0185                   299.47381895882245
0.0025                    0.0195                   299.4733641332492
0.0025                    0.0205                   299.47343248646166
0.0025                    0.0215                   299.4735008396742
0.0025                    0.0225                   299.4733115552508
0.0025                    0.0235                   299.4730192888886
0.0025                    0.0245                   299.4727270225264
0.0025                    0.0255                   299.47245146859325
0.0025                    0.0265                   299.4723098322487
0.0025                    0.0275                   299.47220966204696
0.0025                    0.0285                   299.47210949184523
0.0025                    0.0295                   299.47199955667435
0.0025                    0.0305                   299.4713822317617
0.0025                    0.0315                   299.47076490684907
0.0035                    -0.0315                  297.89389998973684
0.0035                    -0.0305                  297.89408139292624
0.0035                    -0.0295                  297.893431466834
0.0035                    -0.0285                  297.8928827095761
0.0035                    -0.0275                  297.89246112444454
0.0035                    -0.0265                  297.892039539313
0.0035                    -0.0255                  297.89158089696406
0.0035                    -0.0245                  297.89047475889174
0.0035                    -0.0235                  297.8892355292269
0.0035                    -0.0225                  297.8881535075545
0.0035                    -0.0215                  297.8871790129568
0.0035                    -0.0205                  297.8856472124146
0.0035                    -0.0195                  297.884211239876
0.0035                    -0.0185                  297.8827982250975
0.0035                    -0.0175                  297.8808092433223
0.0035                    -0.0165                  297.87858759340867
0.0035                    -0.0155                  297.87671806340916
0.0035                    -0.0145                  297.8747387748593
0.0035                    -0.0135                  297.8726301390974
0.0035                    -0.0125                  297.48325032242224
0.0035                    -0.0115                  296.61123599241523
0.0035                    -0.0105                  296.009042569303
0.0035                    -0.0095                  295.9067120192475
0.0035                    -0.0085                  295.03058212521057
0.0035                    -0.0075                  293.4341409075557
0.0035                    -0.0065                  293.1594054839631
0.0035                    -0.0055                  293.1541516264025
0.0035                    -0.0045                  293.15396098803706
0.0035                    -0.0035                  293.154205088882
0.0035                    -0.0025                  293.1546792128222
0.0035                    -0.0015                  293.1548081026285
0.0035                    -5.0E-4                  293.1550949400537
0.0035                    5.0E-4                   293.1569315654208
0.0035                    0.0015                   293.16153786000393
0.0035                    0.0025                   293.17361845491024
0.0035                    0.0035                   293.2338625108275
0.0035                    0.0045                   293.52439933793823
0.0035                    0.0055                   295.9663062207154
0.0035                    0.0065                   298.0512291409103
0.0035                    0.0075                   298.0982568758427
0.0035                    0.0085                   298.2551114270166
0.0035                    0.0095                   298.6867360350759
0.0035                    0.0105                   299.1107103581196
0.0035                    0.0115                   299.40774535722767
0.0035                    0.0125                   299.4723946411359
0.0035                    0.0135                   299.47220261093696
0.0035                    0.0145                   299.47195706392444
0.0035                    0.0155                   299.4713927410129
0.0035                    0.0165                   299.4712446933597
0.0035                    0.0175                   299.4711367125147
0.0035                    0.0185                   299.4704243190631
0.0035                    0.0195                   299.46972103608215
0.0035                    0.0205                   299.46978938929465
0.0035                    0.0215                   299.4694675641769
0.0035                    0.0225                   299.4689482059693
0.0035                    0.0235                   299.4690415946019
0.0035                    0.0245                   299.46913498323454
0.0035                    0.0255                   299.4691601040287
0.0035                    0.0265                   299.4689052190739
0.0035                    0.0275                   299.4685609165575
0.0035                    0.0285                   299.468216614041
0.0035                    0.0295                   299.4684131055908
0.0035                    0.0305                   299.4689728803179
0.0035                    0.0315                   299.46844528518886
0.0045                    -0.0315                  297.8908401226197
0.0045                    -0.0305                  297.890227959238
0.0045                    -0.0295                  297.88957803314577
0.0045                    -0.0285                  297.88897089537744
0.0045                    -0.0275                  297.88854931024593
0.0045                    -0.0265                  297.88810404871185
0.0045                    -0.0255                  297.88763734209044
0.0045                    -0.0245                  297.8870221581831
0.0045                    -0.0235                  297.88580220926656
0.0045                    -0.0225                  297.8848277146688
0.0045                    -0.0215                  297.88385322007105
0.0045                    -0.0205                  297.8826685362017
0.0045                    -0.0195                  297.88057005520034
0.0045                    -0.0185                  297.8784715741989
0.0045                    -0.0175                  297.8765783570887
0.0045                    -0.0165                  297.874544743056
0.0045                    -0.0155                  297.87209418625133
0.0045                    -0.0145                  297.8696473970791
0.0045                    -0.0135                  297.86684817350636
0.0045                    -0.0125                  297.36351084077955
0.0045                    -0.0115                  296.3561703778947
0.0045                    -0.0105                  295.79106287310685
0.0045                    -0.0095                  295.7463571014834
0.0045                    -0.0085                  294.87206110483294
0.0045                    -0.0075                  293.49096986897507
0.0045                    -0.0065                  293.15781023172644
0.0045                    -0.0055                  293.1552582577743
0.0045                    -0.0045                  293.1551006190376
0.0045                    -0.0035                  293.1554272099129
0.0045                    -0.0025                  293.15597760156146
0.0045                    -0.0015                  293.1562652231953
0.0045                    -5.0E-4                  293.15686788702885
0.0045                    5.0E-4                   293.15956000027927
0.0045                    0.0015                   293.16473741776053
0.0045                    0.0025                   293.1831990736464
0.0045                    0.0035                   293.2514114375517
0.0045                    0.0045                   293.78518909869007
0.0045                    0.0055                   296.4748289646723
0.0045                    0.0065                   297.86422684853966
0.0045                    0.0075                   297.7774476160962
0.0045                    0.0085                   297.97024933868886
0.0045                    0.0095                   298.4540823289359
0.0045                    0.0105                   298.9677241265018
0.0045                    0.0115                   299.3527906183648
0.0045                    0.0125                   299.46793706519225
0.0045                    0.0135                   299.46793272274067
0.0045                    0.0145                   299.46761087285665
0.0045                    0.0155                   299.46737881930443
0.0045                    0.0165                   299.466965084349
0.0045                    0.0175                   299.46618192647986
0.0045                    0.0185                   299.46627856612236
0.0045                    0.0195                   299.46629111929076
0.0045                    0.0205                   299.4657866440609
0.0045                    0.0215                   299.4650812816454
0.0045                    0.0225                   299.46437591922984
0.0045                    0.0235                   299.46438219236217
0.0045                    0.0245                   299.4644752163969
0.0045                    0.0255                   299.4642929820743
0.0045                    0.0265                   299.4641107477517
0.0045                    0.0275                   299.46381394297157
0.0045                    0.0285                   299.46346964045506
0.0045                    0.0295                   299.46390750174453
0.0045                    0.0305                   299.4644672764716
0.0045                    0.0315                   299.46502705119866
0.0055                    -0.0315                  297.8849273727785
0.0055                    -0.0305                  297.8853855032017
0.0055                    -0.0295                  297.88572459945766
0.0055                    -0.0285                  297.88507467336535
0.0055                    -0.0275                  297.8846272004596
0.0055                    -0.0265                  297.8841604938382
0.0055                    -0.0255                  297.88369378721677
0.0055                    -0.0245                  297.8832270805955
0.0055                    -0.0235                  297.88215559591407
0.0055                    -0.0225                  297.8805861282681
0.0055                    -0.0215                  297.87901666062214
0.0055                    -0.0205                  297.8774613474452
0.0055                    -0.0195                  297.87593287991723
0.0055                    -0.0185                  297.87388079552505
0.0055                    -0.0175                  297.87196808657217
0.0055                    -0.0165                  297.86930577450266
0.0055                    -0.0155                  297.8667036609174
0.0055                    -0.0145                  297.86373456444505
0.0055                    -0.0135                  297.86038500448296
0.0055                    -0.0125                  297.24727479213044
0.0055                    -0.0115                  296.11738018737367
0.0055                    -0.0105                  295.5821961133835
0.0055                    -0.0095                  295.56329672702464
0.0055                    -0.0085                  294.6136510339698
0.0055                    -0.0075                  293.43596956270795
0.0055                    -0.0065                  293.16684551806844
0.0055                    -0.0055                  293.15640669549566
0.0055                    -0.0045                  293.15629357211276
0.0055                    -0.0035                  293.1566546726707
0.0055                    -0.0025                  293.15733761021266
0.0055                    -0.0015                  293.15778997077575
0.0055                    -5.0E-4                  293.1590187179899
0.0055                    5.0E-4                   293.1620316491489
0.0055                    0.0015                   293.1681757567791
0.0055                    0.0025                   293.1907963566619
0.0055                    0.0035                   293.2791050387079
0.0055                    0.0045                   294.06178350685605
0.0055                    0.0055                   296.6943044418246
0.0055                    0.0065                   297.5863301906857
0.0055                    0.0075                   297.50955896205755
0.0055                    0.0085                   297.76236448971497
0.0055                    0.0095                   298.2781127341456
0.0055                    0.0105                   298.8582013396986
0.0055                    0.0115                   299.3086401208832
0.0055                    0.0125                   299.46270319876703
0.0055                    0.0135                   299.46277869601045
0.0055                    0.0145                   299.4624578924243
0.0055                    0.0155                   299.4620266413181
0.0055                    0.0165                   299.46177297227484
0.0055                    0.0175                   299.4610516427189
0.0055                    0.0185                   299.4610874366398
0.0055                    0.0195                   299.4604532558095
0.0055                    0.0205                   299.46035643312626
0.0055                    0.0215                   299.4606149414356
0.0055                    0.0225                   299.45998963669837
0.0055                    0.0235                   299.45972279012244
0.0055                    0.0245                   299.4596080944426
0.0055                    0.0255                   299.45942586011995
0.0055                    0.0265                   299.45924362579734
0.0055                    0.0275                   299.45906139147473
0.0055                    0.0285                   299.4588421231712
0.0055                    0.0295                   299.45940189789826
0.0055                    0.0305                   299.4589903292892
0.0055                    0.0315                   299.45834616316944
0.0065                    -0.0315                  297.8790146229373
0.0065                    -0.0305                  297.87947275336046
0.0065                    -0.0295                  297.8799308837837
0.0065                    -0.0285                  297.8801560846917
0.0065                    -0.0275                  297.87971932421925
0.0065                    -0.0265                  297.8788288305377
0.0065                    -0.0255                  297.87793833685606
0.0065                    -0.0245                  297.87704784317447
0.0065                    -0.0235                  297.87627677846376
0.0065                    -0.0225                  297.87525048591965
0.0065                    -0.0215                  297.8736810182737
0.0065                    -0.0205                  297.87213173229304
0.0065                    -0.0195                  297.8706032647651
0.0065                    -0.0185                  297.8688034787463
0.0065                    -0.0175                  297.8662216068541
0.0065                    -0.0165                  297.863521661452
0.0065                    -0.0155                  297.8604339582147
0.0065                    -0.0145                  297.8571039898586
0.0065                    -0.0135                  297.85347363325525
0.0065                    -0.0125                  297.1539024488375
0.0065                    -0.0115                  295.8536370927919
0.0065                    -0.0105                  295.4496448798339
0.0065                    -0.0095                  295.39086841061635
0.0065                    -0.0085                  294.4790703692893
0.0065                    -0.0075                  293.40365049867563
0.0065                    -0.0065                  293.16941632880855
0.0065                    -0.0055                  293.15753045638024
0.0065                    -0.0045                  293.1574966425794
0.0065                    -0.0035                  293.15792800081095
0.0065                    -0.0025                  293.1587288374044
0.0065                    -0.0015                  293.1595616329539
0.0065                    -5.0E-4                  293.16106887460404
0.0065                    5.0E-4                   293.1661598242525
0.0065                    0.0015                   293.1725717538885
0.0065                    0.0025                   293.20602482194283
0.0065                    0.0035                   293.3153854812936
0.0065                    0.0045                   294.4073720346125
0.0065                    0.0055                   297.0250129135948
0.0065                    0.0065                   297.335436124481
0.0065                    0.0075                   297.2513984122368
0.0065                    0.0085                   297.5750222119383
0.0065                    0.0095                   298.1330403591125
0.0065                    0.0105                   298.75944696998