% Model:              模型结构导入comsolBench.mph
% Version:            COMSOL 6.2.0.339
% Date:               May 12 2026, 14:08
% Dimension:          2
% Nodes:              4096
% Expressions:        1
% Description:        温度
% Length unit:        m
% x                       y                        T (K)
5.0E-4                    -0.0315                  293.3663778332102
5.0E-4                    -0.0305                  293.5362946635653
5.0E-4                    -0.0295                  293.5620963047177
5.0E-4                    -0.0285                  293.47950652747534
5.0E-4                    -0.0275                  293.40162975933583
5.0E-4                    -0.0265                  293.2990205883861
5.0E-4                    -0.0255                  293.1560228422944
5.0E-4                    -0.0245                  293.15011398319484
5.0E-4                    -0.0235                  293.14926825462976
5.0E-4                    -0.0225                  293.28467982767546
5.0E-4                    -0.0215                  295.21644323092676
5.0E-4                    -0.0205                  295.72343824219917
5.0E-4                    -0.0195                  295.80112542750896
5.0E-4                    -0.0185                  295.808829703532
5.0E-4                    -0.0175                  295.82293870272804
5.0E-4                    -0.0165                  295.85204061411
5.0E-4                    -0.0155                  295.8836342787474
5.0E-4                    -0.0145                  295.90727541735293
5.0E-4                    -0.0135                  295.92770262455804
5.0E-4                    -0.0125                  295.9441407957396
5.0E-4                    -0.0115                  295.95829217398267
5.0E-4                    -0.0105                  295.9746385346088
5.0E-4                    -0.0095                  295.98840078858996
5.0E-4                    -0.0085                  296.01017018339996
5.0E-4                    -0.0075                  296.0355219514489
5.0E-4                    -0.0065                  296.0643772213981
5.0E-4                    -0.0055                  296.09869688588515
5.0E-4                    -0.0045                  296.1315071308002
5.0E-4                    -0.0035                  296.1708892444274
5.0E-4                    -0.0025                  296.21542090822714
5.0E-4                    -0.0015                  296.2725111258736
5.0E-4                    -5.0E-4                  296.3433347284862
5.0E-4                    5.0E-4                   296.43776012840505
5.0E-4                    0.0015                   296.5446635963871
5.0E-4                    0.0025                   296.68378418100997
5.0E-4                    0.0035                   296.8588079170426
5.0E-4                    0.0045                   297.030107110386
5.0E-4                    0.0055                   297.192376639387
5.0E-4                    0.0065                   297.3986214633858
5.0E-4                    0.0075                   297.5396990635578
5.0E-4                    0.0085                   297.5153792241537
5.0E-4                    0.0095                   297.51481974374644
5.0E-4                    0.0105                   297.5141769812526
5.0E-4                    0.0115                   297.5134800884921
5.0E-4                    0.0125                   297.51262030419343
5.0E-4                    0.0135                   297.5118032800247
5.0E-4                    0.0145                   297.5108101279259
5.0E-4                    0.0155                   297.5099334687359
5.0E-4                    0.0165                   297.50886639684364
5.0E-4                    0.0175                   297.5078586494699
5.0E-4                    0.0185                   297.5068544726918
5.0E-4                    0.0195                   297.50578077357204
5.0E-4                    0.0205                   297.50465313446125
5.0E-4                    0.0215                   297.5035823110476
5.0E-4                    0.0225                   297.5025114876338
5.0E-4                    0.0235                   297.501423140687
5.0E-4                    0.0245                   297.50040849046957
5.0E-4                    0.0255                   297.4994327537537
5.0E-4                    0.0265                   297.4984570170379
5.0E-4                    0.0275                   297.49751929174755
5.0E-4                    0.0285                   297.4971095809768
5.0E-4                    0.0295                   297.4969178805652
5.0E-4                    0.0305                   297.4967261801536
5.0E-4                    0.0315                   297.49652324785006
0.0015                    -0.0315                  293.3642875396805
0.0015                    -0.0305                  293.47155578782565
0.0015                    -0.0295                  293.53011588098434
0.0015                    -0.0285                  293.3945536378961
0.0015                    -0.0275                  293.3190314706491
0.0015                    -0.0265                  293.2787696302056
0.0015                    -0.0255                  293.16096823607927
0.0015                    -0.0245                  293.1496883871049
0.0015                    -0.0235                  293.14409284820687
0.0015                    -0.0225                  293.44977619688325
0.0015                    -0.0215                  294.93780411241255
0.0015                    -0.0205                  295.29625241155964
0.0015                    -0.0195                  295.3955237290517
0.0015                    -0.0185                  295.45967842163066
0.0015                    -0.0175                  295.51813056333435
0.0015                    -0.0165                  295.51931440540665
0.0015                    -0.0155                  295.55413004618293
0.0015                    -0.0145                  295.54071225079514
0.0015                    -0.0135                  295.56322884363146
0.0015                    -0.0125                  295.5404894278767
0.0015                    -0.0115                  295.56468102506545
0.0015                    -0.0105                  295.53520505139903
0.0015                    -0.0095                  295.5691673944898
0.0015                    -0.0085                  295.53769522745733
0.0015                    -0.0075                  295.5822850796907
0.0015                    -0.0065                  295.556305264631
0.0015                    -0.0055                  295.61064299549923
0.0015                    -0.0045                  295.60457461962847
0.0015                    -0.0035                  295.6654831594316
0.0015                    -0.0025                  295.6805021333851
0.0015                    -0.0015                  295.7625971904814
0.0015                    -5.0E-4                  295.8153609209057
0.0015                    5.0E-4                   295.94940072659017
0.0015                    0.0015                   296.1171993863826
0.0015                    0.0025                   296.3142508292986
0.0015                    0.0035                   296.6251998709807
0.0015                    0.0045                   297.04732194606464
0.0015                    0.0055                   297.24113670091185
0.0015                    0.0065                   297.410789977258
0.0015                    0.0075                   297.53485118192543
0.0015                    0.0085                   297.51432156368196
0.0015                    0.0095                   297.51389978650604
0.0015                    0.0105                   297.51326730228993
0.0015                    0.0115                   297.5125419231068
0.0015                    0.0125                   297.51189092605716
0.0015                    0.0135                   297.5108007235693
0.0015                    0.0145                   297.5096987219686
0.0015                    0.0155                   297.50873906810796
0.0015                    0.0165                   297.5075151765742
0.0015                    0.0175                   297.50641106182303
0.0015                    0.0185                   297.505406885045
0.0015                    0.0195                   297.50416570025027
0.0015                    0.0205                   297.5029453212034
0.0015                    0.0215                   297.5018744977897
0.0015                    0.0225                   297.500801834443
0.0015                    0.0235                   297.4996840979233
0.0015                    0.0245                   297.4985800654496
0.0015                    0.0255                   297.49760432873376
0.0015                    0.0265                   297.49662859201794
0.0015                    0.0275                   297.4959223993228
0.0015                    0.0285                   297.49528803259716
0.0015                    0.0295                   297.4950866223048
0.0015                    0.0305                   297.49486122621744
0.0015                    0.0315                   297.4939613729726
0.0025                    -0.0315                  293.3610986542358
0.0025                    -0.0305                  293.3611867064503
0.0025                    -0.0295                  293.38181799688016
0.0025                    -0.0285                  293.32629412283626
0.0025                    -0.0275                  293.2893580500609
0.0025                    -0.0265                  293.25682570724325
0.0025                    -0.0255                  293.16695356122216
0.0025                    -0.0245                  293.147964748785
0.0025                    -0.0235                  293.1530780343309
0.0025                    -0.0225                  293.6081433271368
0.0025                    -0.0215                  294.6557223860295
0.0025                    -0.0205                  295.09625746401923
0.0025                    -0.0195                  295.15752826952007
0.0025                    -0.0185                  295.1908888737726
0.0025                    -0.0175                  295.19764691710196
0.0025                    -0.0165                  295.2105979889427
0.0025                    -0.0155                  295.2184730160685
0.0025                    -0.0145                  295.21296580654973
0.0025                    -0.0135                  295.2256708857057
0.0025                    -0.0125                  295.2158063967441
0.0025                    -0.0115                  295.22411861925843
0.0025                    -0.0105                  295.21008628830594
0.0025                    -0.0095                  295.2082613016959
0.0025                    -0.0085                  295.19570519952947
0.0025                    -0.0075                  295.18698891806105
0.0025                    -0.0065                  295.1745486805384
0.0025                    -0.0055                  295.18377030098327
0.0025                    -0.0045                  295.1800921677187
0.0025                    -0.0035                  295.2145914319675
0.0025                    -0.0025                  295.2295060321397
0.0025                    -0.0015                  295.2926114097953
0.0025                    -5.0E-4                  295.34787077864956
0.0025                    5.0E-4                   295.4571072976852
0.0025                    0.0015                   295.55437487064034
0.0025                    0.0025                   295.74655743383505
0.0025                    0.0035                   296.0477292264975
0.0025                    0.0045                   296.5569449754624
0.0025                    0.0055                   297.02371623997635
0.0025                    0.0065                   297.44327152847194
0.0025                    0.0075                   297.5063632265249
0.0025                    0.0085                   297.51232708377574
0.0025                    0.0095                   297.51206785682047
0.0025                    0.0105                   297.5114600349866
0.0025                    0.0115                   297.51081573898875
0.0025                    0.0125                   297.5097885559817
0.0025                    0.0135                   297.50897586280576
0.0025                    0.0145                   297.5082698750963
0.0025                    0.0155                   297.5073878478385
0.0025                    0.0165                   297.5061639563048
0.0025                    0.0175                   297.5049634741762
0.0025                    0.0185                   297.5038058783435
0.0025                    0.0195                   297.5025506269286
0.0025                    0.0205                   297.50129537551373
0.0025                    0.0215                   297.50016668453173
0.0025                    0.0225                   297.4990627916793
0.0025                    0.0235                   297.4979450551597
0.0025                    0.0245                   297.49682731864
0.0025                    0.0255                   297.49577590371376
0.0025                    0.0265                   297.49495987362377
0.0025                    0.0275                   297.49432550689806
0.0025                    0.0285                   297.49369114017236
0.0025                    0.0295                   297.49319920458476
0.0025                    0.0305                   297.49229935133985
0.0025                    0.0315                   297.49139949809506
0.0035                    -0.0315                  293.3569617640634
0.0035                    -0.0305                  293.35675761707336
0.0035                    -0.0295                  293.3486894904981
0.0035                    -0.0285                  293.2974300198417
0.0035                    -0.0275                  293.2758946649995
0.0035                    -0.0265                  293.24458542911896
0.0035                    -0.0255                  293.1735969138731
0.0035                    -0.0245                  293.14633684101545
0.0035                    -0.0235                  293.19204330685466
0.0035                    -0.0225                  293.65153702152537
0.0035                    -0.0215                  294.5303570520964
0.0035                    -0.0205                  294.97909556793115
0.0035                    -0.0195                  295.0224970641528
0.0035                    -0.0185                  295.03847059657267
0.0035                    -0.0175                  295.03570800899263
0.0035                    -0.0165                  295.0497872081238
0.0035                    -0.0155                  295.04833261196796
0.0035                    -0.0145                  295.04819584601887
0.0035                    -0.0135                  295.0439919893472
0.0035                    -0.0125                  295.0388883800021
0.0035                    -0.0115                  295.03229588529155
0.0035                    -0.0105                  295.0280277262928
0.0035                    -0.0095                  295.02126732616455
0.0035                    -0.0085                  295.0236016259947
0.0035                    -0.0075                  295.0122215589611
0.0035                    -0.0065                  295.01529455227455
0.0035                    -0.0055                  295.00112692940934
0.0035                    -0.0045                  295.0070253261662
0.0035                    -0.0035                  295.00771827921267
0.0035                    -0.0025                  295.02182206739343
0.0035                    -0.0015                  295.04491507444675
0.0035                    -5.0E-4                  295.086816764373
0.0035                    5.0E-4                   295.11692193600277
0.0035                    0.0015                   295.2100466841778
0.0035                    0.0025                   295.3429218721767
0.0035                    0.0035                   295.4842539345185
0.0035                    0.0045                   295.68981513290015
0.0035                    0.0055                   296.1937211566195
0.0035                    0.0065                   296.79257823519515
0.0035                    0.0075                   297.2581942366004
0.0035                    0.0085                   297.509109569973
0.0035                    0.0095                   297.5096134051502
0.0035                    0.0105                   297.5089337724703
0.0035                    0.0115                   297.50792629702636
0.0035                    0.0125                   297.50707256152725
0.0035                    0.0135                   297.5060580581484
0.0035                    0.0145                   297.5049550513775
0.0035                    0.0155                   297.5040269941842
0.0035                    0.0165                   297.50322943466165
0.0035                    0.0175                   297.502040188696
0.0035                    0.0185                   297.50105016968973
0.0035                    0.0195                   297.5000647276502
0.0035                    0.0205                   297.4990792856106
0.0035                    0.0215                   297.497934792229
0.0035                    0.0225                   297.4967626864705
0.0035                    0.0235                   297.495590580712
0.0035                    0.0245                   297.49441847495353
0.0035                    0.0255                   297.4931236450001
0.0035                    0.0265                   297.4920672338076
0.0035                    0.0275                   297.4909390523795
0.0035                    0.0285                   297.4898108709514
0.0035                    0.0295                   297.48934607324054
0.0035                    0.0305                   297.4895656091004
0.0035                    0.0315                   297.48883762321753
0.0045                    -0.0315                  293.35212517626087
0.0045                    -0.0305                  293.35109798169793
0.0045                    -0.0295                  293.33880484643385
0.0045                    -0.0285                  293.29077994314855
0.0045                    -0.0275                  293.2663401660296
0.0045                    -0.0265                  293.2242187442515
0.0045                    -0.0255                  293.17208036857437
0.0045                    -0.0245                  293.1499640494894
0.0045                    -0.0235                  293.2392337267055
0.0045                    -0.0225                  293.680051277299
0.0045                    -0.0215                  294.41613500382533
0.0045                    -0.0205                  294.9165905726831
0.0045                    -0.0195                  294.9739891912595
0.0045                    -0.0185                  294.96576759911517
0.0045                    -0.0175                  294.97043484984755
0.0045                    -0.0165                  294.961828497639
0.0045                    -0.0155                  294.95584381296544
0.0045                    -0.0145                  294.95199163965333
0.0045                    -0.0135                  294.94638367631984
0.0045                    -0.0125                  294.93931709715474
0.0045                    -0.0115                  294.93127645827883
0.0045                    -0.0105                  294.9244693958202
0.0045                    -0.0095                  294.9151507609606
0.0045                    -0.0085                  294.9034545171841
0.0045                    -0.0075                  294.89567497444006
0.0045                    -0.0065                  294.8867263244829
0.0045                    -0.0055                  294.8848323930563
0.0045                    -0.0045                  294.88550314451714
0.0045                    -0.0035                  294.88893824768445
0.0045                    -0.0025                  294.9010226617893
0.0045                    -0.0015                  294.909322677174
0.0045                    -5.0E-4                  294.9259081611694
0.0045                    5.0E-4                   294.94986087967845
0.0045                    0.0015                   294.9926019741174
0.0045                    0.0025                   295.04732822235434
0.0045                    0.0035                   295.13914913049456
0.0045                    0.0045                   295.27809401878596
0.0045                    0.0055                   295.4326173509553
0.0045                    0.0065                   295.74026413491396
0.0045                    0.0075                   296.2652767291601
0.0045                    0.0085                   296.85731300423254
0.0045                    0.0095                   297.269401255921
0.0045                    0.0105                   297.50540483107466
0.0045                    0.0115                   297.5041897500389
0.0045                    0.0125                   297.50316536662945
0.0045                    0.0135                   297.5023351864322
0.0045                    0.0145                   297.5014214531012
0.0045                    0.0155                   297.50047651333836
0.0045                    0.0165                   297.4991954288017
0.0045                    0.0175                   297.4979196834684
0.0045                    0.0185                   297.49692331491167
0.0045                    0.0195                   297.4959378728721
0.0045                    0.0205                   297.49446835184915
0.0045                    0.0215                   297.49309487353503
0.0045                    0.0225                   297.49195060613283
0.0045                    0.0235                   297.4907785003744
0.0045                    0.0245                   297.4894890344484
0.0045                    0.0255                   297.4877641216368
0.0045                    0.0265                   297.4869100955808
0.0045                    0.0275                   297.485913563386
0.0045                    0.0285                   297.48478538195786
0.0045                    0.0295                   297.48461866554777
0.0045                    0.0305                   297.4848382014077
0.0045                    0.0315                   297.4848283531435
0.0055                    -0.0315                  293.347189797363
0.0055                    -0.0305                  293.34573207165903
0.0055                    -0.0295                  293.3424260414913
0.0055                    -0.0285                  293.2945743593038
0.0055                    -0.0275                  293.25016280241755
0.0055                    -0.0265                  293.2174734773222
0.0055                    -0.0255                  293.1669559179077
0.0055                    -0.0245                  293.16108942958516
0.0055                    -0.0235                  293.29899110782867
0.0055                    -0.0225                  293.78194749837496
0.0055                    -0.0215                  294.2893763557215
0.0055                    -0.0205                  294.85091155295873
0.0055                    -0.0195                  294.9521294029286
0.0055                    -0.0185                  294.96250424252105
0.0055                    -0.0175                  294.95624910491097
0.0055                    -0.0165                  294.9458916872011
0.0055                    -0.0155                  294.9411129904997
0.0055                    -0.0145                  294.93437954301135
0.0055                    -0.0135                  294.9282930822134
0.0055                    -0.0125                  294.92148365448827
0.0055                    -0.0115                  294.9122003217499
0.0055                    -0.0105                  294.9062317230632
0.0055                    -0.0095                  294.89957068821485
0.0055                    -0.0085                  294.8939522707183
0.0055                    -0.0075                  294.8884239004875
0.0055                    -0.0065                  294.8838549123697
0.0055                    -0.0055                  294.8761810517347
0.0055                    -0.0045                  294.8739631329054
0.0055                    -0.0035                  294.86589424184695
0.0055                    -0.0025                  294.85280432098523
0.0055                    -0.0015                  294.84411667086306
0.0055                    -5.0E-4                  294.8475387681435
0.0055                    5.0E-4                   294.8582797788432
0.0055                    0.0015                   294.87712245826555
0.0055                    0.0025                   294.9087346383536
0.0055                    0.0035                   294.9502802808863
0.0055                    0.0045                   294.9962018343322
0.0055                    0.0055                   295.08184792151576
0.0055                    0.0065                   295.2253864048919
0.0055                    0.0075                   295.4314060504796
0.0055                    0.0085                   295.8437289137297
0.0055                    0.0095                   296.3952951631383
0.0055                    0.0105                   297.12225261155396
0.0055                    0.0115                   297.49911835458397
0.0055                    0.0125                   297.498111793105
0.0055                    0.0135                   297.49747440111264
0.0055                    0.0145                   297.49659903519307
0.0055                    0.0155                   297.4954031245664
0.0055                    0.0165                   297.49455999612076
0.0055                    0.0175                   297.4934731061718
0.0055                    0.0185                   297.4923409328892
0.0055                    0.0195                   297.49114139447454
0.0055                    0.0205                   297.48952220842835
0.0055                    0.0215                   297.48824885667017
0.0055                    0.0225                   297.48712045434144
0.0055                    0.0235                   297.4858544238967
0.0055                    0.0245                   297.484123774356
0.0055                    0.0255                   297.48241337095254
0.0055                    0.0265                   297.4815593448966
0.0055                    0.0275                   297.48070531884065
0.0055                    0.0285                   297.4797598929644
0.0055                    0.0295                   297.47938729091476
0.0055                    0.0305                   297.478255730039
0.0055                    0.0315                   297.47712416916323
0.0065                    -0.0315                  293.342645729029
0.0065                    -0.0305                  293.34090014659967
0.0065                    -0.0295                  293.33741341143815
0.0065                    -0.0285                  293.31383927572494
0.0065                    -0.0275                  293.2515583394833
0.0065                    -0.0265                  293.2069031589749
0.0065                    -0.0255                  293.1584052703197
0.0065                    -0.0245                  293.1502014180208
0.0065                    -0.0235                  293.3383874705694
0.0065                    -0.0225                  293.77097282820785
0.0065                    -0.0215                  294.35977319909796
0.0065                    -0.0205                  294.827676001048
0.0065                    -0.0195                  294.95257806849594
0.0065                    -0.0185                  294.976211298615
0.0065                    -0.0175                  294.9717517460107
0.0065                    -0.0165                  294.96382036296757
0.0065                    -0.0155                  294.94899670850236
0.0065                    -0.0145                  294.9424463542157
0.0065                    -0.0135                  294.93549393930374
0.0065                    -0.0125                  294.92843997059913
0.0065                    -0.0115                  294.91943359736774
0.0065                    -0.0105                  294.91157738468917
0.0065                    -0.0095                  294.9039448675949
0.0065                    -0.0085                  294.89927863664184
0.0065                    -0.0075                  294.89557829808416
0.0065                    -0.0065                  294.8867779971968
0.0065                    -0.0055                  294.88145443476367
0.0065                    -0.0045                  294.87471343386653
0.0065                    -0.0035                  294.86177461615307
0.0065                    -0.0025                  294.8507462917928
0.0065                    -0.0015                  294.8417212693281
0.0065                    -5.0E-4                  294.831874279222
0.0065                    5.0E-4                   294.827741721469
0.0065                    0.0015                   294.8253630133249
0.0065                    0.0025                   294.81670501428283
0.0065                    0.0035                   294.8361461349249
0.0065                    0.0045                   294.86713526533987
0.0065                    0.0055                   294.91365855725013
0.0065                    0.0065                   294.9614870226379
0.0065                    0.0075                   295.0585521309345
0.0065                    0.0085                   295.22998369066
0.0065                    0.0095                   295.5394201362175
0.0065                    0.0105                   296.0737814858187
0.0065                    0.0115                   296.9689856853976