% Model:              模型结构导入comsolBench.mph
% Version:            COMSOL 6.2.0.339
% Date:               May 12 2026, 14:18
% Dimension:          2
% Nodes:              4096
% Expressions:        1
% Description:        温度
% Length unit:        m
% x                       y                        T (K)
5.0E-4                    -0.0315                  293.4712235747896
5.0E-4                    -0.0305                  293.46567576266386
5.0E-4                    -0.0295                  293.4601279505382
5.0E-4                    -0.0285                  293.44939788834074
5.0E-4                    -0.0275                  293.4345856482728
5.0E-4                    -0.0265                  293.4141780538415
5.0E-4                    -0.0255                  293.38632286704114
5.0E-4                    -0.0245                  293.35723201505095
5.0E-4                    -0.0235                  293.3317876947243
5.0E-4                    -0.0225                  293.20175475312317
5.0E-4                    -0.0215                  293.15400103056464
5.0E-4                    -0.0205                  293.15071260424
5.0E-4                    -0.0195                  293.1496053721295
5.0E-4                    -0.0185                  293.14946774323687
5.0E-4                    -0.0175                  293.15011487139964
5.0E-4                    -0.0165                  293.15472564635945
5.0E-4                    -0.0155                  293.5302459656182
5.0E-4                    -0.0145                  293.82205628357303
5.0E-4                    -0.0135                  293.854861699056
5.0E-4                    -0.0125                  293.8844951570062
5.0E-4                    -0.0115                  293.9139049534947
5.0E-4                    -0.0105                  293.94671595166096
5.0E-4                    -0.0095                  293.99897670559983
5.0E-4                    -0.0085                  294.1844306451166
5.0E-4                    -0.0075                  294.3208853693848
5.0E-4                    -0.0065                  294.3212384114895
5.0E-4                    -0.0055                  294.3213826322342
5.0E-4                    -0.0045                  294.3214922669465
5.0E-4                    -0.0035                  294.32171786729566
5.0E-4                    -0.0025                  294.322266479418
5.0E-4                    -0.0015                  294.3239214203019
5.0E-4                    -5.0E-4                  294.32609114526855
5.0E-4                    5.0E-4                   294.3292581323898
5.0E-4                    0.0015                   294.33407560931226
5.0E-4                    0.0025                   294.33889308623486
5.0E-4                    0.0035                   294.3450628792318
5.0E-4                    0.0045                   294.3527421984313
5.0E-4                    0.0055                   294.36042151763075
5.0E-4                    0.0065                   294.3683129407613
5.0E-4                    0.0075                   294.3777843497381
5.0E-4                    0.0085                   294.38760077189653
5.0E-4                    0.0095                   294.3974171940549
5.0E-4                    0.0105                   294.4072336162134
5.0E-4                    0.0115                   294.41815703368684
5.0E-4                    0.0125                   294.4288320703424
5.0E-4                    0.0135                   294.439507106998
5.0E-4                    0.0145                   294.4501821436536
5.0E-4                    0.0155                   294.46100772945204
5.0E-4                    0.0165                   294.4711045912482
5.0E-4                    0.0175                   294.4812014530444
5.0E-4                    0.0185                   294.49129831484055
5.0E-4                    0.0195                   294.50124266266477
5.0E-4                    0.0205                   294.50953011530896
5.0E-4                    0.0215                   294.5177091416691
5.0E-4                    0.0225                   294.5258881680294
5.0E-4                    0.0235                   294.53374419416633
5.0E-4                    0.0245                   294.5396397048427
5.0E-4                    0.0255                   294.5449593510067
5.0E-4                    0.0265                   294.55027899717066
5.0E-4                    0.0275                   294.55557650793435
5.0E-4                    0.0285                   294.5584929354768
5.0E-4                    0.0295                   294.5603910280155
5.0E-4                    0.0305                   294.56228912055406
5.0E-4                    0.0315                   294.5641872130927
0.0015                    -0.0315                  293.4753610933779
0.0015                    -0.0305                  293.4711203296137
0.0015                    -0.0295                  293.4645405786981
0.0015                    -0.0285                  293.45411216777046
0.0015                    -0.0275                  293.4416556327861
0.0015                    -0.0265                  293.42508053132894
0.0015                    -0.0255                  293.4058786682387
0.0015                    -0.0245                  293.3868952495318
0.0015                    -0.0235                  293.37129267231734
0.0015                    -0.0225                  293.25243462299875
0.0015                    -0.0215                  293.15876255569447
0.0015                    -0.0205                  293.1515141560092
0.0015                    -0.0195                  293.1501238051262
0.0015                    -0.0185                  293.1497990660133
0.0015                    -0.0175                  293.15023522347724
0.0015                    -0.0165                  293.15382313179146
0.0015                    -0.0155                  293.40019534923806
0.0015                    -0.0145                  293.6804138000331
0.0015                    -0.0135                  293.7250711255286
0.0015                    -0.0125                  293.7771448389556
0.0015                    -0.0115                  293.8466846129503
0.0015                    -0.0105                  293.9139935353776
0.0015                    -0.0095                  293.9807769909425
0.0015                    -0.0085                  294.14741990745404
0.0015                    -0.0075                  294.320012942484
0.0015                    -0.0065                  294.32041597243654
0.0015                    -0.0055                  294.32049874443464
0.0015                    -0.0045                  294.3202335502764
0.0015                    -0.0035                  294.3204253392207
0.0015                    -0.0025                  294.32083123269945
0.0015                    -0.0015                  294.32157302324435
0.0015                    -5.0E-4                  294.3238949419366
0.0015                    5.0E-4                   294.3263539805825
0.0015                    0.0015                   294.3308615071113
0.0015                    0.0025                   294.33617702493837
0.0015                    0.0035                   294.3420364732341
0.0015                    0.0045                   294.3493876603138
0.0015                    0.0055                   294.3570669795133
0.0015                    0.0065                   294.3657677310718
0.0015                    0.0075                   294.374810887312
0.0015                    0.0085                   294.3846273094705
0.0015                    0.0095                   294.39444373162894
0.0015                    0.0105                   294.40502932576044
0.0015                    0.0115                   294.4161431242425
0.0015                    0.0125                   294.4268791013681
0.0015                    0.0135                   294.43755413802364
0.0015                    0.0145                   294.4483962510588
0.0015                    0.0155                   294.4594999855439
0.0015                    0.0165                   294.4699810694019
0.0015                    0.0175                   294.4800779311981
0.0015                    0.0185                   294.49013224873914
0.0015                    0.0195                   294.49993998738483
0.0015                    0.0205                   294.5091533792289
0.0015                    0.0215                   294.51733240558906
0.0015                    0.0225                   294.52551143194927
0.0015                    0.0235                   294.5326770854038
0.0015                    0.0245                   294.5396454893494
0.0015                    0.0255                   294.54496513551345
0.0015                    0.0265                   294.5502847816774
0.0015                    0.0275                   294.55473983953266
0.0015                    0.0285                   294.55852906582794
0.0015                    0.0295                   294.56060471915976
0.0015                    0.0305                   294.5625028116984
0.0015                    0.0315                   294.5637315556689
0.0025                    -0.0315                  293.479476377303
0.0025                    -0.0305                  293.4756322038167
0.0025                    -0.0295                  293.47140458161584
0.0025                    -0.0285                  293.46311537902136
0.0025                    -0.0275                  293.4523812566145
0.0025                    -0.0265                  293.43943198871386
0.0025                    -0.0255                  293.42507092546157
0.0025                    -0.0245                  293.4115374392902
0.0025                    -0.0235                  293.40008944769426
0.0025                    -0.0225                  293.284640699845
0.0025                    -0.0215                  293.16734704037265
0.0025                    -0.0205                  293.152427363928
0.0025                    -0.0195                  293.1507775104663
0.0025                    -0.0185                  293.15019538446313
0.0025                    -0.0175                  293.1503697298383
0.0025                    -0.0165                  293.15937711951193
0.0025                    -0.0155                  293.29498550193193
0.0025                    -0.0145                  293.58493820879056
0.0025                    -0.0135                  293.61893104274657
0.0025                    -0.0125                  293.66240233316216
0.0025                    -0.0115                  293.74362873493726
0.0025                    -0.0105                  293.84115232731295
0.0025                    -0.0095                  293.937467274111
0.0025                    -0.0085                  294.13665052749946
0.0025                    -0.0075                  294.3186854249305
0.0025                    -0.0065                  294.3189863317437
0.0025                    -0.0055                  294.31864407789817
0.0025                    -0.0045                  294.3181810949623
0.0025                    -0.0035                  294.3174107466815
0.0025                    -0.0025                  294.317761728408
0.0025                    -0.0015                  294.3179923784568
0.0025                    -5.0E-4                  294.3209192848535
0.0025                    5.0E-4                   294.3241957449283
0.0025                    0.0015                   294.32778486128296
0.0025                    0.0025                   294.33364430957863
0.0025                    0.0035                   294.33950375787435
0.0025                    0.0045                   294.34603312219645
0.0025                    0.0055                   294.3542709040078
0.0025                    0.0065                   294.3632225213822
0.0025                    0.0075                   294.3721741387567
0.0025                    0.0085                   294.38165384704445
0.0025                    0.0095                   294.39171863442215
0.0025                    0.0105                   294.4028324329041
0.0025                    0.0115                   294.4139462313862
0.0025                    0.0125                   294.4249261323938
0.0025                    0.0135                   294.4356061459184
0.0025                    0.0145                   294.44670988040366
0.0025                    0.0155                   294.4578136148888
0.0025                    0.0165                   294.4688575475557
0.0025                    0.0175                   294.47895440935184
0.0025                    0.0185                   294.48882957345927
0.0025                    0.0195                   294.49863731210485
0.0025                    0.0205                   294.5084450507504
0.0025                    0.0215                   294.516955669509
0.0025                    0.0225                   294.52446073001653
0.0025                    0.0235                   294.53160997664133
0.0025                    0.0245                   294.53875922326614
0.0025                    0.0255                   294.5449709200201
0.0025                    0.0265                   294.55011394483574
0.0025                    0.0275                   294.553903171131
0.0025                    0.0285                   294.55769239742637
0.0025                    0.0295                   294.56081841030414
0.0025                    0.0305                   294.5620656570253
0.0025                    0.0315                   294.5632666468697
0.0035                    -0.0315                  293.485917544343
0.0035                    -0.0305                  293.48376660189524
0.0035                    -0.0295                  293.4812386142487
0.0035                    -0.0285                  293.4729040903874
0.0035                    -0.0275                  293.46513800960236
0.0035                    -0.0265                  293.4540459113999
0.0035                    -0.0255                  293.44325380819487
0.0035                    -0.0245                  293.43217498277625
0.0035                    -0.0235                  293.4224469038823
0.0035                    -0.0225                  293.3054046606007
0.0035                    -0.0215                  293.17964016242627
0.0035                    -0.0205                  293.15583973075326
0.0035                    -0.0195                  293.1514893221089
0.0035                    -0.0185                  293.1506345337561
0.0035                    -0.0175                  293.15059546356315
0.0035                    -0.0165                  293.15233078694087
0.0035                    -0.0155                  293.23470148372115
0.0035                    -0.0145                  293.43690469084544
0.0035                    -0.0135                  293.5588760816919
0.0035                    -0.0125                  293.59143777103924
0.0035                    -0.0115                  293.63994331578925
0.0035                    -0.0105                  293.7335977637893
0.0035                    -0.0095                  293.8443287445413
0.0035                    -0.0085                  293.9670849012117
0.0035                    -0.0075                  294.17207857829084
0.0035                    -0.0065                  294.3171409269983
0.0035                    -0.0055                  294.3162477805342
0.0035                    -0.0045                  294.31484716707945
0.0035                    -0.0035                  294.31343134108755
0.0035                    -0.0025                  294.3121541027281
0.0035                    -0.0015                  294.3123096420063
0.0035                    -5.0E-4                  294.3140335231915
0.0035                    5.0E-4                   294.3172121819147
0.0035                    0.0015                   294.32142998305204
0.0035                    0.0025                   294.3282381561079
0.0035                    0.0035                   294.3351110395093
0.0035                    0.0045                   294.3419622975634
0.0035                    0.0055                   294.3515184026627
0.0035                    0.0065                   294.36067731169277
0.0035                    0.0075                   294.3696289290672
0.0035                    0.0085                   294.3786803846184
0.0035                    0.0095                   294.3895217415658
0.0035                    0.0105                   294.40063554004786
0.0035                    0.0115                   294.41174933852994
0.0035                    0.0125                   294.422863137012
0.0035                    0.0135                   294.4339197752633
0.0035                    0.0145                   294.44502350974847
0.0035                    0.0155                   294.45612724423364
0.0035                    0.0165                   294.4672309787189
0.0035                    0.0175                   294.4777191595336
0.0035                    0.0185                   294.4875268981792
0.0035                    0.0195                   294.49732630073584
0.0035                    0.0205                   294.5070744741527
0.0035                    0.0215                   294.5162287205346
0.0035                    0.0225                   294.523393621254
0.0035                    0.0235                   294.5305428678788
0.0035                    0.0245                   294.5376921145036
0.0035                    0.0255                   294.54484136112836
0.0035                    0.0265                   294.5492772764341
0.0035                    0.0275                   294.553144927522
0.0035                    0.0285                   294.5570183049994
0.0035                    0.0295                   294.5602242964133
0.0035                    0.0305                   294.5615559309696
0.0035                    0.0315                   294.56280173807045
0.0045                    -0.0315                  293.4954959578628
0.0045                    -0.0305                  293.49267389240515
0.0045                    -0.0295                  293.4898518269476
0.0045                    -0.0285                  293.48343310102234
0.0045                    -0.0275                  293.476411764792
0.0045                    -0.0265                  293.4690943113045
0.0045                    -0.0255                  293.45951648005445
0.0045                    -0.0245                  293.45050702199865
0.0045                    -0.0235                  293.4428449503358
0.0045                    -0.0225                  293.342979690985
0.0045                    -0.0215                  293.2026483886458
0.0045                    -0.0205                  293.16209554377156
0.0045                    -0.0195                  293.152580857805
0.0045                    -0.0185                  293.1511704918423
0.0045                    -0.0175                  293.15084468258226
0.0045                    -0.0165                  293.1523801438648
0.0045                    -0.0155                  293.1970060866622
0.0045                    -0.0145                  293.3203478600234
0.0045                    -0.0135                  293.46604769698183
0.0045                    -0.0125                  293.536506793979
0.0045                    -0.0115                  293.5687822627429
0.0045                    -0.0105                  293.6388370510942
0.0045                    -0.0095                  293.7523777494639
0.0045                    -0.0085                  293.87050665709916
0.0045                    -0.0075                  293.983365945201
0.0045                    -0.0065                  294.16910735293607
0.0045                    -0.0055                  294.31328712237774
0.0045                    -0.0045                  294.31111473475306
0.0045                    -0.0035                  294.3075208623826
0.0045                    -0.0025                  294.30467115012715
0.0045                    -0.0015                  294.3037193850865
0.0045                    -5.0E-4                  294.3049310965676
0.0045                    5.0E-4                   294.3085633912675
0.0045                    0.0015                   294.31371397599094
0.0045                    0.0025                   294.3200196495184
0.0045                    0.0035                   294.3267132321514
0.0045                    0.0045                   294.3339101383714
0.0045                    0.0055                   294.34341079701505
0.0045                    0.0065                   294.3529766585956
0.0045                    0.0075                   294.3625425201761
0.0045                    0.0085                   294.3724248259407
0.0045                    0.0095                   294.38392647804756
0.0045                    0.0105                   294.3948283163609
0.0045                    0.0115                   294.40573015467425
0.0045                    0.0125                   294.41709242853165
0.0045                    0.0135                   294.4295240565872
0.0045                    0.0145                   294.44062666427226
0.0045                    0.0155                   294.45172927195733
0.0045                    0.0165                   294.4628739274924
0.0045                    0.0175                   294.47496788710515
0.0045                    0.0185                   294.4848544340687
0.0045                    0.0195                   294.4946026074856
0.0045                    0.0205                   294.5043507809024
0.0045                    0.0215                   294.51403927010233
0.0045                    0.0225                   294.5220662554065
0.0045                    0.0235                   294.5292335013791
0.0045                    0.0245                   294.5364007473517
0.0045                    0.0255                   294.5435393173957
0.0045                    0.0265                   294.5485934634302
0.0045                    0.0275                   294.55262448619214
0.0045                    0.0285                   294.55649786366956
0.0045                    0.0295                   294.55948232413306
0.0045                    0.0305                   294.5608139586893
0.0045                    0.0315                   294.5621499104362
0.0055                    -0.0315                  293.5050743713825
0.0055                    -0.0305                  293.5022809566865
0.0055                    -0.0295                  293.5002711760589
0.0055                    -0.0285                  293.495949407936
0.0055                    -0.0275                  293.4897283899764
0.0055                    -0.0265                  293.4823591056723
0.0055                    -0.0255                  293.4748877817092
0.0055                    -0.0245                  293.46685541959846
0.0055                    -0.0235                  293.4585599651647
0.0055                    -0.0225                  293.4471715946888
0.0055                    -0.0215                  293.2794783265913
0.0055                    -0.0205                  293.17346026009585
0.0055                    -0.0195                  293.15633461741174
0.0055                    -0.0185                  293.1520224845934
0.0055                    -0.0175                  293.1512843924842
0.0055                    -0.0165                  293.1526460847174
0.0055                    -0.0155                  293.1693033291287
0.0055                    -0.0145                  293.2497351016507
0.0055                    -0.0135                  293.37786506871424
0.0055                    -0.0125                  293.4818044985577
0.0055                    -0.0115                  293.52680626786236
0.0055                    -0.0105                  293.57767879472556
0.0055                    -0.0095                  293.65613039465757
0.0055                    -0.0085                  293.77412545401137
0.0055                    -0.0075                  293.88944861609235
0.0055                    -0.0065                  293.9918757985771
0.0055                    -0.0055                  294.13789794966533
0.0055                    -0.0045                  294.2190218796158
0.0055                    -0.0035                  294.2997725708394
0.0055                    -0.0025                  294.29441271846576
0.0055                    -0.0015                  294.2914889028462
0.0055                    -5.0E-4                  294.2934589136317
0.0055                    5.0E-4                   294.2973425114464
0.0055                    0.0015                   294.3037452259026
0.0055                    0.0025                   294.31058317207714
0.0055                    0.0035                   294.3180309101542
0.0055                    0.0045                   294.3258579791795
0.0055                    0.0055                   294.3353289430298
0.0055                    0.0065                   294.34487306688754
0.0055                    0.0075                   294.35450419488336
0.0055                    0.0085                   294.3648846420776
0.0055                    0.0095                   294.3770259582962
0.0055                    0.0105                   294.3880857278898
0.0055                    0.0115                   294.3989875662031
0.0055                    0.0125                   294.4114880681799
0.0055                    0.0135                   294.42424301776936
0.0055                    0.0145                   294.43593654556435
0.0055                    0.0155                   294.44703915324936
0.0055                    0.0165                   294.45883796812655
0.0055                    0.0175                   294.47093192773923
0.0055                    0.0185                   294.48213074081843
0.0055                    0.0195                   294.49187891423526
0.0055                    0.0205                   294.501604596659
0.0055                    0.0215                   294.5112788897779
0.0055                    0.0225                   294.52073654430575
0.0055                    0.0235                   294.5279037902784
0.0055                    0.0245                   294.5350414840742
0.0055                    0.0255                   294.54215899751057
0.0055                    0.0265                   294.5472685737302
0.0055                    0.0275                   294.5517263175502
0.0055                    0.0285                   294.55597742233965
0.0055                    0.0295                   294.55874035185286
0.0055                    0.0305                   294.56008862404553
0.0055                    0.0315                   294.56144840686
0.0065                    -0.0315                  293.51499379350423
0.0065                    -0.0305                  293.5129840128766
0.0065                    -0.0295                  293.5109742322488
0.0065                    -0.0285                  293.5069977027182
0.0065                    -0.0275                  293.5017773119438
0.0065                    -0.0265                  293.4962839764372
0.0065                    -0.0255                  293.4894770636969
0.0065                    -0.0245                  293.4824002216929
0.0065                    -0.0235                  293.47478423596084
0.0065                    -0.0225                  293.46776316286343
0.0065                    -0.0215                  293.3837331656599
0.0065                    -0.0205                  293.1992860213488
0.0065                    -0.0195                  293.1627840281473
0.0065                    -0.0185                  293.15397951002274
0.0065                    -0.0175                  293.1517134234715
0.0065                    -0.0165                  293.15254145132394
0.0065                    -0.0155                  293.1574841393827
0.0065                    -0.0145                  293.1961449253653
0.0065                    -0.0135                  293.30797494749334
0.0065                    -0.0125                  293.4054878089648
0.0065                    -0.0115                  293.47254738943894
0.0065                    -0.0105                  293.5306046259126
0.0065                    -0.0095                  293.5753687771352
0.0065                    -0.0085                  293.6533448744658
0.0065                    -0.0075                  293.7417984673584
0.0065                    -0.0065                  293.8195731837874
0.0065                    -0.0055                  293.92082358150634
0.0065                    -0.0045                  294.0481139026064
0.0065                    -0.0035                  294.2064776986504
0.0065                    -0.0025                  294.279581606591
0.0065                    -0.0015                  294.2740752424919
0.0065                    -5.0E-4                  294.27658172148415
0.0065                    5.0E-4                   294.28444025479604
0.0065                    0.0015                   294.2920472608214
0.0065                    0.0025                   294.29946655832947
0.0065                    0.0035                   294.307116095332
0.0065                    0.0045                   294.3154955018631
0.0065                    0.0055                   294.32456920553193
0.0065                    0.0065                   294.33517869361475
0.0065                    0.0075                   294.34647684280196
0.0065                    0.0085                   294.3573444582144
0.0065                    0.0095                   294.36948577443314
0.0065                    0.0105                   294.3813431394187
0.0065                    0.0115                   294.39312875823856