% Model:              模型结构导入comsolBench.mph
% Version:            COMSOL 6.2.0.339
% Date:               May 12 2026, 14:13
% Dimension:          2
% Nodes:              4096
% Expressions:        1
% Description:        温度
% Length unit:        m
% x                       y                        T (K)
5.0E-4                    -0.0315                  293.6920946501311
5.0E-4                    -0.0305                  293.69186931738125
5.0E-4                    -0.0295                  293.69159285741756
5.0E-4                    -0.0285                  293.604227626473
5.0E-4                    -0.0275                  293.18185479516256
5.0E-4                    -0.0265                  293.1506996179712
5.0E-4                    -0.0255                  293.1504227925308
5.0E-4                    -0.0245                  293.1503614468976
5.0E-4                    -0.0235                  293.1503625213609
5.0E-4                    -0.0225                  293.1503689395961
5.0E-4                    -0.0215                  293.15040739830124
5.0E-4                    -0.0205                  293.1528979830519
5.0E-4                    -0.0195                  293.28696016474737
5.0E-4                    -0.0185                  293.32154270046425
5.0E-4                    -0.0175                  293.3056589531916
5.0E-4                    -0.0165                  293.2906428985436
5.0E-4                    -0.0155                  293.28168634933303
5.0E-4                    -0.0145                  293.2744977813505
5.0E-4                    -0.0135                  293.2687233458371
5.0E-4                    -0.0125                  293.2641144294966
5.0E-4                    -0.0115                  293.26014083589496
5.0E-4                    -0.0105                  293.2563451409444
5.0E-4                    -0.0095                  293.2525539283165
5.0E-4                    -0.0085                  293.24918750585374
5.0E-4                    -0.0075                  293.2475655087757
5.0E-4                    -0.0065                  293.24777735277564
5.0E-4                    -0.0055                  293.249771466757
5.0E-4                    -0.0045                  293.2520476094817
5.0E-4                    -0.0035                  293.2555223978026
5.0E-4                    -0.0025                  293.259314159669
5.0E-4                    -0.0015                  293.263690491985
5.0E-4                    -5.0E-4                  293.2679919067062
5.0E-4                    5.0E-4                   293.2737433576347
5.0E-4                    0.0015                   293.2822808451903
5.0E-4                    0.0025                   293.29568674897223
5.0E-4                    0.0035                   293.3218281106172
5.0E-4                    0.0045                   293.4163843008516
5.0E-4                    0.0055                   293.9144694358638
5.0E-4                    0.0065                   294.5184832799104
5.0E-4                    0.0075                   294.7780390209032
5.0E-4                    0.0085                   294.79623506172237
5.0E-4                    0.0095                   294.82294859774095
5.0E-4                    0.0105                   294.8521453446665
5.0E-4                    0.0115                   294.88108513995473
5.0E-4                    0.0125                   294.90881813648707
5.0E-4                    0.0135                   294.93432642198536
5.0E-4                    0.0145                   294.9586060006269
5.0E-4                    0.0155                   294.97984101092493
5.0E-4                    0.0165                   295.00081331185834
5.0E-4                    0.0175                   295.0194844004765
5.0E-4                    0.0185                   295.035491936465
5.0E-4                    0.0195                   295.05149947245354
5.0E-4                    0.0205                   295.066446679515
5.0E-4                    0.0215                   295.0776238697331
5.0E-4                    0.0225                   295.0886837431334
5.0E-4                    0.0235                   295.09974361653366
5.0E-4                    0.0245                   295.1087664711942
5.0E-4                    0.0255                   295.11518690869144
5.0E-4                    0.0265                   295.1216073461887
5.0E-4                    0.0275                   295.1280277836859
5.0E-4                    0.0285                   295.1323417184673
5.0E-4                    0.0295                   295.1344865453009
5.0E-4                    0.0305                   295.13663137213445
5.0E-4                    0.0315                   295.138776198968
0.0015                    -0.0315                  293.6913188853376
0.0015                    -0.0305                  293.69097601285375
0.0015                    -0.0295                  293.69028218749014
0.0015                    -0.0285                  293.5460059304391
0.0015                    -0.0275                  293.20893602973666
0.0015                    -0.0265                  293.1534752893099
0.0015                    -0.0255                  293.15131377433505
0.0015                    -0.0245                  293.1510844586488
0.0015                    -0.0235                  293.15103134515846
0.0015                    -0.0225                  293.1510261494779
0.0015                    -0.0215                  293.151100353407
0.0015                    -0.0205                  293.15260883329205
0.0015                    -0.0195                  293.2636644878987
0.0015                    -0.0185                  293.29154510002445
0.0015                    -0.0175                  293.28672388876976
0.0015                    -0.0165                  293.28069035188526
0.0015                    -0.0155                  293.27570386881985
0.0015                    -0.0145                  293.27316645441226
0.0015                    -0.0135                  293.26960020658964
0.0015                    -0.0125                  293.26767635970407
0.0015                    -0.0115                  293.26260431538736
0.0015                    -0.0105                  293.2553343682857
0.0015                    -0.0095                  293.24674475871257
0.0015                    -0.0085                  293.2388488674223
0.0015                    -0.0075                  293.2363468837136
0.0015                    -0.0065                  293.2364515691645
0.0015                    -0.0055                  293.23741543715533
0.0015                    -0.0045                  293.24044402487505
0.0015                    -0.0035                  293.24235231921494
0.0015                    -0.0025                  293.24574342841146
0.0015                    -0.0015                  293.24762948117234
0.0015                    -5.0E-4                  293.251781804587
0.0015                    5.0E-4                   293.2541082820253
0.0015                    0.0015                   293.25994946195624
0.0015                    0.0025                   293.26711541570353
0.0015                    0.0035                   293.2757061145642
0.0015                    0.0045                   293.296258481859
0.0015                    0.0055                   293.38800543489157
0.0015                    0.0065                   294.1334713001104
0.0015                    0.0075                   294.7579449630514
0.0015                    0.0085                   294.788419527587
0.0015                    0.0095                   294.81950201945943
0.0015                    0.0105                   294.8517912713608
0.0015                    0.0115                   294.8816106287187
0.0015                    0.0125                   294.9089533655953
0.0015                    0.0135                   294.935522568515
0.0015                    0.0145                   294.9586280095424
0.0015                    0.0155                   294.9813566874079
0.0015                    0.0165                   295.0011616213452
0.0015                    0.0175                   295.0197005752557
0.0015                    0.0185                   295.03689736234105
0.0015                    0.0195                   295.0523521253713
0.0015                    0.0205                   295.0663793736963
0.0015                    0.0215                   295.078762086716
0.0015                    0.0225                   295.08982196011624
0.0015                    0.0235                   295.0999542122175
0.0015                    0.0245                   295.1089203739276
0.0015                    0.0255                   295.11601380691076
0.0015                    0.0265                   295.122434244408
0.0015                    0.0275                   295.12801685267596
0.0015                    0.0285                   295.1324539265129
0.0015                    0.0295                   295.13501437660165
0.0015                    0.0305                   295.1371592034352
0.0015                    0.0315                   295.13867757861635
0.0025                    -0.0315                  293.6900077921619
0.0025                    -0.0305                  293.68912175454244
0.0025                    -0.0295                  293.6881367283932
0.0025                    -0.0285                  293.5174504019949
0.0025                    -0.0275                  293.2328854269561
0.0025                    -0.0265                  293.15720489870625
0.0025                    -0.0255                  293.1521810896598
0.0025                    -0.0245                  293.1518033649347
0.0025                    -0.0235                  293.1517274996205
0.0025                    -0.0225                  293.1517116853332
0.0025                    -0.0215                  293.1517945626249
0.0025                    -0.0205                  293.1578588155284
0.0025                    -0.0195                  293.2255509332686
0.0025                    -0.0185                  293.2842677881764
0.0025                    -0.0175                  293.28614590500416
0.0025                    -0.0165                  293.28285882766755
0.0025                    -0.0155                  293.2806374390479
0.0025                    -0.0145                  293.28174422328226
0.0025                    -0.0135                  293.28421137239354
0.0025                    -0.0125                  293.2773390468734
0.0025                    -0.0115                  293.26463350342317
0.0025                    -0.0105                  293.25263735034025
0.0025                    -0.0095                  293.2388080723044
0.0025                    -0.0085                  293.23153724962555
0.0025                    -0.0075                  293.23167262337483
0.0025                    -0.0065                  293.2334037147206
0.0025                    -0.0055                  293.2370236295074
0.0025                    -0.0045                  293.24261707915525
0.0025                    -0.0035                  293.2445504840117
0.0025                    -0.0025                  293.252086879273
0.0025                    -0.0015                  293.2508495312832
0.0025                    -5.0E-4                  293.2570509032003
0.0025                    5.0E-4                   293.25535352033904
0.0025                    0.0015                   293.2589184570195
0.0025                    0.0025                   293.2614981010071
0.0025                    0.0035                   293.2645670430048
0.0025                    0.0045                   293.27199394038894
0.0025                    0.0055                   293.31968633253825
0.0025                    0.0065                   293.94396387155246
0.0025                    0.0075                   294.7251059510439
0.0025                    0.0085                   294.7770872537076
0.0025                    0.0095                   294.81695723509745
0.0025                    0.0105                   294.85188932493355
0.0025                    0.0115                   294.88321060070695
0.0025                    0.0125                   294.9114413592284
0.0025                    0.0135                   294.93784445270774
0.0025                    0.0145                   294.9606257535228
0.0025                    0.0155                   294.9829816436883
0.0025                    0.0165                   295.0020864284642
0.0025                    0.0175                   295.02020802155306
0.0025                    0.0185                   295.0382727827955
0.0025                    0.0195                   295.0522848195526
0.0025                    0.0205                   295.06631206787756
0.0025                    0.0215                   295.0799003036989
0.0025                    0.0225                   295.0906780660459
0.0025                    0.0235                   295.099644227756
0.0025                    0.0245                   295.10861038946604
0.0025                    0.0255                   295.11684070513013
0.0025                    0.0265                   295.1231310790462
0.0025                    0.0275                   295.12756815288316
0.0025                    0.0285                   295.1320052267201
0.0025                    0.0295                   295.1355422079024
0.0025                    0.0305                   295.137077432762
0.0025                    0.0315                   295.1385705334254
0.0035                    -0.0315                  293.68822068800205
0.0035                    -0.0305                  293.68720937781217
0.0035                    -0.0295                  293.6847767403236
0.0035                    -0.0285                  293.5359644863619
0.0035                    -0.0275                  293.2721611900108
0.0035                    -0.0265                  293.16896523837534
0.0035                    -0.0255                  293.15375524821445
0.0035                    -0.0245                  293.1524640259471
0.0035                    -0.0235                  293.1523834495445
0.0035                    -0.0225                  293.1523877907201
0.0035                    -0.0215                  293.15274866923255
0.0035                    -0.0205                  293.1622614368827
0.0035                    -0.0195                  293.2005543666142
0.0035                    -0.0185                  293.26499238850295
0.0035                    -0.0175                  293.2876890114826
0.0035                    -0.0165                  293.2870491170997
0.0035                    -0.0155                  293.28695662346496
0.0035                    -0.0145                  293.29187592480076
0.0035                    -0.0135                  293.28657279396555
0.0035                    -0.0125                  293.27529925505655
0.0035                    -0.0115                  293.2532151550048
0.0035                    -0.0105                  293.23752926005204
0.0035                    -0.0095                  293.2286372449771
0.0035                    -0.0085                  293.2280600934038
0.0035                    -0.0075                  293.2314632807989
0.0035                    -0.0065                  293.23831452799266
0.0035                    -0.0055                  293.25045482290574
0.0035                    -0.0045                  293.2595153016401
0.0035                    -0.0035                  293.274413672302
0.0035                    -0.0025                  293.2781589847794
0.0035                    -0.0015                  293.28566067317547
0.0035                    -5.0E-4                  293.28214104352435
0.0035                    5.0E-4                   293.27803893708915
0.0035                    0.0015                   293.2746655695871
0.0035                    0.0025                   293.2734361035804
0.0035                    0.0035                   293.2678315686782
0.0035                    0.0045                   293.26870616580896
0.0035                    0.0055                   293.2778721745219
0.0035                    0.0065                   293.80171642719625
0.0035                    0.0075                   294.70231666393727
0.0035                    0.0085                   294.77372577607673
0.0035                    0.0095                   294.8178301164756
0.0035                    0.0105                   294.85463761079234
0.0035                    0.0115                   294.88616443744456
0.0035                    0.0125                   294.9140891988306
0.0035                    0.0135                   294.9399858010095
0.0035                    0.0145                   294.96376698897484
0.0035                    0.0155                   294.98470520415265
0.0035                    0.0165                   295.0047928920965
0.0035                    0.0175                   295.0229144851853
0.0035                    0.0185                   295.0395067583194
0.0035                    0.0195                   295.05379248954466
0.0035                    0.0205                   295.0671828142256
0.0035                    0.0215                   295.0805731389065
0.0035                    0.0225                   295.0904390398283
0.0035                    0.0235                   295.0993342432945
0.0035                    0.0245                   295.10830040500457
0.0035                    0.0255                   295.11726656671465
0.0035                    0.0265                   295.1227372031776
0.0035                    0.0275                   295.1274000322491
0.0035                    0.0285                   295.13206286132066
0.0035                    0.0295                   295.1354504115663
0.0035                    0.0305                   295.1369683093684
0.0035                    0.0315                   295.1384634882345
0.0045                    -0.0315                  293.6865915498451
0.0045                    -0.0305                  293.6853238850878
0.0045                    -0.0295                  293.6815195452149
0.0045                    -0.0285                  293.67288147142585
0.0045                    -0.0275                  293.3721781438552
0.0045                    -0.0265                  293.17812926066097
0.0045                    -0.0255                  293.15499984883405
0.0045                    -0.0245                  293.1534277742628
0.0045                    -0.0235                  293.1531103514838
0.0045                    -0.0225                  293.152962107201
0.0045                    -0.0215                  293.1526135838909
0.0045                    -0.0205                  293.16089280305283
0.0045                    -0.0195                  293.18705299577584
0.0045                    -0.0185                  293.24393593674694
0.0045                    -0.0175                  293.27928844198516
0.0045                    -0.0165                  293.2875156675543
0.0045                    -0.0155                  293.29011151301535
0.0045                    -0.0145                  293.2836875402281
0.0045                    -0.0135                  293.2704449277533
0.0045                    -0.0125                  293.2478786954712
0.0045                    -0.0115                  293.23329207517145
0.0045                    -0.0105                  293.2240725959182
0.0045                    -0.0095                  293.220560530397
0.0045                    -0.0085                  293.23013779812527
0.0045                    -0.0075                  293.24436101374016
0.0045                    -0.0065                  293.26865965149176
0.0045                    -0.0055                  293.2928109233378
0.0045                    -0.0045                  293.31834108600566
0.0045                    -0.0035                  293.3394510811136
0.0045                    -0.0025                  293.3430354758345
0.0045                    -0.0015                  293.34666492651434
0.0045                    -5.0E-4                  293.3334717015691
0.0045                    5.0E-4                   293.3294679930254
0.0045                    0.0015                   293.309971069015
0.0045                    0.0025                   293.29505305120074
0.0045                    0.0035                   293.2884786910043
0.0045                    0.0045                   293.2780483700792
0.0045                    0.0055                   293.2689275379206
0.0045                    0.0065                   293.39966851833725
0.0045                    0.0075                   294.14509187441513
0.0045                    0.0085                   294.78044741443915
0.0045                    0.0095                   294.82388331590494
0.0045                    0.0105                   294.8614663547113
0.0045                    0.0115                   294.8914803469702
0.0045                    0.0125                   294.91874864433606
0.0045                    0.0135                   294.94398526813814
0.0045                    0.0145                   294.9664052851819
0.0045                    0.0155                   294.9867476821835
0.0045                    0.0165                   295.0073669797948
0.0045                    0.0175                   295.02427606655
0.0045                    0.0185                   295.0407407338433
0.0045                    0.0195                   295.0557537468072
0.0045                    0.0205                   295.06899729953693
0.0045                    0.0215                   295.08194564196594
0.0045                    0.0225                   295.0919765298258
0.0045                    0.0235                   295.100850019446
0.0045                    0.0245                   295.10972350906616
0.0045                    0.0255                   295.117872680443
0.0045                    0.0265                   295.1232419591817
0.0045                    0.0275                   295.12795350316526
0.0045                    0.0285                   295.1326163322368
0.0045                    0.0295                   295.1352941200186
0.0045                    0.0305                   295.1368120178207
0.0045                    0.0315                   295.1383299156228
0.0055                    -0.0315                  293.68597667125124
0.0055                    -0.0305                  293.68427093537144
0.0055                    -0.0295                  293.68058963396504
0.0055                    -0.0285                  293.6749421002952
0.0055                    -0.0275                  293.39984708713126
0.0055                    -0.0265                  293.1924231473142
0.0055                    -0.0255                  293.1596363349114
0.0055                    -0.0245                  293.15499324268785
0.0055                    -0.0235                  293.1539781601357
0.0055                    -0.0225                  293.15363892339974
0.0055                    -0.0215                  293.15335544642096
0.0055                    -0.0205                  293.1610552275592
0.0055                    -0.0195                  293.1713184903484
0.0055                    -0.0185                  293.2082202857232
0.0055                    -0.0175                  293.24611243565835
0.0055                    -0.0165                  293.2627440676211
0.0055                    -0.0155                  293.2644129311276
0.0055                    -0.0145                  293.25366798784535
0.0055                    -0.0135                  293.2352944307016
0.0055                    -0.0125                  293.2203474050242
0.0055                    -0.0115                  293.2134715744968
0.0055                    -0.0105                  293.2219386853159
0.0055                    -0.0095                  293.2339099649431
0.0055                    -0.0085                  293.2508402628397
0.0055                    -0.0075                  293.29150704338525
0.0055                    -0.0065                  293.34812160329705
0.0055                    -0.0055                  293.4123957006087
0.0055                    -0.0045                  293.45494358966596
0.0055                    -0.0035                  293.46852771019195
0.0055                    -0.0025                  293.47100731335064
0.0055                    -0.0015                  293.4705465526281
0.0055                    -5.0E-4                  293.4321858983576
0.0055                    5.0E-4                   293.40203349732656
0.0055                    0.0015                   293.37337165836146
0.0055                    0.0025                   293.3355653410237
0.0055                    0.0035                   293.316835732168
0.0055                    0.0045                   293.29790772649426
0.0055                    0.0055                   293.2814293042711
0.0055                    0.0065                   293.2843867748352
0.0055                    0.0075                   293.45116054360363
0.0055                    0.0085                   294.06970967723214
0.0055                    0.0095                   294.5525667363115
0.0055                    0.0105                   294.873754644233
0.0055                    0.0115                   294.89874398436194
0.0055                    0.0125                   294.9243729928376
0.0055                    0.0135                   294.94859316440807
0.0055                    0.0145                   294.9706534197765
0.0055                    0.0155                   294.9911637945835
0.0055                    0.0165                   295.0103837087705
0.0055                    0.0175                   295.0270356762627
0.0055                    0.0185                   295.04317180431184
0.0055                    0.0195                   295.0576254732757
0.0055                    0.0205                   295.07049235601806
0.0055                    0.0215                   295.08270762769763
0.0055                    0.0225                   295.0930000590586
0.0055                    0.0235                   295.1023875094435
0.0055                    0.0245                   295.1104212327713
0.0055                    0.0255                   295.11829475916824
0.0055                    0.0265                   295.12336979796953
0.0055                    0.0275                   295.1284448367709
0.0055                    0.0285                   295.1331698031529
0.0055                    0.0295                   295.1351378284709
0.0055                    0.0305                   295.13667614594334
0.0055                    0.0315                   295.1382235663282
0.0065                    -0.0315                  293.68579505579993
0.0065                    -0.0305                  293.6845854943668
0.0065                    -0.0295                  293.6807296316506
0.0065                    -0.0285                  293.6756310911438
0.0065                    -0.0275                  293.46191656356996
0.0065                    -0.0265                  293.22577736118865
0.0065                    -0.0255                  293.16698665011484
0.0065                    -0.0245                  293.15649706608235
0.0065                    -0.0235                  293.1550231337335
0.0065                    -0.0225                  293.15431977229974
0.0065                    -0.0215                  293.1545593267273
0.0065                    -0.0205                  293.15790068065246
0.0065                    -0.0195                  293.1654697040004
0.0065                    -0.0185                  293.1892145319259
0.0065                    -0.0175                  293.2106622551129
0.0065                    -0.0165                  293.22730170250196
0.0065                    -0.0155                  293.2238534336001
0.0065                    -0.0145                  293.20799646619116
0.0065                    -0.0135                  293.20150659922996
0.0065                    -0.0125                  293.20925084199877
0.0065                    -0.0115                  293.2218180265127
0.0065                    -0.0105                  293.24399371557615
0.0065                    -0.0095                  293.2851977737495
0.0065                    -0.0085                  293.3582709812771
0.0065                    -0.0075                  293.44024177757024
0.0065                    -0.0065                  293.5446164400406
0.0065                    -0.0055                  293.61729855384255
0.0065                    -0.0045                  293.670219710961
0.0065                    -0.0035                  293.71666841089103
0.0065                    -0.0025                  293.7198061487444
0.0065                    -0.0015                  293.6720801512605
0.0065                    -5.0E-4                  293.61202660261176
0.0065                    5.0E-4                   293.53675553973153
0.0065                    0.0015                   293.4718667538093
0.0065                    0.0025                   293.4244394042064
0.0065                    0.0035                   293.36605652628435
0.0065                    0.0045                   293.33332229656025
0.0065                    0.0055                   293.3067270219286
0.0065                    0.0065                   293.2876369201687
0.0065                    0.0075                   293.29424126803553
0.0065                    0.0085                   293.44180400850405
0.0065                    0.0095                   293.74584503691653
0.0065                    0.0105                   294.3632802869255
0.0065                    0.0115                   294.90348551930146