% Model:              模型结构导入comsolBench.mph
% Version:            COMSOL 6.2.0.339
% Date:               May 12 2026, 14:07
% Dimension:          2
% Nodes:              4096
% Expressions:        1
% Description:        温度
% Length unit:        m
% x                       y                        T (K)
5.0E-4                    -0.0315                  293.51121037172163
5.0E-4                    -0.0305                  293.65358091738887
5.0E-4                    -0.0295                  293.69043893650024
5.0E-4                    -0.0285                  293.6124020246151
5.0E-4                    -0.0275                  293.55750170864474
5.0E-4                    -0.0265                  293.4418948235681
5.0E-4                    -0.0255                  293.1592592811579
5.0E-4                    -0.0245                  293.1504422841134
5.0E-4                    -0.0235                  293.1498605962291
5.0E-4                    -0.0225                  293.30293122409915
5.0E-4                    -0.0215                  295.6176755864784
5.0E-4                    -0.0205                  296.09723613950666
5.0E-4                    -0.0195                  296.13950088489935
5.0E-4                    -0.0185                  296.14243247053537
5.0E-4                    -0.0175                  296.1382724600909
5.0E-4                    -0.0165                  296.1253940460862
5.0E-4                    -0.0155                  296.1099725623314
5.0E-4                    -0.0145                  296.095416893929
5.0E-4                    -0.0135                  296.0841656136126
5.0E-4                    -0.0125                  296.05827472530876
5.0E-4                    -0.0115                  296.0318505038351
5.0E-4                    -0.0105                  296.01669886320957
5.0E-4                    -0.0095                  296.00863035946844
5.0E-4                    -0.0085                  295.9979831664998
5.0E-4                    -0.0075                  295.98796711078353
5.0E-4                    -0.0065                  295.9867531566101
5.0E-4                    -0.0055                  295.9874962686803
5.0E-4                    -0.0045                  295.9936902657663
5.0E-4                    -0.0035                  296.0130144279795
5.0E-4                    -0.0025                  296.03807195806536
5.0E-4                    -0.0015                  296.0759923312007
5.0E-4                    -5.0E-4                  296.1416574180005
5.0E-4                    5.0E-4                   296.22920437812184
5.0E-4                    0.0015                   296.35764223095873
5.0E-4                    0.0025                   296.48643144083513
5.0E-4                    0.0035                   296.59908116225586
5.0E-4                    0.0045                   296.71795463215335
5.0E-4                    0.0055                   296.8472735201181
5.0E-4                    0.0065                   296.9956218004156
5.0E-4                    0.0075                   297.1968679407821
5.0E-4                    0.0085                   297.51256383246215
5.0E-4                    0.0095                   298.01066615481375
5.0E-4                    0.0105                   298.71050874417665
5.0E-4                    0.0115                   299.58973181695967
5.0E-4                    0.0125                   300.6371972216665
5.0E-4                    0.0135                   301.8172130297858
5.0E-4                    0.0145                   303.017789572365
5.0E-4                    0.0155                   304.04553107986396
5.0E-4                    0.0165                   304.464145407604
5.0E-4                    0.0175                   304.4658480107669
5.0E-4                    0.0185                   304.46729918617075
5.0E-4                    0.0195                   304.46842773404035
5.0E-4                    0.0205                   304.4690439959446
5.0E-4                    0.0215                   304.46941605469476
5.0E-4                    0.0225                   304.4691556020466
5.0E-4                    0.0235                   304.46878055884406
5.0E-4                    0.0245                   304.46815414575747
5.0E-4                    0.0255                   304.467383291741
5.0E-4                    0.0265                   304.4666457321267
5.0E-4                    0.0275                   304.46587906793064
5.0E-4                    0.0285                   304.46525542593264
5.0E-4                    0.0295                   304.4651182291145
5.0E-4                    0.0305                   304.46498103229646
5.0E-4                    0.0315                   304.4647742312649
0.0015                    -0.0315                  293.50931159206334
0.0015                    -0.0305                  293.5752441841495
0.0015                    -0.0295                  293.5436348852768
0.0015                    -0.0285                  293.4524960052846
0.0015                    -0.0275                  293.39943340269906
0.0015                    -0.0265                  293.3474990745128
0.0015                    -0.0255                  293.16899596151177
0.0015                    -0.0245                  293.1506996833437
0.0015                    -0.0235                  293.1528884709235
0.0015                    -0.0225                  293.47346086056143
0.0015                    -0.0215                  295.3242082841083
0.0015                    -0.0205                  295.7319744503243
0.0015                    -0.0195                  295.8240264784312
0.0015                    -0.0185                  295.86309537126465
0.0015                    -0.0175                  295.86655073052145
0.0015                    -0.0165                  295.85833408987173
0.0015                    -0.0155                  295.8446111666945
0.0015                    -0.0145                  295.82588816683824
0.0015                    -0.0135                  295.79889739238206
0.0015                    -0.0125                  295.76997027540307
0.0015                    -0.0115                  295.7403754223742
0.0015                    -0.0105                  295.7124413087364
0.0015                    -0.0095                  295.67691153932367
0.0015                    -0.0085                  295.65219295571933
0.0015                    -0.0075                  295.6378874248509
0.0015                    -0.0065                  295.60779319895994
0.0015                    -0.0055                  295.59597729784855
0.0015                    -0.0045                  295.58831803651464
0.0015                    -0.0035                  295.57520682234014
0.0015                    -0.0025                  295.6029140215593
0.0015                    -0.0015                  295.6387535964062
0.0015                    -5.0E-4                  295.686375617034
0.0015                    5.0E-4                   295.80295020462563
0.0015                    0.0015                   295.9624698990678
0.0015                    0.0025                   296.2222972024204
0.0015                    0.0035                   296.45382612887556
0.0015                    0.0045                   296.6638771901023
0.0015                    0.0055                   296.81518834198863
0.0015                    0.0065                   296.9491601457164
0.0015                    0.0075                   297.11942457674036
0.0015                    0.0085                   297.39119973092676
0.0015                    0.0095                   297.84681510508995
0.0015                    0.0105                   298.50425436085305
0.0015                    0.0115                   299.33073831657504
0.0015                    0.0125                   300.34730211002193
0.0015                    0.0135                   301.55565861738825
0.0015                    0.0145                   302.85101278029674
0.0015                    0.0155                   303.98534435243783
0.0015                    0.0165                   304.4631255371212
0.0015                    0.0175                   304.4651023004121
0.0015                    0.0185                   304.466639458032
0.0015                    0.0195                   304.4678351689457
0.0015                    0.0205                   304.4685785582783
0.0015                    0.0215                   304.46870503470126
0.0015                    0.0225                   304.46851610725514
0.0015                    0.0235                   304.46810416344
0.0015                    0.0245                   304.4672081754143
0.0015                    0.0255                   304.4663281423615
0.0015                    0.0265                   304.4655794153568
0.0015                    0.0275                   304.4645658623026
0.0015                    0.0285                   304.4636039002422
0.0015                    0.0295                   304.46346670342416
0.0015                    0.0305                   304.4631206939656
0.0015                    0.0315                   304.46213316580634
0.0025                    -0.0315                  293.5065824924433
0.0025                    -0.0305                  293.50616277888264
0.0025                    -0.0295                  293.47024068631777
0.0025                    -0.0285                  293.3865354791145
0.0025                    -0.0275                  293.34726192823996
0.0025                    -0.0265                  293.3092763629544
0.0025                    -0.0255                  293.1818456846875
0.0025                    -0.0245                  293.1483883596984
0.0025                    -0.0235                  293.176696735109
0.0025                    -0.0225                  293.71099155931125
0.0025                    -0.0215                  295.3112861650021
0.0025                    -0.0205                  295.50413347960546
0.0025                    -0.0195                  295.563097884144
0.0025                    -0.0185                  295.5824890181351
0.0025                    -0.0175                  295.57928639602295
0.0025                    -0.0165                  295.56367031259504
0.0025                    -0.0155                  295.54503207017683
0.0025                    -0.0145                  295.51782100736693
0.0025                    -0.0135                  295.4788388536799
0.0025                    -0.0125                  295.45656913731773
0.0025                    -0.0115                  295.4427194243505
0.0025                    -0.0105                  295.41900738009406
0.0025                    -0.0095                  295.3795401708319
0.0025                    -0.0085                  295.3570602369065
0.0025                    -0.0075                  295.3420371016695
0.0025                    -0.0065                  295.3124461909962
0.0025                    -0.0055                  295.29517229718306
0.0025                    -0.0045                  295.28858744653286
0.0025                    -0.0035                  295.27570834717005
0.0025                    -0.0025                  295.2776689167724
0.0025                    -0.0015                  295.29999250475396
0.0025                    -5.0E-4                  295.3349963744396
0.0025                    5.0E-4                   295.3968872968416
0.0025                    0.0015                   295.52905058269863
0.0025                    0.0025                   295.8107840576303
0.0025                    0.0035                   296.20995068537076
0.0025                    0.0045                   296.56633900180634
0.0025                    0.0055                   296.85672816347505
0.0025                    0.0065                   297.0355183555656
0.0025                    0.0075                   297.16551826098765
0.0025                    0.0085                   297.3937519064993
0.0025                    0.0095                   297.8001088509978
0.0025                    0.0105                   298.35382441955176
0.0025                    0.0115                   299.0503663658183
0.0025                    0.0125                   299.97890519949044
0.0025                    0.0135                   301.18112591902457
0.0025                    0.0145                   302.572329375184
0.0025                    0.0155                   303.8769498052563
0.0025                    0.0165                   304.4612950289511
0.0025                    0.0175                   304.4637042678419
0.0025                    0.0185                   304.46547398489946
0.0025                    0.0195                   304.4666520790903
0.0025                    0.0205                   304.4671432809002
0.0025                    0.0215                   304.46718584578383
0.0025                    0.0225                   304.4671493239487
0.0025                    0.0235                   304.46608781206
0.0025                    0.0245                   304.46537505194664
0.0025                    0.0255                   304.4646622918332
0.0025                    0.0265                   304.46374144583234
0.0025                    0.0275                   304.46310482608806
0.0025                    0.0285                   304.4622391036204
0.0025                    0.0295                   304.46146715666634
0.0025                    0.0305                   304.4604796285071
0.0025                    0.0315                   304.4594921003478
0.0035                    -0.0315                  293.50335845153415
0.0035                    -0.0305                  293.5028927996974
0.0035                    -0.0295                  293.4510066270626
0.0035                    -0.0285                  293.3473510786839
0.0035                    -0.0275                  293.3227651656663
0.0035                    -0.0265                  293.27246351616714
0.0035                    -0.0255                  293.1864580213103
0.0035                    -0.0245                  293.1556160239345
0.0035                    -0.0235                  293.2306093893319
0.0035                    -0.0225                  293.8472859125592
0.0035                    -0.0215                  295.131762441626
0.0035                    -0.0205                  295.41232249138085
0.0035                    -0.0195                  295.43853475805867
0.0035                    -0.0185                  295.4389165314934
0.0035                    -0.0175                  295.4206067110411
0.0035                    -0.0165                  295.4004604425161
0.0035                    -0.0155                  295.39850135316783
0.0035                    -0.0145                  295.3783213244677
0.0035                    -0.0135                  295.3526820608389
0.0035                    -0.0125                  295.3321365001859
0.0035                    -0.0115                  295.32290832397825
0.0035                    -0.0105                  295.3038090338283
0.0035                    -0.0095                  295.28524409209433
0.0035                    -0.0085                  295.26764576896215
0.0035                    -0.0075                  295.25502661547614
0.0035                    -0.0065                  295.2346566878888
0.0035                    -0.0055                  295.22175372136763
0.0035                    -0.0045                  295.21098778964097
0.0035                    -0.0035                  295.1985278024256
0.0035                    -0.0025                  295.19222537699716
0.0035                    -0.0015                  295.1895742202278
0.0035                    -5.0E-4                  295.18599897580845
0.0035                    5.0E-4                   295.22436312576787
0.0035                    0.0015                   295.27483618563474
0.0035                    0.0025                   295.3705871523714
0.0035                    0.0035                   295.72507994375945
0.0035                    0.0045                   296.2440238895507
0.0035                    0.0055                   296.7781288347941
0.0035                    0.0065                   297.1528210167164
0.0035                    0.0075                   297.31348887905745
0.0035                    0.0085                   297.50128175199904
0.0035                    0.0095                   297.8244421008185
0.0035                    0.0105                   298.14168610362645
0.0035                    0.0115                   298.6235863165707
0.0035                    0.0125                   299.49142626884674
0.0035                    0.0135                   300.70727470984775
0.0035                    0.0145                   302.22344341001326
0.0035                    0.0155                   303.7227084903318
0.0035                    0.0165                   304.45868442517724
0.0035                    0.0175                   304.4617435225973
0.0035                    0.0185                   304.4639405957204
0.0035                    0.0195                   304.465201955486
0.0035                    0.0205                   304.4654607488036
0.0035                    0.0215                   304.46556135958053
0.0035                    0.0225                   304.46463355509906
0.0035                    0.0235                   304.4634292510242
0.0035                    0.0245                   304.46258590316165
0.0035                    0.0255                   304.46155654738703
0.0035                    0.0265                   304.46021024069546
0.0035                    0.0275                   304.4595736209511
0.0035                    0.0285                   304.4580754153299
0.0035                    0.0295                   304.4575048519163
0.0035                    0.0305                   304.4576196922287
0.0035                    0.0315                   304.4568510348893
0.0045                    -0.0315                  293.4997666946083
0.0045                    -0.0305                  293.49873150707
0.0045                    -0.0295                  293.4579901367371
0.0045                    -0.0285                  293.34345794954544
0.0045                    -0.0275                  293.3044545097165
0.0045                    -0.0265                  293.2456213988248
0.0045                    -0.0255                  293.1775599804741
0.0045                    -0.0245                  293.166598596275
0.0045                    -0.0235                  293.3101905493859
0.0045                    -0.0225                  294.0167680432768
0.0045                    -0.0215                  295.08134495434825
0.0045                    -0.0205                  295.36769948204375
0.0045                    -0.0195                  295.3998224935789
0.0045                    -0.0185                  295.3894119948514
0.0045                    -0.0175                  295.37675739492744
0.0045                    -0.0165                  295.36331476031864
0.0045                    -0.0155                  295.35104784708585
0.0045                    -0.0145                  295.33650946948876
0.0045                    -0.0135                  295.3233677249564
0.0045                    -0.0125                  295.30718507505765
0.0045                    -0.0115                  295.2964745910521
0.0045                    -0.0105                  295.28492637713305
0.0045                    -0.0095                  295.274987690085
0.0045                    -0.0085                  295.2697756610005
0.0045                    -0.0075                  295.2573258747685
0.0045                    -0.0065                  295.2512015676279
0.0045                    -0.0055                  295.23032965856294
0.0045                    -0.0045                  295.2139669357408
0.0045                    -0.0035                  295.19901151231005
0.0045                    -0.0025                  295.18324365662795
0.0045                    -0.0015                  295.16832980690174
0.0045                    -5.0E-4                  295.1595723879653
0.0045                    5.0E-4                   295.14630344937416
0.0045                    0.0015                   295.17126440325603
0.0045                    0.0025                   295.225243374892
0.0045                    0.0035                   295.2981109625035
0.0045                    0.0045                   295.7232774489078
0.0045                    0.0055                   296.31499207408797
0.0045                    0.0065                   297.02605105978085
0.0045                    0.0075                   297.4245881376088
0.0045                    0.0085                   297.50911283052596
0.0045                    0.0095                   297.395991080471
0.0045                    0.0105                   297.4503236855839
0.0045                    0.0115                   297.67299393326607
0.0045                    0.0125                   298.72461730432053
0.0045                    0.0135                   300.09825598180186
0.0045                    0.0145                   301.6947624861824
0.0045                    0.0155                   303.46151972316966
0.0045                    0.0165                   304.4552876124612
0.0045                    0.0175                   304.45991060581673
0.0045                    0.0185                   304.46227267175937
0.0045                    0.0195                   304.4632567382978
0.0045                    0.0205                   304.4633321698666
0.0045                    0.0215                   304.4628617192059
0.0045                    0.0225                   304.4617924356269
0.0045                    0.0235                   304.4607966674143
0.0045                    0.0245                   304.45972296938936
0.0045                    0.0255                   304.4581108816867
0.0045                    0.0265                   304.4562340013417
0.0045                    0.0275                   304.45466954663516
0.0045                    0.0285                   304.45303262763787
0.0045                    0.0295                   304.4524653700677
0.0045                    0.0305                   304.4525802103801
0.0045                    0.0315                   304.45226015065555
0.0055                    -0.0315                  293.4961746398806
0.0055                    -0.0305                  293.4945248761301
0.0055                    -0.0295                  293.49098575676203
0.0055                    -0.0285                  293.3525533664081
0.0055                    -0.0275                  293.2811652632467
0.0055                    -0.0265                  293.2252938244054
0.0055                    -0.0255                  293.1748799996642
0.0055                    -0.0245                  293.18102126678787
0.0055                    -0.0235                  293.37121533267276
0.0055                    -0.0225                  294.06250923733614
0.0055                    -0.0215                  294.99930392214594
0.0055                    -0.0205                  295.36288284928804
0.0055                    -0.0195                  295.39115872730235
0.0055                    -0.0185                  295.3910117684534
0.0055                    -0.0175                  295.3747309607713
0.0055                    -0.0165                  295.36281645157345
0.0055                    -0.0155                  295.3542276558511
0.0055                    -0.0145                  295.34563942244887
0.0055                    -0.0135                  295.33264450197134
0.0055                    -0.0125                  295.32988828047667
0.0055                    -0.0115                  295.3204530618078
0.0055                    -0.0105                  295.3170411113927
0.0055                    -0.0095                  295.3217236199915
0.0055                    -0.0085                  295.3130963211084
0.0055                    -0.0075                  295.3163608954431
0.0055                    -0.0065                  295.30233523249626
0.0055                    -0.0055                  295.309807575178
0.0055                    -0.0045                  295.2970195932778
0.0055                    -0.0035                  295.27464280907475
0.0055                    -0.0025                  295.2419277009221
0.0055                    -0.0015                  295.19596089752605
0.0055                    -5.0E-4                  295.15126272630437
0.0055                    5.0E-4                   295.14021654830395
0.0055                    0.0015                   295.11936643189097
0.0055                    0.0025                   295.1168318038195
0.0055                    0.0035                   295.17794487267076
0.0055                    0.0045                   295.2757706360991
0.0055                    0.0055                   295.764095200107
0.0055                    0.0065                   296.42607513377476
0.0055                    0.0075                   297.1775004559348
0.0055                    0.0085                   297.16212106818534
0.0055                    0.0095                   296.89268429948123
0.0055                    0.0105                   296.89286066230005
0.0055                    0.0115                   296.8947750071976
0.0055                    0.0125                   297.61189206490485
0.0055                    0.0135                   299.2299590850431
0.0055                    0.0145                   300.92429622418723
0.0055                    0.0155                   302.513087112378
0.0055                    0.0165                   303.75318494095745
0.0055                    0.0175                   304.2460538304079
0.0055                    0.0185                   304.46084738359366
0.0055                    0.0195                   304.4611944906103
0.0055                    0.0205                   304.4607983799591
0.0055                    0.0215                   304.4597632190586
0.0055                    0.0225                   304.4586184218443
0.0055                    0.0235                   304.4568856997173
0.0055                    0.0245                   304.45460028282747
0.0055                    0.0255                   304.4527103948832
0.0055                    0.0265                   304.4509264613762
0.0055                    0.0275                   304.44944718414297
0.0055                    0.0285                   304.4479679069098
0.0055                    0.0295                   304.4470526447406
0.0055                    0.0305                   304.4456536154142
0.0055                    0.0315                   304.44425458608777
0.0065                    -0.0315                  293.4930358597147
0.0065                    -0.0305                  293.49126171790635
0.0065                    -0.0295                  293.487451754271
0.0065                    -0.0285                  293.3470648870741
0.0065                    -0.0275                  293.26894619844927
0.0065                    -0.0265                  293.2057974606802
0.0065                    -0.0255                  293.1734908604003
0.0065                    -0.0245                  293.224175853047
0.0065                    -0.0235                  293.5088944757654
0.0065                    -0.0225                  294.1551890559777
0.0065                    -0.0215                  294.77856807150465
0.0065                    -0.0205                  295.36898989869843
0.0065                    -0.0195                  295.4089781475706
0.0065                    -0.0185                  295.4270139072011
0.0065                    -0.0175                  295.42447294171416
0.0065                    -0.0165                  295.41242925554263
0.0065                    -0.0155                  295.4016152005853
0.0065                    -0.0145                  295.4036160311513
0.0065                    -0.0135                  295.4128751915192
0.0065                    -0.0125                  295.4100003426185
0.0065                    -0.0115                  295.42204576750294
0.0065                    -0.0105                  295.42462391585866
0.0065                    -0.0095                  295.444507388163
0.0065                    -0.0085                  295.46756953386597
0.0065                    -0.0075                  295.4783032701839
0.0065                    -0.0065                  295.5162769372013
0.0065                    -0.0055                  295.5336285121464
0.0065                    -0.0045                  295.5380994660313
0.0065                    -0.0035                  295.4969949074794
0.0065                    -0.0025                  295.42318260954664
0.0065                    -0.0015                  295.3307005989742
0.0065                    -5.0E-4                  295.2558196294672
0.0065                    5.0E-4                   295.17562785285054
0.0065                    0.0015                   295.1210712868508
0.0065                    0.0025                   295.1014315738482
0.0065                    0.0035                   295.1005888927039
0.0065                    0.0045                   295.13641350531975
0.0065                    0.0055                   295.2933137563125
0.0065                    0.0065                   295.8886797672327
0.0065                    0.0075                   296.57695227001636
0.0065                    0.0085                   296.9409730781783
0.0065                    0.0095                   296.8853509598532
0.0065                    0.0105                   296.8861578329391
0.0065                    0.0115                   296.8878012209182