% Model:              Benchmark260518.mph
% Version:            COMSOL 6.2.0.339
% Date:               May 21 2026, 11:25
% Dimension:          2
% Nodes:              4096
% Expressions:        1
% Description:        压力
% Length unit:        m
% x                       y                        p (Pa)
5.0E-4                    -0.0315                  3.7415845263482415
5.0E-4                    -0.0305                  3.761021125312689
5.0E-4                    -0.0295                  3.7875305633669707
5.0E-4                    -0.0285                  3.8163719674089873
5.0E-4                    -0.0275                  3.8465539828302333
5.0E-4                    -0.0265                  3.8777144758284754
5.0E-4                    -0.0255                  3.90961871828892
5.0E-4                    -0.0245                  3.942151115901125
5.0E-4                    -0.0235                  3.975249921686646
5.0E-4                    -0.0225                  4.008880282976957
5.0E-4                    -0.0215                  4.042999504631147
5.0E-4                    -0.0205                  4.077559585803319
5.0E-4                    -0.0195                  4.112507295334092
5.0E-4                    -0.0185                  4.147791724205098
5.0E-4                    -0.0175                  4.183397918560612
5.0E-4                    -0.0165                  4.219360382725176
5.0E-4                    -0.0155                  4.2557599808200735
5.0E-4                    -0.0145                  4.292726333224207
5.0E-4                    -0.0135                  4.3304244352861385
5.0E-4                    -0.0125                  4.369037824629319
5.0E-4                    -0.0115                  4.408773708655227
5.0E-4                    -0.0105                  4.449899290819537
5.0E-4                    -0.0095                  4.492764672105097
5.0E-4                    -0.0085                  4.537785377674928
5.0E-4                    -0.0075                  4.585439731645303
5.0E-4                    -0.0065                  4.635242080517277
5.0E-4                    -0.0055                  4.684095296387591
5.0E-4                    -0.0045                  4.727603275298018
5.0E-4                    -0.0035                  4.760170998161195
5.0E-4                    -0.0025                  4.779097936405286
5.0E-4                    -0.0015                  4.78736727656869
5.0E-4                    -5.0E-4                  4.80088122849088
5.0E-4                    5.0E-4                   4.837455821738922
5.0E-4                    0.0015                   4.885880235813386
5.0E-4                    0.0025                   4.923992412524384
5.0E-4                    0.0035                   4.949131189870905
5.0E-4                    0.0045                   4.967887631846581
5.0E-4                    0.0055                   4.983127851935035
5.0E-4                    0.0065                   4.9939261463147115
5.0E-4                    0.0075                   4.9965300381887925
5.0E-4                    0.0085                   4.989560883053269
5.0E-4                    0.0095                   4.9760754892509205
5.0E-4                    0.0105                   4.9555810292250495
5.0E-4                    0.0115                   4.930482472150586
5.0E-4                    0.0125                   4.909902671905287
5.0E-4                    0.0135                   4.898190493463065
5.0E-4                    0.0145                   4.891232494195441
5.0E-4                    0.0155                   4.870039383579141
5.0E-4                    0.0165                   4.8150241917743966
5.0E-4                    0.0175                   4.743505182551204
5.0E-4                    0.0185                   4.677810605449157
5.0E-4                    0.0195                   4.616912255619806
5.0E-4                    0.0205                   4.560202347165874
5.0E-4                    0.0215                   4.508209812947012
5.0E-4                    0.0225                   4.460436994494988
5.0E-4                    0.0235                   4.415533666998712
5.0E-4                    0.0245                   4.372259529537236
5.0E-4                    0.0255                   4.330018511190108
5.0E-4                    0.0265                   4.288601175310015
5.0E-4                    0.0275                   4.248002544995101
5.0E-4                    0.0285                   4.208508579973598
5.0E-4                    0.0295                   4.1706623930537585
5.0E-4                    0.0305                   4.135839927931077
5.0E-4                    0.0315                   4.110258213649105
0.0015                    -0.0315                  3.72204330523048
0.0015                    -0.0305                  3.7414561030099205
0.0015                    -0.0295                  3.769770277028692
0.0015                    -0.0285                  3.8007168400015807
0.0015                    -0.0275                  3.8325754954379305
0.0015                    -0.0265                  3.864966830021841
0.0015                    -0.0255                  3.8977776721282935
0.0015                    -0.0245                  3.930970011648258
0.0015                    -0.0235                  3.964543253396049
0.0015                    -0.0225                  3.9985052384830437
0.0015                    -0.0215                  4.032851350940143
0.0015                    -0.0205                  4.067551657625842
0.0015                    -0.0195                  4.1025515934428745
0.0015                    -0.0185                  4.137780306044764
0.0015                    -0.0175                  4.1731699026923526
0.0015                    -0.0165                  4.208679530650844
0.0015                    -0.0155                  4.24431262717238
0.0015                    -0.0145                  4.280128887215751
0.0015                    -0.0135                  4.31625312721202
0.0015                    -0.0125                  4.352883275164887
0.0015                    -0.0115                  4.390315605737784
0.0015                    -0.0105                  4.428996074416091
0.0015                    -0.0095                  4.469601154594012
0.0015                    -0.0085                  4.513106487186359
0.0015                    -0.0075                  4.560618897804965
0.0015                    -0.0065                  4.612466042149992
0.0015                    -0.0055                  4.666082624841824
0.0015                    -0.0045                  4.71619235762644
0.0015                    -0.0035                  4.754823547867557
0.0015                    -0.0025                  4.778654693776863
0.0015                    -0.0015                  4.792476983792435
0.0015                    -5.0E-4                  4.799017673692593
0.0015                    5.0E-4                   4.822809291519112
0.0015                    0.0015                   4.8648602622657
0.0015                    0.0025                   4.89696980914996
0.0015                    0.0035                   4.917592687795623
0.0015                    0.0045                   4.932354277832415
0.0015                    0.0055                   4.94468343028268
0.0015                    0.0065                   4.953958150420546
0.0015                    0.0075                   4.95544763771858
0.0015                    0.0085                   4.942956147415737
0.0015                    0.0095                   4.916184068521584
0.0015                    0.0105                   4.883109992819644
0.0015                    0.0115                   4.8550300197219105
0.0015                    0.0125                   4.835288630021629
0.0015                    0.0135                   4.819675476397878
0.0015                    0.0145                   4.803706536534731
0.0015                    0.0155                   4.780396498076046
0.0015                    0.0165                   4.743299881104624
0.0015                    0.0175                   4.6902315577805345
0.0015                    0.0185                   4.6315691260801515
0.0015                    0.0195                   4.577812995447437
0.0015                    0.0205                   4.528794850927548
0.0015                    0.0215                   4.483605704027892
0.0015                    0.0225                   4.4407500330420575
0.0015                    0.0235                   4.398885559962022
0.0015                    0.0245                   4.357188422207512
0.0015                    0.0255                   4.315306336129401
0.0015                    0.0265                   4.273188215585865
0.0015                    0.0275                   4.230986904619055
0.0015                    0.0285                   4.189029081583574
0.0015                    0.0295                   4.148025167699988
0.0015                    0.0305                   4.110418601664874
0.0015                    0.0315                   4.0846179180362885
0.0025                    -0.0315                  3.6952785573980957
0.0025                    -0.0305                  3.7127632535195785
0.0025                    -0.0295                  3.7409329545601473
0.0025                    -0.0285                  3.7734309834312194
0.0025                    -0.0275                  3.807213479126009
0.0025                    -0.0265                  3.841290834866899
0.0025                    -0.0255                  3.8754354465137895
0.0025                    -0.0245                  3.909636646638784
0.0025                    -0.0235                  3.9439442366195503
0.0025                    -0.0225                  3.9784172158190185
0.0025                    -0.0215                  4.013095367864477
0.0025                    -0.0205                  4.047978828560291
0.0025                    -0.0195                  4.083016101434535
0.0025                    -0.0185                  4.118103869694835
0.0025                    -0.0175                  4.153097687054066
0.0025                    -0.0165                  4.187837626173854
0.0025                    -0.0155                  4.222186991555345
0.0025                    -0.0145                  4.2560753107828555
0.0025                    -0.0135                  4.289541910956219
0.0025                    -0.0125                  4.322782065558949
0.0025                    -0.0115                  4.356203992812403
0.0025                    -0.0105                  4.390513760664134
0.0025                    -0.0095                  4.426826333785923
0.0025                    -0.0085                  4.46672165422606
0.0025                    -0.0075                  4.512016042756254
0.0025                    -0.0065                  4.563859498335206
0.0025                    -0.0055                  4.620995227204718
0.0025                    -0.0045                  4.678173680569502
0.0025                    -0.0035                  4.727280117185727
0.0025                    -0.0025                  4.764211475769482
0.0025                    -0.0015                  4.788327121188715
0.0025                    -5.0E-4                  4.802252778281971
0.0025                    5.0E-4                   4.821198301978147
0.0025                    0.0015                   4.849149234642061
0.0025                    0.0025                   4.874294634228421
0.0025                    0.0035                   4.892520488130081
0.0025                    0.0045                   4.905852218845247
0.0025                    0.0055                   4.916672016507624
0.0025                    0.0065                   4.922944781249789
0.0025                    0.0075                   4.91831771450358
0.0025                    0.0085                   4.897112289768506
0.0025                    0.0095                   4.862460986608889
0.0025                    0.0105                   4.825486909886246
0.0025                    0.0115                   4.79518981917838
0.0025                    0.0125                   4.771255845924778
0.0025                    0.0135                   4.748076969277941
0.0025                    0.0145                   4.720155267000221
0.0025                    0.0155                   4.6863071774665945
0.0025                    0.0165                   4.647479184109681
0.0025                    0.0175                   4.602368952875523
0.0025                    0.0185                   4.555653454758188
0.0025                    0.0195                   4.513735901048828
0.0025                    0.0205                   4.476491271886633
0.0025                    0.0215                   4.441244710648451
0.0025                    0.0225                   4.405712480094477
0.0025                    0.0235                   4.368535696810627
0.0025                    0.0245                   4.329233501348853
0.0025                    0.0255                   4.287827586900749
0.0025                    0.0265                   4.244619900425695
0.0025                    0.0275                   4.2001078070154465
0.0025                    0.0285                   4.155090366488322
0.0025                    0.0295                   4.111321330730966
0.0025                    0.0305                   4.073235745618284
0.0025                    0.0315                   4.0496264984995065
0.0035                    -0.0315                  3.6661015982788507
0.0035                    -0.0305                  3.681277575354623
0.0035                    -0.0295                  3.7074761686376343
0.0035                    -0.0285                  3.739660933086953
0.0035                    -0.0275                  3.774313409193415
0.0035                    -0.0265                  3.80964878362034
0.0035                    -0.0255                  3.844988995298256
0.0035                    -0.0245                  3.880163294269857
0.0035                    -0.0235                  3.915189313997215
0.0035                    -0.0225                  3.9501418765433765
0.0035                    -0.0215                  3.9850925782264417
0.0035                    -0.0205                  4.020071988974997
0.0035                    -0.0195                  4.055041334986807
0.0035                    -0.0185                  4.08987420264194
0.0035                    -0.0175                  4.1243536776369485
0.0035                    -0.0165                  4.15819241433789
0.0035                    -0.0155                  4.191082848161324
0.0035                    -0.0145                  4.222775448246709
0.0035                    -0.0135                  4.253172667282331
0.0035                    -0.0125                  4.282424387185735
0.0035                    -0.0115                  4.311019060009359
0.0035                    -0.0105                  4.339874075736082
0.0035                    -0.0095                  4.370408733797307
0.0035                    -0.0085                  4.404524155643772
0.0035                    -0.0075                  4.444341409932109
0.0035                    -0.0065                  4.491510757315619
0.0035                    -0.0055                  4.546162259060357
0.0035                    -0.0045                  4.605602130301085
0.0035                    -0.0035                  4.664763285525872
0.0035                    -0.0025                  4.717402139666919
0.0035                    -0.0015                  4.754177298576122
0.0035                    -5.0E-4                  4.775560221134743
0.0035                    5.0E-4                   4.797351393529709
0.0035                    0.0015                   4.8245887267714025
0.0035                    0.0025                   4.8493011561103065
0.0035                    0.0035                   4.867661581378512
0.0035                    0.0045                   4.881136983131364
0.0035                    0.0055                   4.891110533871024
0.0035                    0.0065                   4.894015109055256
0.0035                    0.0075                   4.882338787710261
0.0035                    0.0085                   4.852787348612471
0.0035                    0.0095                   4.81218429450021
0.0035                    0.0105                   4.771243900408393
0.0035                    0.0115                   4.735636453909336
0.0035                    0.0125                   4.70476597922391
0.0035                    0.0135                   4.674782295602716
0.0035                    0.0145                   4.639243265414166
0.0035                    0.0155                   4.596629379874559
0.0035                    0.0165                   4.553466838445139
0.0035                    0.0175                   4.512146539836719
0.0035                    0.0185                   4.474117413743418
0.0035                    0.0195                   4.442489853273313
0.0035                    0.0205                   4.41562724711746
0.0035                    0.0215                   4.389691790603655
0.0035                    0.0225                   4.361302181846084
0.0035                    0.0235                   4.328815788040723
0.0035                    0.0245                   4.291862637815128
0.0035                    0.0255                   4.250828226632497
0.0035                    0.0265                   4.206500455809952
0.0035                    0.0275                   4.160007964212468
0.0035                    0.0285                   4.113087080302826
0.0035                    0.0295                   4.0688253911301855
0.0035                    0.0305                   4.032556832392439
0.0035                    0.0315                   4.011574782724452
0.0045                    -0.0315                  3.635618144487905
0.0045                    -0.0305                  3.6488125242439504
0.0045                    -0.0295                  3.672535273302281
0.0045                    -0.0285                  3.703045687812253
0.0045                    -0.0275                  3.737181336746652
0.0045                    -0.0265                  3.7728058121646284
0.0045                    -0.0255                  3.8087552387790136
0.0045                    -0.0245                  3.8445394106708743
0.0045                    -0.0235                  3.880026325788922
0.0045                    -0.0225                  3.9152404160917396
0.0045                    -0.0215                  3.9502532287651126
0.0045                    -0.0205                  3.985117261747951
0.0045                    -0.0195                  4.019816785280583
0.0045                    -0.0185                  4.054228496055534
0.0045                    -0.0175                  4.088096948474629
0.0045                    -0.0165                  4.121037098011376
0.0045                    -0.0155                  4.152579501607435
0.0045                    -0.0145                  4.182269032946765
0.0045                    -0.0135                  4.2098099435015754
0.0045                    -0.0125                  4.235226350840455
0.0045                    -0.0115                  4.258995959940621
0.0045                    -0.0105                  4.282126645346367
0.0045                    -0.0095                  4.30616145903643
0.0045                    -0.0085                  4.3330820022056
0.0045                    -0.0075                  4.365052399867211
0.0045                    -0.0065                  4.404014972445442
0.0045                    -0.0055                  4.451078712324451
0.0045                    -0.0045                  4.506543598753181
0.0045                    -0.0035                  4.569262462895167
0.0045                    -0.0025                  4.631680817279895
0.0045                    -0.0015                  4.681225143629293
0.0045                    -5.0E-4                  4.717849868009296
0.0045                    5.0E-4                   4.752335990808472
0.0045                    0.0015                   4.787033349560763
0.0045                    0.0025                   4.816969709774105
0.0045                    0.0035                   4.839398584504327
0.0045                    0.0045                   4.855206553744372
0.0045                    0.0055                   4.8644254638788365
0.0045                    0.0065                   4.862534704445304
0.0045                    0.0075                   4.843319249151648
0.0045                    0.0085                   4.806715839362578
0.0045                    0.0095                   4.760459891722828
0.0045                    0.0105                   4.714143053319948
0.0045                    0.0115                   4.672274726911711
0.0045                    0.0125                   4.63467328576221
0.0045                    0.0135                   4.598741996227105
0.0045                    0.0145                   4.5599214761522795
0.0045                    0.0155                   4.516613080971912
0.0045                    0.0165                   4.474601681403018
0.0045                    0.0175                   4.437478161178161
0.0045                    0.0185                   4.404733474373552
0.0045                    0.0195                   4.377931419448577
0.0045                    0.0205                   4.35621835474903
0.0045                    0.0215                   4.335869427562175
0.0045                    0.0225                   4.312526215366128
0.0045                    0.0235                   4.283496735030544
0.0045                    0.0245                   4.248210169513367
0.0045                    0.0255                   4.207300978021576
0.0045                    0.0265                   4.162150192194021
0.0045                    0.0275                   4.114666914303986
0.0045                    0.0285                   4.067499815826798
0.0045                    0.0295                   4.024442564077795
0.0045                    0.0305                   3.990599957744455
0.0045                    0.0315                   3.971746409747534
0.0055                    -0.0315                  3.6042173046412107
0.0055                    -0.0305                  3.6158137866733044
0.0055                    -0.0295                  3.637168536012763
0.0055                    -0.0285                  3.6654539081999085
0.0055                    -0.0275                  3.6980617025853566
0.0055                    -0.0265                  3.7329405045688375
0.0055                    -0.0255                  3.768681000522628
0.0055                    -0.0245                  3.8044820486224147
0.0055                    -0.0235                  3.839986465427026
0.0055                    -0.0225                  3.8750973898895404
0.0055                    -0.0215                  3.909840795340058
0.0055                    -0.0205                  3.9442718554099203
0.0055                    -0.0195                  3.978404418815141
0.0055                    -0.0185                  4.01215132903588
0.0055                    -0.0175                  4.045275572110169
0.0055                    -0.0165                  4.077363851099139
0.0055                    -0.0155                  4.1078439117435614
0.0055                    -0.0145                  4.136070854505641
0.0055                    -0.0135                  4.161496063330536
0.0055                    -0.0125                  4.183895176556434
0.0055                    -0.0115                  4.203583455153511
0.0055                    -0.0105                  4.2215307356408465
0.0055                    -0.0095                  4.2393379993089395
0.0055                    -0.0085                  4.259091447487231
0.0055                    -0.0075                  4.283132574255649
0.0055                    -0.0065                  4.313738299435521
0.0055                    -0.0055                  4.353058228583859
0.0055                    -0.0045                  4.4025195134339015
0.0055                    -0.0035                  4.462013201965271
0.0055                    -0.0025                  4.525174051049616
0.0055                    -0.0015                  4.584233040075992
0.0055                    -5.0E-4                  4.637824988469459
0.0055                    5.0E-4                   4.687766374637418
0.0055                    0.0015                   4.733990611022107
0.0055                    0.0025                   4.773359766549632
0.0055                    0.0035                   4.803489347254487
0.0055                    0.0045                   4.8233410803884755
0.0055                    0.0055                   4.831315625254997
0.0055                    0.0065                   4.823621053354461
0.0055                    0.0075                   4.797385022844655
0.0055                    0.0085                   4.755158224528939
0.0055                    0.0095                   4.704116390756532
0.0055                    0.0105                   4.65244211584192
0.0055                    0.0115                   4.6049005923700905
0.0055                    0.0125                   4.561749526989718
0.0055                    0.0135                   4.521527761282249
0.0055                    0.0145                   4.4828542621293845
0.0055                    0.0155                   4.444039043028937
0.0055                    0.0165                   4.407481715614757
0.0055                    0.0175                   4.37624237961248
0.0055                    0.0185                   4.348564026704442
0.0055                    0.0195                   4.324164191423406
0.0055                    0.0205                   4.303279457166393
0.0055                    0.0215                   4.284123816706901
0.0055                    0.0225                   4.262833700109857
0.0055                    0.0235                   4.235382620438558
0.0055                    0.0245                   4.2006904808981815
0.0055                    0.0255                   4.159645557866141
0.0055                    0.0265                   4.114182994951745
0.0055                    0.0275                   4.066782409353398
0.0055                    0.0285                   4.020556710317127
0.0055                    0.0295                   3.9793618846732164
0.0055                    0.0305                   3.9477568654603274
0.0055                    0.0315                   3.9304810497599143
0.0065                    -0.0315                  3.572128221862898
0.0065                    -0.0305                  3.582420998812673
0.0065                    -0.0295                  3.6016656059562058
0.0065                    -0.0285                  3.6276390060925117
0.0065                    -0.0275                  3.658207132678278
0.0065                    -0.0265                  3.691569254687092
0.0065                    -0.0255                  3.726309972003473
0.0065                    -0.0245                  3.7614515703947573
0.0065                    -0.0235                  3.79642624651514
0.0065                    -0.0225                  3.8309769769305517
0.0065                    -0.0215                  3.8650410877854173
0.0065                    -0.0205                  3.898649408062217
0.0065                    -0.0195                  3.9318430809055265
0.0065                    -0.0185                  3.964599735286049
0.0065                    -0.0175                  3.99676469251291
0.0065                    -0.0165                  4.027992807650779
0.0065                    -0.0155                  4.057719971130973
0.0065                    -0.0145                  4.085196825867564
0.0065                    -0.0135                  4.109623684542173
0.0065                    -0.0125                  4.130408318004682
0.0065                    -0.0115                  4.1475047871228705
0.0065                    -0.0105                  4.161706116138668
0.0065                    -0.0095                  4.174718082576918
0.0065                    -0.0085                  4.1889803753132
0.0065                    -0.0075                  4.207314118951173
0.0065                    -0.0065                  4.232593221568085
0.0065                    -0.0055                  4.2671520629093305
0.0065                    -0.0045                  4.311865188235462
0.0065                    -0.0035                  4.364721146464024
0.0065                    -0.0025                  4.422325990971249
0.0065                    -0.0015                  4.483645312839279
0.0065                    -5.0E-4                  4.545693625374053
0.0065                    5.0E-4                   4.606033832909041
0.0065                    0.0015                   4.66374277939059
0.0065                    0.0025                   4.714441754923375
0.0065                    0.0035                   4.753398864556573
0.0065                    0.0045                   4.777361570475714
0.0065                    0.0055                   4.784297600759101
0.0065                    0.0065                   4.772236716648821
0.0065                    0.0075                   4.741445069325449
0.0065                    0.0085                   4.69592063210961
0.0065                    0.0095                   4.642002949972282
0.0065                    0.0105                   4.586557314843657
0.0065                    0.0115                   4.5349218309632695
0.0065                    0.0125                   4.48834865870944