% Model:              Benchmark260518.mph
% Version:            COMSOL 6.2.0.339
% Date:               May 19 2026, 18:34
% Dimension:          2
% Nodes:              4096
% Expressions:        1
% Description:        压力
% Length unit:        m
% x                       y                        p (Pa)
5.0E-4                    -0.0315                  2.873841086395384
5.0E-4                    -0.0305                  2.8966003060577603
5.0E-4                    -0.0295                  2.9276000204893298
5.0E-4                    -0.0285                  2.9613899712712914
5.0E-4                    -0.0275                  2.996672180037622
5.0E-4                    -0.0265                  3.0329884372614666
5.0E-4                    -0.0255                  3.07006653783073
5.0E-4                    -0.0245                  3.107739875443097
5.0E-4                    -0.0235                  3.1459085155282205
5.0E-4                    -0.0225                  3.1845164636644308
5.0E-4                    -0.0215                  3.223539249688381
5.0E-4                    -0.0205                  3.2629743180710005
5.0E-4                    -0.0195                  3.302832352759963
5.0E-4                    -0.0185                  3.3431284345565127
5.0E-4                    -0.0175                  3.3838744934258926
5.0E-4                    -0.0165                  3.425072681608131
5.0E-4                    -0.0155                  3.4667132509334406
5.0E-4                    -0.0145                  3.508781797718969
5.0E-4                    -0.0135                  3.5512700748923787
5.0E-4                    -0.0125                  3.5941902127571117
5.0E-4                    -0.0115                  3.637588129247086
5.0E-4                    -0.0105                  3.6815503116423485
5.0E-4                    -0.0095                  3.726207353512849
5.0E-4                    -0.0085                  3.7717364201846597
5.0E-4                    -0.0075                  3.8183648168275317
5.0E-4                    -0.0065                  3.8663789200430854
5.0E-4                    -0.0055                  3.9161277455244647
5.0E-4                    -0.0045                  3.967989280585539
5.0E-4                    -0.0035                  4.022250222654638
5.0E-4                    -0.0025                  4.078935230265554
5.0E-4                    -0.0015                  4.137556658396434
5.0E-4                    -5.0E-4                  4.197273907749874
5.0E-4                    5.0E-4                   4.256867609332632
5.0E-4                    0.0015                   4.3137681293998345
5.0E-4                    0.0025                   4.364307159446498
5.0E-4                    0.0035                   4.404563816451783
5.0E-4                    0.0045                   4.430476463059764
5.0E-4                    0.0055                   4.4391975982873
5.0E-4                    0.0065                   4.43034195905368
5.0E-4                    0.0075                   4.406885334560025
5.0E-4                    0.0085                   4.376122469771941
5.0E-4                    0.0095                   4.349424728939947
5.0E-4                    0.0105                   4.333450201859925
5.0E-4                    0.0115                   4.325741899354799
5.0E-4                    0.0125                   4.322340170516632
5.0E-4                    0.0135                   4.321032443278932
5.0E-4                    0.0145                   4.320718403427852
5.0E-4                    0.0155                   4.3208362662251005
5.0E-4                    0.0165                   4.320926218942838
5.0E-4                    0.0175                   4.320838411712886
5.0E-4                    0.0185                   4.323110762322163
5.0E-4                    0.0195                   4.34293716080312
5.0E-4                    0.0205                   4.435350790609597
5.0E-4                    0.0215                   4.624344748137858
5.0E-4                    0.0225                   4.813400056150609
5.0E-4                    0.0235                   4.927352970096442
5.0E-4                    0.0245                   4.9825103926259775
5.0E-4                    0.0255                   5.00493065031676
5.0E-4                    0.0265                   5.012594001367289
5.0E-4                    0.0275                   5.011540827955708
5.0E-4                    0.0285                   5.002554373208605
5.0E-4                    0.0295                   4.989485762065596
5.0E-4                    0.0305                   4.976793478114818
5.0E-4                    0.0315                   4.967012688157252
0.0015                    -0.0315                  2.8509249050958445
0.0015                    -0.0305                  2.8738055627912216
0.0015                    -0.0295                  2.90710444841277
0.0015                    -0.0285                  2.943615011030685
0.0015                    -0.0275                  2.9812671491663276
0.0015                    -0.0265                  3.0194929573497733
0.0015                    -0.0255                  3.05808754991602
0.0015                    -0.0245                  3.0969427768325573
0.0015                    -0.0235                  3.1359994065468744
0.0015                    -0.0225                  3.1752338384725003
0.0015                    -0.0215                  3.214652607035828
0.0015                    -0.0205                  3.254288698875592
0.0015                    -0.0195                  3.2941956060866793
0.0015                    -0.0185                  3.3344374736180877
0.0015                    -0.0175                  3.3750745731941283
0.0015                    -0.0165                  3.416146331299353
0.0015                    -0.0155                  3.4576573167010487
0.0015                    -0.0145                  3.4995740865053113
0.0015                    -0.0135                  3.5418382701002367
0.0015                    -0.0125                  3.584393570589102
0.0015                    -0.0115                  3.6272176417312623
0.0015                    -0.0105                  3.6703458114437364
0.0015                    -0.0095                  3.713882189243648
0.0015                    -0.0085                  3.758005929614009
0.0015                    -0.0075                  3.802982769291023
0.0015                    -0.0065                  3.849195707306944
0.0015                    -0.0055                  3.897215223066908
0.0015                    -0.0045                  3.9478785215667775
0.0015                    -0.0035                  4.002265388249652
0.0015                    -0.0025                  4.061433434156419
0.0015                    -0.0015                  4.125893968098045
0.0015                    -5.0E-4                  4.194841921091298
0.0015                    5.0E-4                   4.265472563364993
0.0015                    0.0015                   4.333117283681252
0.0015                    0.0025                   4.392351741802037
0.0015                    0.0035                   4.438144524680012
0.0015                    0.0045                   4.466289380437824
0.0015                    0.0055                   4.474501684586821
0.0015                    0.0065                   4.462464654227441
0.0015                    0.0075                   4.432046247528919
0.0015                    0.0085                   4.391062481962683
0.0015                    0.0095                   4.355176336861944
0.0015                    0.0105                   4.334402967064447
0.0015                    0.0115                   4.325215653188128
0.0015                    0.0125                   4.321644244485415
0.0015                    0.0135                   4.320647786703741
0.0015                    0.0145                   4.32075003106539
0.0015                    0.0155                   4.321174647982602
0.0015                    0.0165                   4.321450260620548
0.0015                    0.0175                   4.321142539518399
0.0015                    0.0185                   4.321003539267227
0.0015                    0.0195                   4.3135277512660535
0.0015                    0.0205                   4.4009717051439825
0.0015                    0.0215                   4.607354327612966
0.0015                    0.0225                   4.791026749616762
0.0015                    0.0235                   4.896833983820317
0.0015                    0.0245                   4.943443736854767
0.0015                    0.0255                   4.962525527816416
0.0015                    0.0265                   4.972044487185691
0.0015                    0.0275                   4.977818071024096
0.0015                    0.0285                   4.979341226245588
0.0015                    0.0295                   4.974428195172986
0.0015                    0.0305                   4.964543622957184
0.0015                    0.0315                   4.955805238564897
0.0025                    -0.0315                  2.8193379238266782
0.0025                    -0.0305                  2.8403265823525925
0.0025                    -0.0295                  2.8739386438446655
0.0025                    -0.0285                  2.9128607098873984
0.0025                    -0.0275                  2.9535104661158376
0.0025                    -0.0265                  2.9945812017477462
0.0025                    -0.0255                  3.0356363765876737
0.0025                    -0.0245                  3.0765170590890922
0.0025                    -0.0235                  3.117160039030263
0.0025                    -0.0225                  3.157553643616573
0.0025                    -0.0215                  3.1977295028882393
0.0025                    -0.0205                  3.237761572496422
0.0025                    -0.0195                  3.277762779558511
0.0025                    -0.0185                  3.3178737571552057
0.0025                    -0.0175                  3.3582405802922635
0.0025                    -0.0165                  3.398982114013518
0.0025                    -0.0155                  3.4401539836279715
0.0025                    -0.0145                  3.4817232391091757
0.0025                    -0.0135                  3.52357065693811
0.0025                    -0.0125                  3.565528603464802
0.0025                    -0.0115                  3.6074446076064173
0.0025                    -0.0105                  3.6492455190391335
0.0025                    -0.0095                  3.69097708724773
0.0025                    -0.0085                  3.732820940521105
0.0025                    -0.0075                  3.7751185178639095
0.0025                    -0.0065                  3.818427287475321
0.0025                    -0.0055                  3.8636330820080778
0.0025                    -0.0045                  3.9121468975840292
0.0025                    -0.0035                  3.9660558567496373
0.0025                    -0.0025                  4.027894588733856
0.0025                    -0.0015                  4.0997224498409786
0.0025                    -5.0E-4                  4.181313557455513
0.0025                    5.0E-4                   4.268266262071847
0.0025                    0.0015                   4.352041896560438
0.0025                    0.0025                   4.423133304176129
0.0025                    0.0035                   4.475008010508901
0.0025                    0.0045                   4.505529903607841
0.0025                    0.0055                   4.514718650323396
0.0025                    0.0065                   4.501929806985277
0.0025                    0.0075                   4.4667362627595875
0.0025                    0.0085                   4.416086709315346
0.0025                    0.0095                   4.368095507094183
0.0025                    0.0105                   4.33740908496057
0.0025                    0.0115                   4.323399590002959
0.0025                    0.0125                   4.318899633624765
0.0025                    0.0135                   4.318818634582774
0.0025                    0.0145                   4.320401073478901
0.0025                    0.0155                   4.322178835105333
0.0025                    0.0165                   4.323497917915358
0.0025                    0.0175                   4.323530962719971
0.0025                    0.0185                   4.32308199443686
0.0025                    0.0195                   4.335155725646797
0.0025                    0.0205                   4.4457317716638425
0.0025                    0.0215                   4.634046391458922
0.0025                    0.0225                   4.785181272334596
0.0025                    0.0235                   4.8734466195771615
0.0025                    0.0245                   4.911397466055257
0.0025                    0.0255                   4.92813761886136
0.0025                    0.0265                   4.938175338442231
0.0025                    0.0275                   4.945714880576536
0.0025                    0.0285                   4.950669400068404
0.0025                    0.0295                   4.950809783650269
0.0025                    0.0305                   4.945520759811142
0.0025                    0.0315                   4.939692250499428
0.0035                    -0.0315                  2.784408915325896
0.0035                    -0.0305                  2.80324628548594
0.0035                    -0.0295                  2.8353206382715537
0.0035                    -0.0285                  2.87480192044991
0.0035                    -0.0275                  2.917557489284223
0.0035                    -0.0265                  2.961327206033727
0.0035                    -0.0255                  3.0050890560539116
0.0035                    -0.0245                  3.048403170544363
0.0035                    -0.0235                  3.0910750800808917
0.0035                    -0.0225                  3.133030368330635
0.0035                    -0.0215                  3.1742781727283056
0.0035                    -0.0205                  3.214903101763728
0.0035                    -0.0195                  3.2550608853316723
0.0035                    -0.0185                  3.2949663530261053
0.0035                    -0.0175                  3.33486683472256
0.0035                    -0.0165                  3.374997485820974
0.0035                    -0.0155                  3.415521867033105
0.0035                    -0.0145                  3.456472828422022
0.0035                    -0.0135                  3.497720823246881
0.0035                    -0.0125                  3.5389977040744918
0.0035                    -0.0115                  3.5799834066156824
0.0035                    -0.0105                  3.620429717473212
0.0035                    -0.0095                  3.6602701902428825
0.0035                    -0.0085                  3.699675491548691
0.0035                    -0.0075                  3.739080556146959
0.0035                    -0.0065                  3.77925207608131
0.0035                    -0.0055                  3.8214057770746597
0.0035                    -0.0045                  3.867361861878277
0.0035                    -0.0035                  3.919799549546979
0.0035                    -0.0025                  3.982283450953303
0.0035                    -0.0015                  4.058350134272473
0.0035                    -5.0E-4                  4.149411181688118
0.0035                    5.0E-4                   4.251095950603918
0.0035                    0.0015                   4.3516560031150044
0.0035                    0.0025                   4.435534022644453
0.0035                    0.0035                   4.494403659416646
0.0035                    0.0045                   4.53011154692568
0.0035                    0.0055                   4.544122113723105
0.0035                    0.0065                   4.533875241102006
0.0035                    0.0075                   4.496886039772052
0.0035                    0.0085                   4.438896979240909
0.0035                    0.0095                   4.378612665314394
0.0035                    0.0105                   4.335564756296993
0.0035                    0.0115                   4.315002093621198
0.0035                    0.0125                   4.310259874787286
0.0035                    0.0135                   4.3131904364967735
0.0035                    0.0145                   4.318450837959578
0.0035                    0.0155                   4.323378815233758
0.0035                    0.0165                   4.326568567106651
0.0035                    0.0175                   4.328420726331666
0.0035                    0.0185                   4.329900994727119
0.0035                    0.0195                   4.367052256879395
0.0035                    0.0205                   4.4951441899415805
0.0035                    0.0215                   4.661876846378629
0.0035                    0.0225                   4.7843730705832535
0.0035                    0.0235                   4.851842254166751
0.0035                    0.0245                   4.881311138167906
0.0035                    0.0255                   4.8967572948742575
0.0035                    0.0265                   4.907937138090965
0.0035                    0.0275                   4.916973780645181
0.0035                    0.0285                   4.923229437624161
0.0035                    0.0295                   4.9254412282625495
0.0035                    0.0305                   4.923862065462126
0.0035                    0.0315                   4.9212655332224795
0.0045                    -0.0315                  2.7476306013533454
0.0045                    -0.0305                  2.7646499138009246
0.0045                    -0.0295                  2.794729070359386
0.0045                    -0.0285                  2.833383295740935
0.0045                    -0.0275                  2.8768760108708027
0.0045                    -0.0265                  2.922515411306785
0.0045                    -0.0255                  2.9686634961889693
0.0045                    -0.0245                  3.0144266997116764
0.0045                    -0.0235                  3.0593293037462974
0.0045                    -0.0225                  3.103125758721447
0.0045                    -0.0215                  3.1457231343384153
0.0045                    -0.0205                  3.187155894779699
0.0045                    -0.0195                  3.2275763620949247
0.0045                    -0.0185                  3.267242093035291
0.0045                    -0.0175                  3.306489748976887
0.0045                    -0.0165                  3.34568789777658
0.0045                    -0.0155                  3.385164430048509
0.0045                    -0.0145                  3.4251144409014023
0.0045                    -0.0135                  3.465514106203612
0.0045                    -0.0125                  3.506087275190838
0.0045                    -0.0115                  3.54637080622144
0.0045                    -0.0105                  3.5858826841618874
0.0045                    -0.0095                  3.6243394015661567
0.0045                    -0.0085                  3.661827912426262
0.0045                    -0.0075                  3.6988617901432903
0.0045                    -0.0065                  3.7363953922165996
0.0045                    -0.0055                  3.7759134416162596
0.0045                    -0.0045                  3.8195031671685946
0.0045                    -0.0035                  3.8698292760584114
0.0045                    -0.0025                  3.9304006254418034
0.0045                    -0.0015                  4.005475753514167
0.0045                    -5.0E-4                  4.098092516401945
0.0045                    5.0E-4                   4.20680398922562
0.0045                    0.0015                   4.321772556662945
0.0045                    0.0025                   4.4210344902293235
0.0045                    0.0035                   4.491858733811332
0.0045                    0.0045                   4.538345749133551
0.0045                    0.0055                   4.560541766937737
0.0045                    0.0065                   4.553219489723805
0.0045                    0.0075                   4.513634289564736
0.0045                    0.0085                   4.448660330877857
0.0045                    0.0095                   4.378028726708855
0.0045                    0.0105                   4.324881625455324
0.0045                    0.0115                   4.299547193970945
0.0045                    0.0125                   4.296223033986679
0.0045                    0.0135                   4.303764978949136
0.0045                    0.0145                   4.314100729231303
0.0045                    0.0155                   4.32295704570075
0.0045                    0.0165                   4.32930712775182
0.0045                    0.0175                   4.33364046589579
0.0045                    0.0185                   4.345673751296523
0.0045                    0.0195                   4.416674043913014
0.0045                    0.0205                   4.5527476192290255
0.0045                    0.0215                   4.688414776212191
0.0045                    0.0225                   4.781551191942549
0.0045                    0.0235                   4.8287565887967965
0.0045                    0.0245                   4.851381130982979
0.0045                    0.0255                   4.866424214980635
0.0045                    0.0265                   4.87898347495568
0.0045                    0.0275                   4.889534094513525
0.0045                    0.0285                   4.896986652511586
0.0045                    0.0295                   4.900764594323091
0.0045                    0.0305                   4.901907268075565
0.0045                    0.0315                   4.901796685849822
0.0055                    -0.0315                  2.70966471466417
0.0055                    -0.0305                  2.7251974625740125
0.0055                    -0.0295                  2.7533540083980057
0.0055                    -0.0285                  2.7906014144680844
0.0055                    -0.0275                  2.8337874182771796
0.0055                    -0.0265                  2.8803011152074243
0.0055                    -0.0255                  2.928182706006077
0.0055                    -0.0245                  2.9761075176194733
0.0055                    -0.0235                  3.0232327122895963
0.0055                    -0.0225                  3.069038795777541
0.0055                    -0.0215                  3.113236295929129
0.0055                    -0.0205                  3.1557270191832245
0.0055                    -0.0195                  3.196589575371881
0.0055                    -0.0185                  3.236067164601832
0.0055                    -0.0175                  3.274545436631257
0.0055                    -0.0165                  3.312512271502792
0.0055                    -0.0155                  3.3504897538902982
0.0055                    -0.0145                  3.3889291581050607
0.0055                    -0.0135                  3.4280744655515747
0.0055                    -0.0125                  3.467834601307702
0.0055                    -0.0115                  3.5077457806339543
0.0055                    -0.0105                  3.547104859443813
0.0055                    -0.0095                  3.5852701158400087
0.0055                    -0.0085                  3.6220293951935503
0.0055                    -0.0075                  3.6578454225129082
0.0055                    -0.0065                  3.6938245237552154
0.0055                    -0.0055                  3.731581903324205
0.0055                    -0.0045                  3.7732834476616555
0.0055                    -0.0035                  3.821480646807111
0.0055                    -0.0025                  3.878565206275125
0.0055                    -0.0015                  3.947706576462614
0.0055                    -5.0E-4                  4.03257307674589
0.0055                    5.0E-4                   4.137439139050042
0.0055                    0.0015                   4.259529106615428
0.0055                    0.0025                   4.375986226480256
0.0055                    0.0035                   4.464806473678015
0.0055                    0.0045                   4.522086837839453
0.0055                    0.0055                   4.548257865286064
0.0055                    0.0065                   4.542174025339176
0.0055                    0.0075                   4.503543342233192
0.0055                    0.0085                   4.439330276670054
0.0055                    0.0095                   4.368678986313418
0.0055                    0.0105                   4.314602255646844
0.0055                    0.0115                   4.288779585991342
0.0055                    0.0125                   4.286626301253646
0.0055                    0.0135                   4.296415023501378
0.0055                    0.0145                   4.309079587836279
0.0055                    0.0155                   4.320508424996948
0.0055                    0.0165                   4.330162663963739
0.0055                    0.0175                   4.3412696581014405
0.0055                    0.0185                   4.38153432047927
0.0055                    0.0195                   4.481182665557855
0.0055                    0.0205                   4.606862483815471
0.0055                    0.0215                   4.7104185784426855
0.0055                    0.0225                   4.774515473142978
0.0055                    0.0235                   4.804628813195807
0.0055                    0.0245                   4.822163550314625
0.0055                    0.0255                   4.836917463329456
0.0055                    0.0265                   4.8505015503145765
0.0055                    0.0275                   4.862255506356274
0.0055                    0.0285                   4.87111056940945
0.0055                    0.0295                   4.876958681794867
0.0055                    0.0305                   4.8805920899548
0.0055                    0.0315                   4.88230427317886
0.0065                    -0.0315                  2.670801585298337
0.0065                    -0.0305                  2.6851316555194464
0.0065                    -0.0295                  2.7115583270269443
0.0065                    -0.0285                  2.747240234242911
0.0065                    -0.0275                  2.7895419427531625
0.0065                    -0.0265                  2.836130102217359
0.0065                    -0.0255                  2.8850233781942918
0.0065                    -0.0245                  2.9346475945215893
0.0065                    -0.0235                  2.9838257033892073
0.0065                    -0.0225                  3.0317143778043905
0.0065                    -0.0215                  3.077745135063405
0.0065                    -0.0205                  3.1215962274917923
0.0065                    -0.0195                  3.1631849078107233
0.0065                    -0.0185                  3.2026619046938327
0.0065                    -0.0175                  3.240396709717706
0.0065                    -0.0165                  3.2769487744778782
0.0065                    -0.0155                  3.3130187124947064
0.0065                    -0.0145                  3.349362267830119
0.0065                    -0.0135                  3.3866430020634155
0.0065                    -0.0125                  3.4252212850535564
0.0065                    -0.0115                  3.464940648275341
0.0065                    -0.0105                  3.505061531399207
0.0065                    -0.0095                  3.5445102141299443
0.0065                    -0.0085                  3.5824249931462466
0.0065                    -0.0075                  3.6187711446896595
0.0065                    -0.0065                  3.654609910170771
0.0065                    -0.0055                  3.691732210221071
0.0065                    -0.0045                  3.732003301820218
0.0065                    -0.0035                  3.777544400734962
0.0065                    -0.0025                  3.830111451682994
0.0065                    -0.0015                  3.8922515674333003
0.0065                    -5.0E-4                  3.966815679948788
0.0065                    5.0E-4                   4.059896599363257
0.0065                    0.0015                   4.175765488416538
0.0065                    0.0025                   4.2977607731392125
0.0065                    0.0035                   4.394325713055255
0.0065                    0.0045                   4.4502396989413615
0.0065                    0.0055                   4.4722665846090255
0.0065                    0.0065                   4.469319859529277
0.0065                    0.0075                   4.444858736914421
0.0065                    0.0085                   4.402124129802546
0.0065                    0.0095                   4.352280345203104
0.0065                    0.0105                   4.312078640838434
0.0065                    0.0115                   4.291624387324843