% Model:              Benchmark260518.mph
% Version:            COMSOL 6.2.0.339
% Date:               May 21 2026, 20:08
% Dimension:          2
% Nodes:              4096
% Expressions:        1
% Description:        压力
% Length unit:        m
% x                       y                        p (Pa)
5.0E-4                    -0.0315                  2.9053674356148633
5.0E-4                    -0.0305                  2.9515253294831463
5.0E-4                    -0.0295                  3.0144487233131545
5.0E-4                    -0.0285                  3.08312861971777
5.0E-4                    -0.0275                  3.1554176965986125
5.0E-4                    -0.0265                  3.2306696460959383
5.0E-4                    -0.0255                  3.3085619865995497
5.0E-4                    -0.0245                  3.3890126612449314
5.0E-4                    -0.0235                  3.472092380219232
5.0E-4                    -0.0225                  3.5581956349382735
5.0E-4                    -0.0215                  3.6482810053281596
5.0E-4                    -0.0205                  3.7440906587068614
5.0E-4                    -0.0195                  3.848131017761627
5.0E-4                    -0.0185                  3.9628808769101633
5.0E-4                    -0.0175                  4.0897306222067
5.0E-4                    -0.0165                  4.22652081631964
5.0E-4                    -0.0155                  4.363784433881565
5.0E-4                    -0.0145                  4.489062199472562
5.0E-4                    -0.0135                  4.586269525142993
5.0E-4                    -0.0125                  4.646888624344086
5.0E-4                    -0.0115                  4.680442347243524
5.0E-4                    -0.0105                  4.702641365530083
5.0E-4                    -0.0095                  4.72463202918856
5.0E-4                    -0.0085                  4.745972156675747
5.0E-4                    -0.0075                  4.759703826456198
5.0E-4                    -0.0065                  4.763230152401196
5.0E-4                    -0.0055                  4.760427571109961
5.0E-4                    -0.0045                  4.755358959538277
5.0E-4                    -0.0035                  4.749232343286446
5.0E-4                    -0.0025                  4.741969512968141
5.0E-4                    -0.0015                  4.734133096870531
5.0E-4                    -5.0E-4                  4.727359896111572
5.0E-4                    5.0E-4                   4.723483549838277
5.0E-4                    0.0015                   4.7233044308767695
5.0E-4                    0.0025                   4.725349841245244
5.0E-4                    0.0035                   4.725397153151382
5.0E-4                    0.0045                   4.717599473644501
5.0E-4                    0.0055                   4.697456982571741
5.0E-4                    0.0065                   4.664297822089246
5.0E-4                    0.0075                   4.621684011144043
5.0E-4                    0.0085                   4.576434721901964
5.0E-4                    0.0095                   4.536652004023532
5.0E-4                    0.0105                   4.508188220932738
5.0E-4                    0.0115                   4.491547748595528
5.0E-4                    0.0125                   4.483229838416104
5.0E-4                    0.0135                   4.478832571121138
5.0E-4                    0.0145                   4.4773312253149475
5.0E-4                    0.0155                   4.490682142378057
5.0E-4                    0.0165                   4.584557894893947
5.0E-4                    0.0175                   4.774902314897394
5.0E-4                    0.0185                   4.941377175697472
5.0E-4                    0.0195                   5.019071872650709
5.0E-4                    0.0205                   5.040877839799743
5.0E-4                    0.0215                   5.039584569479772
5.0E-4                    0.0225                   5.035975856827794
5.0E-4                    0.0235                   5.032534222184131
5.0E-4                    0.0245                   5.026550537436863
5.0E-4                    0.0255                   5.018326679658171
5.0E-4                    0.0265                   5.010426317894093
5.0E-4                    0.0275                   5.004389582309027
5.0E-4                    0.0285                   4.9991693753497115
5.0E-4                    0.0295                   4.994002967231857
5.0E-4                    0.0305                   4.988314375196532
5.0E-4                    0.0315                   4.981588570438204
0.0015                    -0.0315                  2.85851056850463
0.0015                    -0.0305                  2.9039616747425576
0.0015                    -0.0295                  2.9699243456251665
0.0015                    -0.0285                  3.041791013981766
0.0015                    -0.0275                  3.1158429888578985
0.0015                    -0.0265                  3.191516701456434
0.0015                    -0.0255                  3.268838041371226
0.0015                    -0.0245                  3.3478721562474547
0.0015                    -0.0235                  3.428572609538401
0.0015                    -0.0225                  3.51086582697191
0.0015                    -0.0215                  3.5951499481508016
0.0015                    -0.0205                  3.68313473224364
0.0015                    -0.0195                  3.778555040057183
0.0015                    -0.0185                  3.8870961669238024
0.0015                    -0.0175                  4.014204637052833
0.0015                    -0.0165                  4.160361015940994
0.0015                    -0.0155                  4.314680961353565
0.0015                    -0.0145                  4.457692350185264
0.0015                    -0.0135                  4.5666651638403915
0.0015                    -0.0125                  4.632195192888707
0.0015                    -0.0115                  4.665914289069937
0.0015                    -0.0105                  4.686884198767353
0.0015                    -0.0095                  4.710551703494465
0.0015                    -0.0085                  4.738078209198345
0.0015                    -0.0075                  4.758967971688831
0.0015                    -0.0065                  4.766372160219758
0.0015                    -0.0055                  4.764192464055097
0.0015                    -0.0045                  4.758556460575593
0.0015                    -0.0035                  4.751384986872001
0.0015                    -0.0025                  4.742315266825333
0.0015                    -0.0015                  4.731762630000721
0.0015                    -5.0E-4                  4.721695375172897
0.0015                    5.0E-4                   4.714504288123338
0.0015                    0.0015                   4.711488182139152
0.0015                    0.0025                   4.711610317501149
0.0015                    0.0035                   4.711021658698003
0.0015                    0.0045                   4.7039610172181785
0.0015                    0.0055                   4.685445462250003
0.0015                    0.0065                   4.653912938380389
0.0015                    0.0075                   4.612359906332182
0.0015                    0.0085                   4.567656601487037
0.0015                    0.0095                   4.528456485547607
0.0015                    0.0105                   4.501363802045622
0.0015                    0.0115                   4.486870291447444
0.0015                    0.0125                   4.480565395579598
0.0015                    0.0135                   4.477485653006001
0.0015                    0.0145                   4.476248883798224
0.0015                    0.0155                   4.486385902472408
0.0015                    0.0165                   4.621297538546256
0.0015                    0.0175                   4.856537909323396
0.0015                    0.0185                   5.017138994506652
0.0015                    0.0195                   5.074257554307492
0.0015                    0.0205                   5.071593834221861
0.0015                    0.0215                   5.053253876883577
0.0015                    0.0225                   5.04147294387343
0.0015                    0.0235                   5.0373476115244795
0.0015                    0.0245                   5.033903769585173
0.0015                    0.0255                   5.026677511682335
0.0015                    0.0265                   5.014140504723901
0.0015                    0.0275                   4.998058536516662
0.0015                    0.0285                   4.981578545651485
0.0015                    0.0295                   4.96601207743965
0.0015                    0.0305                   4.952645691047657
0.0015                    0.0315                   4.9451437104330696
0.0025                    -0.0315                  2.794398904412757
0.0025                    -0.0305                  2.8340357451368003
0.0025                    -0.0295                  2.8973899735884756
0.0025                    -0.0285                  2.9697369704362218
0.0025                    -0.0275                  3.0443393896509936
0.0025                    -0.0265                  3.1193766819785838
0.0025                    -0.0255                  3.194775030747695
0.0025                    -0.0245                  3.270771117925732
0.0025                    -0.0235                  3.347346846557624
0.0025                    -0.0225                  3.4240806019477756
0.0025                    -0.0215                  3.5006059157070712
0.0025                    -0.0205                  3.578038078026877
0.0025                    -0.0195                  3.6609138349511405
0.0025                    -0.0185                  3.757859680992448
0.0025                    -0.0175                  3.87948023569698
0.0025                    -0.0165                  4.031106267981595
0.0025                    -0.0155                  4.202900940415267
0.0025                    -0.0145                  4.369214276916633
0.0025                    -0.0135                  4.49716355049331
0.0025                    -0.0125                  4.574809020834607
0.0025                    -0.0115                  4.617611510777365
0.0025                    -0.0105                  4.647937507081894
0.0025                    -0.0095                  4.684246713552141
0.0025                    -0.0085                  4.729805584840691
0.0025                    -0.0075                  4.770153176314453
0.0025                    -0.0065                  4.788420226662581
0.0025                    -0.0055                  4.78495165732866
0.0025                    -0.0045                  4.771161085378157
0.0025                    -0.0035                  4.7534440236519355
0.0025                    -0.0025                  4.733211960791568
0.0025                    -0.0015                  4.712351903999908
0.0025                    -5.0E-4                  4.693815385014107
0.0025                    5.0E-4                   4.680212508347133
0.0025                    0.0015                   4.67268268445029
0.0025                    0.0025                   4.670272879923873
0.0025                    0.0035                   4.669773782886779
0.0025                    0.0045                   4.666186697440834
0.0025                    0.0055                   4.654277248996135
0.0025                    0.0065                   4.6309853670397905
0.0025                    0.0075                   4.597471319042029
0.0025                    0.0085                   4.559248943631347
0.0025                    0.0095                   4.524243403362986
0.0025                    0.0105                   4.499220849028114
0.0025                    0.0115                   4.485953092426208
0.0025                    0.0125                   4.481402691007477
0.0025                    0.0135                   4.483638667158759
0.0025                    0.0145                   4.503539491459155
0.0025                    0.0155                   4.592982732580946
0.0025                    0.0165                   4.801561425318548
0.0025                    0.0175                   5.026783975099146
0.0025                    0.0185                   5.144921513523068
0.0025                    0.0195                   5.159826769077953
0.0025                    0.0205                   5.120676275221969
0.0025                    0.0215                   5.076604391105224
0.0025                    0.0225                   5.0500136493533665
0.0025                    0.0235                   5.040602506484751
0.0025                    0.0245                   5.0354861762832
0.0025                    0.0255                   5.025573446961606
0.0025                    0.0265                   5.008428224634753
0.0025                    0.0275                   4.985374640082077
0.0025                    0.0285                   4.9603070784711925
0.0025                    0.0295                   4.937364700074596
0.0025                    0.0305                   4.92027661771668
0.0025                    0.0315                   4.911474024718116
0.0035                    -0.0315                  2.724711323570348
0.0035                    -0.0305                  2.7574415189609347
0.0035                    -0.0295                  2.8133420162736047
0.0035                    -0.0285                  2.8809364456470288
0.0035                    -0.0275                  2.9524804546283194
0.0035                    -0.0265                  3.0244417342240317
0.0035                    -0.0255                  3.095937004973968
0.0035                    -0.0245                  3.167189718292902
0.0035                    -0.0235                  3.238549748462737
0.0035                    -0.0225                  3.3099329214637345
0.0035                    -0.0215                  3.38080025331113
0.0035                    -0.0205                  3.451207621751567
0.0035                    -0.0195                  3.524413095401079
0.0035                    -0.0185                  3.6091892405356325
0.0035                    -0.0175                  3.717775603222435
0.0035                    -0.0165                  3.8608803204771465
0.0035                    -0.0155                  4.036582745441356
0.0035                    -0.0145                  4.221835331362003
0.0035                    -0.0135                  4.373036819514916
0.0035                    -0.0125                  4.472421486906253
0.0035                    -0.0115                  4.539345736992914
0.0035                    -0.0105                  4.595456741830821
0.0035                    -0.0095                  4.65966576809451
0.0035                    -0.0085                  4.736359455679588
0.0035                    -0.0075                  4.804845559746964
0.0035                    -0.0065                  4.83502756493939
0.0035                    -0.0055                  4.823017575807814
0.0035                    -0.0045                  4.788431814597086
0.0035                    -0.0035                  4.746646457472116
0.0035                    -0.0025                  4.7046571758588005
0.0035                    -0.0015                  4.667031959362118
0.0035                    -5.0E-4                  4.636855349840519
0.0035                    5.0E-4                   4.615934311246627
0.0035                    0.0015                   4.604564078319946
0.0035                    0.0025                   4.601101580419595
0.0035                    0.0035                   4.602552586436333
0.0035                    0.0045                   4.605252558384163
0.0035                    0.0055                   4.605244511006889
0.0035                    0.0065                   4.599049519904274
0.0035                    0.0075                   4.585368824231907
0.0035                    0.0085                   4.565820593270956
0.0035                    0.0095                   4.545239394832507
0.0035                    0.0105                   4.5300020776094785
0.0035                    0.0115                   4.524451250983841
0.0035                    0.0125                   4.532020171082596
0.0035                    0.0135                   4.562588391900103
0.0035                    0.0145                   4.6434466709990305
0.0035                    0.0155                   4.814202302580065
0.0035                    0.0165                   5.048567947499555
0.0035                    0.0175                   5.2372357128076406
0.0035                    0.0185                   5.307710763670663
0.0035                    0.0195                   5.272217306188102
0.0035                    0.0205                   5.189794374251454
0.0035                    0.0215                   5.1132088093661014
0.0035                    0.0225                   5.064723940633688
0.0035                    0.0235                   5.043936540790322
0.0035                    0.0245                   5.032886616370393
0.0035                    0.0255                   5.017031522541845
0.0035                    0.0265                   4.99351312859808
0.0035                    0.0275                   4.964755529550811
0.0035                    0.0285                   4.934428263109667
0.0035                    0.0295                   4.907289431992982
0.0035                    0.0305                   4.887677019528676
0.0035                    0.0315                   4.877777322317884
0.0045                    -0.0315                  2.6521367329976515
0.0045                    -0.0305                  2.6788901931783315
0.0045                    -0.0295                  2.726230857894344
0.0045                    -0.0285                  2.7857402823200927
0.0045                    -0.0275                  2.850589275652375
0.0045                    -0.0265                  2.916601336993953
0.0045                    -0.0255                  2.982085164861333
0.0045                    -0.0245                  3.047074078505398
0.0045                    -0.0235                  3.112526267182679
0.0045                    -0.0225                  3.179521623947603
0.0045                    -0.0215                  3.248487903512343
0.0045                    -0.0205                  3.3190360337116562
0.0045                    -0.0195                  3.3914542642953
0.0045                    -0.0185                  3.470093167894575
0.0045                    -0.0175                  3.5638139325932
0.0045                    -0.0165                  3.6866615916010996
0.0045                    -0.0155                  3.848838704554941
0.0045                    -0.0145                  4.037069084838852
0.0045                    -0.0135                  4.209806025977998
0.0045                    -0.0125                  4.342161266719516
0.0045                    -0.0115                  4.444631346731889
0.0045                    -0.0105                  4.537558047949688
0.0045                    -0.0095                  4.640265303851514
0.0045                    -0.0085                  4.751549938570659
0.0045                    -0.0075                  4.84119844767477
0.0045                    -0.0065                  4.874191921282004
0.0045                    -0.0055                  4.8477265183196785
0.0045                    -0.0045                  4.787570906315029
0.0045                    -0.0035                  4.71810045880541
0.0045                    -0.0025                  4.653371553110042
0.0045                    -0.0015                  4.600952258525518
0.0045                    -5.0E-4                  4.5644785408486035
0.0045                    5.0E-4                   4.543400780587291
0.0045                    0.0015                   4.534258537407831
0.0045                    0.0025                   4.5334422351642045
0.0045                    0.0035                   4.5382009532540595
0.0045                    0.0045                   4.546618737077381
0.0045                    0.0055                   4.556842206566583
0.0045                    0.0065                   4.566873478567715
0.0045                    0.0075                   4.576184411873747
0.0045                    0.0085                   4.5853627695591275
0.0045                    0.0095                   4.596548847759477
0.0045                    0.0105                   4.6137000269475585
0.0045                    0.0115                   4.64049628910705
0.0045                    0.0125                   4.684179881640846
0.0045                    0.0135                   4.761869375478625
0.0045                    0.0145                   4.897171339768044
0.0045                    0.0155                   5.093188288885084
0.0045                    0.0165                   5.3008606456402
0.0045                    0.0175                   5.442495673067833
0.0045                    0.0185                   5.470010236571527
0.0045                    0.0195                   5.392297645999946
0.0045                    0.0205                   5.267471836804764
0.0045                    0.0215                   5.154048667540463
0.0045                    0.0225                   5.079256164746905
0.0045                    0.0235                   5.042717826191488
0.0045                    0.0245                   5.022969862249733
0.0045                    0.0255                   5.00055218749035
0.0045                    0.0265                   4.970924542578675
0.0045                    0.0275                   4.937474746019297
0.0045                    0.0285                   4.904068673040497
0.0045                    0.0295                   4.8747663508884616
0.0045                    0.0305                   4.853873772589776
0.0045                    0.0315                   4.843698436225941
0.0055                    -0.0315                  2.577631700828187
0.0055                    -0.0305                  2.59968700780441
0.0055                    -0.0295                  2.6393157355686347
0.0055                    -0.0285                  2.690048575252456
0.0055                    -0.0275                  2.7463043378052467
0.0055                    -0.0265                  2.8042691628746756
0.0055                    -0.0255                  2.8621465658348364
0.0055                    -0.0245                  2.9199991540950685
0.0055                    -0.0235                  2.979385505194697
0.0055                    -0.0225                  3.042918901915633
0.0055                    -0.0215                  3.1129393088315687
0.0055                    -0.0205                  3.1897389845649005
0.0055                    -0.0195                  3.27147970681218
0.0055                    -0.0185                  3.3550754229925723
0.0055                    -0.0175                  3.442675084581913
0.0055                    -0.0165                  3.5486954344508077
0.0055                    -0.0155                  3.689776098030633
0.0055                    -0.0145                  3.864020919653157
0.0055                    -0.0135                  4.044108977717731
0.0055                    -0.0125                  4.203100898571663
0.0055                    -0.0115                  4.341175610660715
0.0055                    -0.0105                  4.475899178393124
0.0055                    -0.0095                  4.615839830436526
0.0055                    -0.0085                  4.7451746265176205
0.0055                    -0.0075                  4.834811308881335
0.0055                    -0.0065                  4.862292483615161
0.0055                    -0.0055                  4.826262094685544
0.0055                    -0.0045                  4.750106043973204
0.0055                    -0.0035                  4.663516653651877
0.0055                    -0.0025                  4.5879006927458885
0.0055                    -0.0015                  4.535207958016464
0.0055                    -5.0E-4                  4.506557755622088
0.0055                    5.0E-4                   4.494952681729668
0.0055                    0.0015                   4.492863446137816
0.0055                    0.0025                   4.496148422386307
0.0055                    0.0035                   4.503361151980682
0.0055                    0.0045                   4.514276012607682
0.0055                    0.0055                   4.52893768021863
0.0055                    0.0065                   4.547721502585115
0.0055                    0.0075                   4.572837559569894
0.0055                    0.0085                   4.6081344408788745
0.0055                    0.0095                   4.657829071862544
0.0055                    0.0105                   4.722983000599943
0.0055                    0.0115                   4.800446677366812
0.0055                    0.0125                   4.8903887584689505
0.0055                    0.0135                   5.001943478093408
0.0055                    0.0145                   5.1464787419518485
0.0055                    0.0155                   5.317837396881341
0.0055                    0.0165                   5.480206242152643
0.0055                    0.0175                   5.580600776581252
0.0055                    0.0185                   5.580422240755962
0.0055                    0.0195                   5.478336886659282
0.0055                    0.0205                   5.318468123475442
0.0055                    0.0215                   5.168671677309961
0.0055                    0.0225                   5.07047670308182
0.0055                    0.0235                   5.021467645761103
0.0055                    0.0245                   4.996109699419106
0.0055                    0.0255                   4.971890070290447
0.0055                    0.0265                   4.940730042428899
0.0055                    0.0275                   4.905214417157763
0.0055                    0.0285                   4.870537666541564
0.0055                    0.0295                   4.840692852122371
0.0055                    0.0305                   4.819729590835905
0.0055                    0.0315                   4.810156418792187
0.0065                    -0.0315                  2.5017314892115774
0.0065                    -0.0305                  2.520262757856867
0.0065                    -0.0295                  2.553732926981405
0.0065                    -0.0285                  2.5967556749779455
0.0065                    -0.0275                  2.6446258794963837
0.0065                    -0.0265                  2.6941383625819
0.0065                    -0.0255                  2.7439787596231926
0.0065                    -0.0245                  2.794847692560041
0.0065                    -0.0235                  2.8490367779998236
0.0065                    -0.0225                  2.9100968583704208
0.0065                    -0.0215                  2.982223784844926
0.0065                    -0.0205                  3.066923383787052
0.0065                    -0.0195                  3.1623259156608303
0.0065                    -0.0185                  3.258772549740625
0.0065                    -0.0175                  3.35130489736251
0.0065                    -0.0165                  3.4525848662936776
0.0065                    -0.0155                  3.5789278505660493
0.0065                    -0.0145                  3.734986445727755
0.0065                    -0.0135                  3.905647657244204
0.0065                    -0.0125                  4.073961739250526
0.0065                    -0.0115                  4.244432503744357
0.0065                    -0.0105                  4.421475302716031
0.0065                    -0.0095                  4.584644095087412
0.0065                    -0.0085                  4.705606254400134
0.0065                    -0.0075                  4.775532413506631
0.0065                    -0.0065                  4.794487300215788
0.0065                    -0.0055                  4.758599188394234
0.0065                    -0.0045                  4.682327003765408
0.0065                    -0.0035                  4.596845393400228
0.0065                    -0.0025                  4.529920499847926
0.0065                    -0.0015                  4.4932878370738845
0.0065                    -5.0E-4                  4.479921333890481
0.0065                    5.0E-4                   4.477853066707621
0.0065                    0.0015                   4.4805898595849625
0.0065                    0.0025                   4.486171265558365
0.0065                    0.0035                   4.494522036244965
0.0065                    0.0045                   4.506201160433544
0.0065                    0.0055                   4.522178040009157
0.0065                    0.0065                   4.54428510969781
0.0065                    0.0075                   4.576625639603281
0.0065                    0.0085                   4.626928298483445
0.0065                    0.0095                   4.703910779642608
0.0065                    0.0105                   4.807069801645912
0.0065                    0.0115                   4.9245546956392126
0.0065                    0.0125                   5.04538888226769