% Model:              Benchmark260518.mph
% Version:            COMSOL 6.2.0.339
% Date:               May 20 2026, 03:12
% Dimension:          2
% Nodes:              4096
% Expressions:        1
% Description:        压力
% Length unit:        m
% x                       y                        p (Pa)
5.0E-4                    -0.0315                  6.407340611891177
5.0E-4                    -0.0305                  6.331288104026381
5.0E-4                    -0.0295                  6.226597197812083
5.0E-4                    -0.0285                  6.110587514395538
5.0E-4                    -0.0275                  5.9876549114821245
5.0E-4                    -0.0265                  5.859630098918155
5.0E-4                    -0.0255                  5.727453146341149
5.0E-4                    -0.0245                  5.591608001040548
5.0E-4                    -0.0235                  5.452326291890178
5.0E-4                    -0.0225                  5.309641385731502
5.0E-4                    -0.0215                  5.163375529861644
5.0E-4                    -0.0205                  5.0130851797551355
5.0E-4                    -0.0195                  4.857984253693757
5.0E-4                    -0.0185                  4.696861321442851
5.0E-4                    -0.0175                  4.528006093373941
5.0E-4                    -0.0165                  4.349166657679193
5.0E-4                    -0.0155                  4.15759172881576
5.0E-4                    -0.0145                  3.9502709103013283
5.0E-4                    -0.0135                  3.7244590622520626
5.0E-4                    -0.0125                  3.478432044508467
5.0E-4                    -0.0115                  3.2124326934346352
5.0E-4                    -0.0105                  2.929859770474233
5.0E-4                    -0.0095                  2.6386399195894183
5.0E-4                    -0.0085                  2.3524592868039056
5.0E-4                    -0.0075                  2.090007901974413
5.0E-4                    -0.0065                  1.8722372687143676
5.0E-4                    -0.0055                  1.7232352370544657
5.0E-4                    -0.0045                  1.6443958859724184
5.0E-4                    -0.0035                  1.6177174201423736
5.0E-4                    -0.0025                  1.6206969523136125
5.0E-4                    -0.0015                  1.9426603397663018
5.0E-4                    -5.0E-4                  3.2305265237901106
5.0E-4                    5.0E-4                   4.770181955403766
5.0E-4                    0.0015                   5.439140174647873
5.0E-4                    0.0025                   5.549443259928143
5.0E-4                    0.0035                   5.568545912700694
5.0E-4                    0.0045                   5.592488998302274
5.0E-4                    0.0055                   5.637223295330456
5.0E-4                    0.0065                   5.716275250644799
5.0E-4                    0.0075                   5.8280250596301775
5.0E-4                    0.0085                   5.960156935954211
5.0E-4                    0.0095                   6.10058835964558
5.0E-4                    0.0105                   6.236599075839637
5.0E-4                    0.0115                   6.3589876947882455
5.0E-4                    0.0125                   6.4631047936597765
5.0E-4                    0.0135                   6.547931429471713
5.0E-4                    0.0145                   6.614949153259632
5.0E-4                    0.0155                   6.666919510913187
5.0E-4                    0.0165                   6.706786098924923
5.0E-4                    0.0175                   6.737052111402859
5.0E-4                    0.0185                   6.759625572845905
5.0E-4                    0.0195                   6.775914950859738
5.0E-4                    0.0205                   6.786978094928585
5.0E-4                    0.0215                   6.793649623155553
5.0E-4                    0.0225                   6.79664110304387
5.0E-4                    0.0235                   6.796606504552239
5.0E-4                    0.0245                   6.79417000965064
5.0E-4                    0.0255                   6.789926621480021
5.0E-4                    0.0265                   6.7844299994867105
5.0E-4                    0.0275                   6.778179983036507
5.0E-4                    0.0285                   6.771621846026189
5.0E-4                    0.0295                   6.765165137180805
5.0E-4                    0.0305                   6.759274877315897
5.0E-4                    0.0315                   6.755028646004558
0.0015                    -0.0315                  6.484227645181818
0.0015                    -0.0305                  6.409944778176157
0.0015                    -0.0295                  6.301675192489458
0.0015                    -0.0285                  6.182205311146797
0.0015                    -0.0275                  6.05772254299891
0.0015                    -0.0265                  5.929907157656807
0.0015                    -0.0255                  5.799305209546579
0.0015                    -0.0245                  5.6661208621349965
0.0015                    -0.0235                  5.53047006508477
0.0015                    -0.0225                  5.392457351071089
0.0015                    -0.0215                  5.252151075774326
0.0015                    -0.0205                  5.109483764480334
0.0015                    -0.0195                  4.964093805180882
0.0015                    -0.0185                  4.815125686236509
0.0015                    -0.0175                  4.6609982736868165
0.0015                    -0.0165                  4.49914981799135
0.0015                    -0.0155                  4.3257884805047215
0.0015                    -0.0145                  4.135785675971247
0.0015                    -0.0135                  3.9230360214211446
0.0015                    -0.0125                  3.681511726448862
0.0015                    -0.0115                  3.4068470218971165
0.0015                    -0.0105                  3.0985960913591124
0.0015                    -0.0095                  2.7640175082269662
0.0015                    -0.0085                  2.4233912158255833
0.0015                    -0.0075                  2.111289722525784
0.0015                    -0.0065                  1.8643656723881992
0.0015                    -0.0055                  1.710326724468397
0.0015                    -0.0045                  1.6366846610011165
0.0015                    -0.0035                  1.6087287160260466
0.0015                    -0.0025                  1.5465937266038536
0.0015                    -0.0015                  1.8374995246498307
0.0015                    -5.0E-4                  3.1924462261383413
0.0015                    5.0E-4                   4.822623465132229
0.0015                    0.0015                   5.499407539196144
0.0015                    0.0025                   5.5581339605588855
0.0015                    0.0035                   5.570826030221576
0.0015                    0.0045                   5.5925857040543185
0.0015                    0.0055                   5.637391351293565
0.0015                    0.0065                   5.728327530664556
0.0015                    0.0075                   5.870473609628691
0.0015                    0.0085                   6.045480911677704
0.0015                    0.0095                   6.22774446235093
0.0015                    0.0105                   6.392946886665205
0.0015                    0.0115                   6.528451066878153
0.0015                    0.0125                   6.631726137741807
0.0015                    0.0135                   6.7062510776656055
0.0015                    0.0145                   6.758211579370219
0.0015                    0.0155                   6.793831950444917
0.0015                    0.0165                   6.817933166565224
0.0015                    0.0175                   6.833707597640489
0.0015                    0.0185                   6.843130759163213
0.0015                    0.0195                   6.84743889104401
0.0015                    0.0205                   6.847470698354961
0.0015                    0.0215                   6.8439045693744465
0.0015                    0.0225                   6.837400154363046
0.0015                    0.0235                   6.828646228955605
0.0015                    0.0245                   6.818344948568136
0.0015                    0.0255                   6.8071689010247285
0.0015                    0.0265                   6.79571837389879
0.0015                    0.0275                   6.784497085649717
0.0015                    0.0285                   6.773916998091156
0.0015                    0.0295                   6.764349149298292
0.0015                    0.0305                   6.756322452314657
0.0015                    0.0315                   6.751190964370294
0.0025                    -0.0315                  6.590200223878948
0.0025                    -0.0305                  6.526060543901596
0.0025                    -0.0295                  6.423911005215114
0.0025                    -0.0285                  6.306266564488433
0.0025                    -0.0275                  6.183527684532174
0.0025                    -0.0265                  6.058881867441379
0.0025                    -0.0255                  5.9330026511431235
0.0025                    -0.0245                  5.805926390159014
0.0025                    -0.0235                  5.677670498398495
0.0025                    -0.0225                  5.5484497809909685
0.0025                    -0.0215                  5.418697601042505
0.0025                    -0.0205                  5.2889359374868405
0.0025                    -0.0195                  5.159506231635543
0.0025                    -0.0185                  5.030182328444816
0.0025                    -0.0175                  4.899690326779165
0.0025                    -0.0165                  4.76514189228229
0.0025                    -0.0155                  4.62141324104894
0.0025                    -0.0145                  4.460572213298574
0.0025                    -0.0135                  4.271737794867764
0.0025                    -0.0125                  4.04221655753807
0.0025                    -0.0115                  3.7604172986866535
0.0025                    -0.0105                  3.420095482941148
0.0025                    -0.0095                  3.0268644596896617
0.0025                    -0.0085                  2.60818348905691
0.0025                    -0.0075                  2.2174965496225587
0.0025                    -0.0065                  1.9137128319923895
0.0025                    -0.0055                  1.7301838979526685
0.0025                    -0.0045                  1.642931627103542
0.0025                    -0.0035                  1.6092641590755985
0.0025                    -0.0025                  1.57954686064395
0.0025                    -0.0015                  2.0315226337621297
0.0025                    -5.0E-4                  3.4201000212375883
0.0025                    5.0E-4                   4.910240895630883
0.0025                    0.0015                   5.522576943071408
0.0025                    0.0025                   5.5647280311785305
0.0025                    0.0035                   5.579267047023693
0.0025                    0.0045                   5.6036660760767205
0.0025                    0.0055                   5.661522530629915
0.0025                    0.0065                   5.786489268737617
0.0025                    0.0075                   5.987115682297261
0.0025                    0.0085                   6.231538345751315
0.0025                    0.0095                   6.473477742710711
0.0025                    0.0105                   6.676461719499562
0.0025                    0.0115                   6.825492446393601
0.0025                    0.0125                   6.922530428582649
0.0025                    0.0135                   6.9784623902525516
0.0025                    0.0145                   7.0060249014827125
0.0025                    0.0155                   7.015657263542823
0.0025                    0.0165                   7.014297115446697
0.0025                    0.0175                   7.005979458221553
0.0025                    0.0185                   6.99287343608269
0.0025                    0.0195                   6.976094753566395
0.0025                    0.0205                   6.956315536378509
0.0025                    0.0215                   6.934159392305381
0.0025                    0.0225                   6.910364745566262
0.0025                    0.0235                   6.885782511147288
0.0025                    0.0245                   6.861292343345941
0.0025                    0.0255                   6.837702145378053
0.0025                    0.0265                   6.815675572578929
0.0025                    0.0275                   6.795711465447147
0.0025                    0.0285                   6.778185303274137
0.0025                    0.0295                   6.763484757883618
0.0025                    0.0305                   6.752307283705729
0.0025                    0.0315                   6.745969909935114
0.0035                    -0.0315                  6.707423786477389
0.0035                    -0.0305                  6.6558132512316295
0.0035                    -0.0295                  6.568809419384379
0.0035                    -0.0285                  6.462964345789052
0.0035                    -0.0275                  6.349501735597762
0.0035                    -0.0265                  6.233785088772192
0.0035                    -0.0255                  6.11749587382197
0.0035                    -0.0245                  6.000900477589461
0.0035                    -0.0235                  5.884036057757051
0.0035                    -0.0225                  5.767217052685048
0.0035                    -0.0215                  5.651200809471854
0.0035                    -0.0205                  5.5370998285835284
0.0035                    -0.0195                  5.426046962186958
0.0035                    -0.0185                  5.31861806924249
0.0035                    -0.0175                  5.214069465146849
0.0035                    -0.0165                  5.109457491650512
0.0035                    -0.0155                  4.998674684998276
0.0035                    -0.0145                  4.871540696296116
0.0035                    -0.0135                  4.713194139626836
0.0035                    -0.0125                  4.504653150365304
0.0035                    -0.0115                  4.226463440438533
0.0035                    -0.0105                  3.8658816709996873
0.0035                    -0.0095                  3.4255852832203377
0.0035                    -0.0085                  2.9342302935723286
0.0035                    -0.0075                  2.453860315076317
0.0035                    -0.0065                  2.061270692306894
0.0035                    -0.0055                  1.8092847707105406
0.0035                    -0.0045                  1.6801237135738578
0.0035                    -0.0035                  1.6197544427409412
0.0035                    -0.0025                  1.5870595255138074
0.0035                    -0.0015                  2.206275409407578
0.0035                    -5.0E-4                  3.714988223839463
0.0035                    5.0E-4                   5.070302176518164
0.0035                    0.0015                   5.559469947814561
0.0035                    0.0025                   5.577344791107101
0.0035                    0.0035                   5.595885384448268
0.0035                    0.0045                   5.63182990541017
0.0035                    0.0055                   5.726169631663038
0.0035                    0.0065                   5.919007743268331
0.0035                    0.0075                   6.203259235144101
0.0035                    0.0085                   6.522585496067647
0.0035                    0.0095                   6.816349306944957
0.0035                    0.0105                   7.044526594719645
0.0035                    0.0115                   7.195657238971796
0.0035                    0.0125                   7.279441726997744
0.0035                    0.0135                   7.313617132327504
0.0035                    0.0145                   7.31521583290951
0.0035                    0.0155                   7.29695022566783
0.0035                    0.0165                   7.2670305626695395
0.0035                    0.0175                   7.230319380397427
0.0035                    0.0185                   7.189374502000812
0.0035                    0.0195                   7.145497995017957
0.0035                    0.0205                   7.099596139886401
0.0035                    0.0215                   7.052628139960029
0.0035                    0.0225                   7.0057199089546645
0.0035                    0.0235                   6.960088443806606
0.0035                    0.0245                   6.916891383477892
0.0035                    0.0255                   6.877091084425523
0.0035                    0.0265                   6.84139017960729
0.0035                    0.0275                   6.810254695638797
0.0035                    0.0285                   6.784025255109462
0.0035                    0.0295                   6.763111834477092
0.0035                    0.0305                   6.748188222071331
0.0035                    0.0315                   6.740232697480084
0.0045                    -0.0315                  6.830928719721017
0.0045                    -0.0305                  6.792008970347621
0.0045                    -0.0295                  6.724148646041915
0.0045                    -0.0285                  6.638120095767558
0.0045                    -0.0275                  6.542605885524148
0.0045                    -0.0265                  6.44326932183418
0.0045                    -0.0255                  6.342745274565477
0.0045                    -0.0245                  6.241804102652864
0.0045                    -0.0235                  6.140604843733959
0.0045                    -0.0225                  6.03947985983883
0.0045                    -0.0215                  5.9393091359727
0.0045                    -0.0205                  5.841569111199481
0.0045                    -0.0195                  5.748038238150039
0.0045                    -0.0185                  5.66013482126577
0.0045                    -0.0175                  5.577896329575606
0.0045                    -0.0165                  5.49877876190464
0.0045                    -0.0155                  5.416426824021211
0.0045                    -0.0145                  5.31950959010506
0.0045                    -0.0135                  5.1910690929479255
0.0045                    -0.0125                  5.008856327629802
0.0045                    -0.0115                  4.748037177037906
0.0045                    -0.0105                  4.389220499087998
0.0045                    -0.0095                  3.9290627132412275
0.0045                    -0.0085                  3.3903880295758815
0.0045                    -0.0075                  2.8305053473723554
0.0045                    -0.0065                  2.3347609746758495
0.0045                    -0.0055                  1.9807731985853758
0.0045                    -0.0045                  1.7808571438398102
0.0045                    -0.0035                  1.664838090247347
0.0045                    -0.0025                  1.5927024567487864
0.0045                    -0.0015                  2.558401504090692
0.0045                    -5.0E-4                  4.371743084493213
0.0045                    5.0E-4                   5.440905337577662
0.0045                    0.0015                   5.639872588689759
0.0045                    0.0025                   5.604183775252698
0.0045                    0.0035                   5.62583610246207
0.0045                    0.0045                   5.68800550298495
0.0045                    0.0055                   5.8555849120403325
0.0045                    0.0065                   6.148918028968275
0.0045                    0.0075                   6.51994099565861
0.0045                    0.0085                   6.895611523154512
0.0045                    0.0095                   7.211898014447816
0.0045                    0.0105                   7.4378779283278815
0.0045                    0.0115                   7.5774527680226935
0.0045                    0.0125                   7.647190783974053
0.0045                    0.0135                   7.665219366275707
0.0045                    0.0145                   7.647460474565453
0.0045                    0.0155                   7.606141600666028
0.0045                    0.0165                   7.550164195098906
0.0045                    0.0175                   7.485163464369186
0.0045                    0.0185                   7.414394977149035
0.0045                    0.0195                   7.340023793678602
0.0045                    0.0205                   7.263919197476577
0.0045                    0.0215                   7.187970864749419
0.0045                    0.0225                   7.114099840742353
0.0045                    0.0235                   7.04410537164632
0.0045                    0.0245                   6.979479617467094
0.0045                    0.0255                   6.921302666967689
0.0045                    0.0265                   6.870251029538475
0.0045                    0.0275                   6.826705584917329
0.0045                    0.0285                   6.790925818948707
0.0045                    0.0295                   6.7632280497823665
0.0045                    0.0305                   6.7440884655528714
0.0045                    0.0315                   6.734173011890216
0.0055                    -0.0315                  6.958232797940838
0.0055                    -0.0305                  6.931954941084781
0.0055                    -0.0295                  6.885027412706089
0.0055                    -0.0285                  6.823647695169595
0.0055                    -0.0275                  6.753169804143623
0.0055                    -0.0265                  6.677690202185268
0.0055                    -0.0255                  6.599652411329394
0.0055                    -0.0245                  6.5200144008022365
0.0055                    -0.0235                  6.438955913349584
0.0055                    -0.0225                  6.356638026333423
0.0055                    -0.0215                  6.273721203546635
0.0055                    -0.0205                  6.191596024295775
0.0055                    -0.0195                  6.1122689674515485
0.0055                    -0.0185                  6.037785863400031
0.0055                    -0.0175                  5.96916961259317
0.0055                    -0.0165                  5.904849562928067
0.0055                    -0.0155                  5.839118192984944
0.0055                    -0.0145                  5.760886037890782
0.0055                    -0.0135                  5.653023299705021
0.0055                    -0.0125                  5.49321272566357
0.0055                    -0.0115                  5.25737770174351
0.0055                    -0.0105                  4.923490879432282
0.0055                    -0.0095                  4.474514671175664
0.0055                    -0.0085                  3.9204805863010956
0.0055                    -0.0075                  3.3137743907697548
0.0055                    -0.0065                  2.7329686512564004
0.0055                    -0.0055                  2.265938118139191
0.0055                    -0.0045                  1.9841749760218723
0.0055                    -0.0035                  1.8581423419187764
0.0055                    -0.0025                  1.805153519177396
0.0055                    -0.0015                  3.5167363391619517
0.0055                    -5.0E-4                  5.96447237861959
0.0055                    5.0E-4                   6.322908644581398
0.0055                    0.0015                   5.7921410553020305
0.0055                    0.0025                   5.634055975924446
0.0055                    0.0035                   5.668171554393954
0.0055                    0.0045                   5.792437989955962
0.0055                    0.0055                   6.074790552448841
0.0055                    0.0065                   6.472685504977009
0.0055                    0.0075                   6.904694766390421
0.0055                    0.0085                   7.294049292461754
0.0055                    0.0095                   7.587743717216867
0.0055                    0.0105                   7.787153001410571
0.0055                    0.0115                   7.912193658740909
0.0055                    0.0125                   7.9781757075784085
0.0055                    0.0135                   7.994286001893393
0.0055                    0.0145                   7.96997767067638
0.0055                    0.0155                   7.915857316267959
0.0055                    0.0165                   7.840681049842329
0.0055                    0.0175                   7.750634558796477
0.0055                    0.0185                   7.650516131864429
0.0055                    0.0195                   7.544433764666593
0.0055                    0.0205                   7.436148438483796
0.0055                    0.0215                   7.329153488494227
0.0055                    0.0225                   7.226560001585159
0.0055                    0.0235                   7.130880330485976
0.0055                    0.0245                   7.04390825145276
0.0055                    0.0255                   6.966746687326761
0.0055                    0.0265                   6.899953314870413
0.0055                    0.0275                   6.84374959741532
0.0055                    0.0285                   6.7982325081387875
0.0055                    0.0295                   6.763535231328201
0.0055                    0.0305                   6.73992302960308
0.0055                    0.0315                   6.72785161082701
0.0065                    -0.0315                  7.087683440590934
0.0065                    -0.0305                  7.0740901720672476
0.0065                    -0.0295                  7.049153356051585
0.0065                    -0.0285                  7.0153445294815535
0.0065                    -0.0275                  6.974844008860906
0.0065                    -0.0265                  6.929411492564592
0.0065                    -0.0255                  6.880153858713802
0.0065                    -0.0245                  6.827406407902466
0.0065                    -0.0235                  6.770930115293458
0.0065                    -0.0225                  6.710365112487166
0.0065                    -0.0215                  6.645713146055282
0.0065                    -0.0205                  6.577670888919012
0.0065                    -0.0195                  6.507770580188014
0.0065                    -0.0185                  6.438138739110453
0.0065                    -0.0175                  6.370619458775024
0.0065                    -0.0165                  6.305313759207304
0.0065                    -0.0155                  6.238312325654371
0.0065                    -0.0145                  6.160427449180993
0.0065                    -0.0135                  6.056769472708423
0.0065                    -0.0125                  5.908040259547787
0.0065                    -0.0115                  5.694792720468526
0.0065                    -0.0105                  5.395629971900916
0.0065                    -0.0095                  4.983137751968475
0.0065                    -0.0085                  4.444118994752448
0.0065                    -0.0075                  3.8246597384533754
0.0065                    -0.0065                  3.2058114209720703
0.0065                    -0.0055                  2.6564563871779043
0.0065                    -0.0045                  2.2707516314237526
0.0065                    -0.0035                  2.084171123109825
0.0065                    -0.0025                  2.5735288863769865
0.0065                    -0.0015                  6.140722376005719
0.0065                    -5.0E-4                  9.659513144339492
0.0065                    5.0E-4                   8.491847471777529
0.0065                    0.0015                   6.201820733678871
0.0065                    0.0025                   5.590427904721235
0.0065                    0.0035                   5.686169696592186
0.0065                    0.0045                   5.946761114010912
0.0065                    0.0055                   6.384595176322749
0.0065                    0.0065                   6.873090013624352
0.0065                    0.0075                   7.300215743861727
0.0065                    0.0085                   7.6318820896654564
0.0065                    0.0095                   7.87213034735443
0.0065                    0.0105                   8.044532006324363
0.0065                    0.0115                   8.166486629214146
0.0065                    0.0125                   8.24304400366956