% Model:              Benchmark260518.mph
% Version:            COMSOL 6.2.0.339
% Date:               May 20 2026, 13:02
% Dimension:          2
% Nodes:              4096
% Expressions:        1
% Description:        压力
% Length unit:        m
% x                       y                        p (Pa)
5.0E-4                    -0.0315                  4.755448801062418
5.0E-4                    -0.0305                  4.786713042843835
5.0E-4                    -0.0295                  4.829096063824993
5.0E-4                    -0.0285                  4.875156979068917
5.0E-4                    -0.0275                  4.923528133824483
5.0E-4                    -0.0265                  4.973959033894499
5.0E-4                    -0.0255                  5.026332465124805
5.0E-4                    -0.0245                  5.080630003579755
5.0E-4                    -0.0235                  5.136995022583031
5.0E-4                    -0.0225                  5.195177577502782
5.0E-4                    -0.0215                  5.253024623307292
5.0E-4                    -0.0205                  5.3065864352706
5.0E-4                    -0.0195                  5.351586754225383
5.0E-4                    -0.0185                  5.382355425983001
5.0E-4                    -0.0175                  5.397222724732213
5.0E-4                    -0.0165                  5.400270254255746
5.0E-4                    -0.0155                  5.395619755297433
5.0E-4                    -0.0145                  5.3843756038639565
5.0E-4                    -0.0135                  5.365867504803584
5.0E-4                    -0.0125                  5.347397249805693
5.0E-4                    -0.0115                  5.343448306164223
5.0E-4                    -0.0105                  5.360891555900148
5.0E-4                    -0.0095                  5.388920502196479
5.0E-4                    -0.0085                  5.401206862673945
5.0E-4                    -0.0075                  5.372360052469716
5.0E-4                    -0.0065                  5.302710624256646
5.0E-4                    -0.0055                  5.218569606591995
5.0E-4                    -0.0045                  5.148892463221479
5.0E-4                    -0.0035                  5.119025858942894
5.0E-4                    -0.0025                  5.119894221718147
5.0E-4                    -0.0015                  5.117236682901185
5.0E-4                    -5.0E-4                  5.080770146449239
5.0E-4                    5.0E-4                   4.893309327341715
5.0E-4                    0.0015                   4.330870505132688
5.0E-4                    0.0025                   3.2521657062020677
5.0E-4                    0.0035                   2.2466212188431847
5.0E-4                    0.0045                   1.8804093461543483
5.0E-4                    0.0055                   1.824918358975793
5.0E-4                    0.0065                   1.8088337745698073
5.0E-4                    0.0075                   1.8373729043845737
5.0E-4                    0.0085                   1.907290836936107
5.0E-4                    0.0095                   2.036255983814894
5.0E-4                    0.0105                   2.2197692512580636
5.0E-4                    0.0115                   2.435490005150995
5.0E-4                    0.0125                   2.6661928405611928
5.0E-4                    0.0135                   2.8984534918389033
5.0E-4                    0.0145                   3.1230167995335094
5.0E-4                    0.0155                   3.333539633985574
5.0E-4                    0.0165                   3.525638241789349
5.0E-4                    0.0175                   3.6967678261282204
5.0E-4                    0.0185                   3.8462489226803327
5.0E-4                    0.0195                   3.974997689105291
5.0E-4                    0.0205                   4.084958724166865
5.0E-4                    0.0215                   4.178515846904983
5.0E-4                    0.0225                   4.2581114450295
5.0E-4                    0.0235                   4.326089135795906
5.0E-4                    0.0245                   4.384633248807764
5.0E-4                    0.0255                   4.435701184652517
5.0E-4                    0.0265                   4.480947459152954
5.0E-4                    0.0275                   4.521674560042156
5.0E-4                    0.0285                   4.558788493838705
5.0E-4                    0.0295                   4.592699338613446
5.0E-4                    0.0305                   4.62285211834074
5.0E-4                    0.0315                   4.64471041181991
0.0015                    -0.0315                  4.7238054767588205
0.0015                    -0.0305                  4.7547531268272145
0.0015                    -0.0295                  4.799520672145153
0.0015                    -0.0285                  4.848179111163313
0.0015                    -0.0275                  4.898206958270866
0.0015                    -0.0265                  4.949426687369832
0.0015                    -0.0255                  5.0022989419666155
0.0015                    -0.0245                  5.057560189409577
0.0015                    -0.0235                  5.115874613146445
0.0015                    -0.0225                  5.1770452166883265
0.0015                    -0.0215                  5.238845971419578
0.0015                    -0.0205                  5.296755466156685
0.0015                    -0.0195                  5.346038978631423
0.0015                    -0.0185                  5.3808869818039735
0.0015                    -0.0175                  5.399857452685406
0.0015                    -0.0165                  5.4051505411838345
0.0015                    -0.0155                  5.3978757964245005
0.0015                    -0.0145                  5.378221905344673
0.0015                    -0.0135                  5.346037878123781
0.0015                    -0.0125                  5.310871692395315
0.0015                    -0.0115                  5.290341664394339
0.0015                    -0.0105                  5.294752571757628
0.0015                    -0.0095                  5.316939478960383
0.0015                    -0.0085                  5.333542251574004
0.0015                    -0.0075                  5.318441698926712
0.0015                    -0.0065                  5.26467950587197
0.0015                    -0.0055                  5.192220973995958
0.0015                    -0.0045                  5.134027447209996
0.0015                    -0.0035                  5.111233061940331
0.0015                    -0.0025                  5.113815416716898
0.0015                    -0.0015                  5.119922903494381
0.0015                    -5.0E-4                  5.105620026464006
0.0015                    5.0E-4                   4.952799809547929
0.0015                    0.0015                   4.385645037089734
0.0015                    0.0025                   3.2428998387890253
0.0015                    0.0035                   2.123982742792818
0.0015                    0.0045                   1.7523856540052754
0.0015                    0.0055                   1.7880901677917636
0.0015                    0.0065                   1.7984980817194076
0.0015                    0.0075                   1.8276459027874536
0.0015                    0.0085                   1.891325959696601
0.0015                    0.0095                   2.0211655251508778
0.0015                    0.0105                   2.221106412406811
0.0015                    0.0115                   2.466559670877386
0.0015                    0.0125                   2.732172032083912
0.0015                    0.0135                   2.996684502401642
0.0015                    0.0145                   3.2464073664551054
0.0015                    0.0155                   3.4729040002341582
0.0015                    0.0165                   3.671489654524746
0.0015                    0.0175                   3.8409767327676274
0.0015                    0.0185                   3.9830840685681763
0.0015                    0.0195                   4.101198655141444
0.0015                    0.0205                   4.199102959837488
0.0015                    0.0215                   4.280254341385882
0.0015                    0.0225                   4.347655526725382
0.0015                    0.0235                   4.403975488895567
0.0015                    0.0245                   4.45161138327893
0.0015                    0.0255                   4.49264839666337
0.0015                    0.0265                   4.5288463764390645
0.0015                    0.0275                   4.561692326147519
0.0015                    0.0285                   4.592394683804779
0.0015                    0.0295                   4.621660717233227
0.0015                    0.0305                   4.648711640713959
0.0015                    0.0315                   4.667781832824165
0.0025                    -0.0315                  4.680600024670762
0.0025                    -0.0305                  4.70796615184414
0.0025                    -0.0295                  4.751570022194243
0.0025                    -0.0285                  4.801353923576984
0.0025                    -0.0275                  4.852721132861865
0.0025                    -0.0265                  4.904616965615317
0.0025                    -0.0255                  4.957632083049552
0.0025                    -0.0245                  5.013146516376317
0.0025                    -0.0235                  5.072599663728305
0.0025                    -0.0225                  5.136148957026587
0.0025                    -0.0215                  5.20145142355645
0.0025                    -0.0205                  5.26451566320439
0.0025                    -0.0195                  5.319668134955009
0.0025                    -0.0185                  5.363888822952915
0.0025                    -0.0175                  5.394072963868815
0.0025                    -0.0165                  5.399492804412624
0.0025                    -0.0155                  5.372999594206902
0.0025                    -0.0145                  5.319813506959991
0.0025                    -0.0135                  5.253451648514134
0.0025                    -0.0125                  5.190786172509911
0.0025                    -0.0115                  5.14794652326983
0.0025                    -0.0105                  5.134159048436784
0.0025                    -0.0095                  5.146658041323443
0.0025                    -0.0085                  5.171441723776609
0.0025                    -0.0075                  5.18732547620567
0.0025                    -0.0065                  5.176948485953181
0.0025                    -0.0055                  5.14517865247617
0.0025                    -0.0045                  5.116924612254911
0.0025                    -0.0035                  5.107964968053139
0.0025                    -0.0025                  5.116030217324491
0.0025                    -0.0015                  5.142596249844988
0.0025                    -5.0E-4                  5.1735892982595075
0.0025                    5.0E-4                   5.093539695967209
0.0025                    0.0015                   4.593029426781915
0.0025                    0.0025                   3.5119001798712475
0.0025                    0.0035                   2.277739841323628
0.0025                    0.0045                   1.7226724496607018
0.0025                    0.0055                   1.7579918652692732
0.0025                    0.0065                   1.7974202631437675
0.0025                    0.0075                   1.8274570859384696
0.0025                    0.0085                   1.8944411030505124
0.0025                    0.0095                   2.0339731295202723
0.0025                    0.0105                   2.257221523813306
0.0025                    0.0115                   2.5438154772337604
0.0025                    0.0125                   2.8594101631254434
0.0025                    0.0135                   3.1715326916130095
0.0025                    0.0145                   3.457627186485606
0.0025                    0.0155                   3.7049175546535484
0.0025                    0.0165                   3.909165239778453
0.0025                    0.0175                   4.072841116608199
0.0025                    0.0185                   4.202124669859909
0.0025                    0.0195                   4.303834678589964
0.0025                    0.0205                   4.383752770601792
0.0025                    0.0215                   4.446441872496791
0.0025                    0.0225                   4.495614440890719
0.0025                    0.0235                   4.5344006138679775
0.0025                    0.0245                   4.565382328308506
0.0025                    0.0255                   4.5906461763254285
0.0025                    0.0265                   4.612036526902086
0.0025                    0.0275                   4.631339222121694
0.0025                    0.0285                   4.650153405219881
0.0025                    0.0295                   4.6692918517602875
0.0025                    0.0305                   4.687397804812269
0.0025                    0.0315                   4.699558043148585
0.0035                    -0.0315                  4.633554364731728
0.0035                    -0.0305                  4.656676785622384
0.0035                    -0.0295                  4.696081950224065
0.0035                    -0.0285                  4.74382910913845
0.0035                    -0.0275                  4.794586762303987
0.0035                    -0.0265                  4.846037139043288
0.0035                    -0.0255                  4.898044771221817
0.0035                    -0.0245                  4.951790030890359
0.0035                    -0.0235                  5.009065038516528
0.0035                    -0.0225                  5.070951904325193
0.0035                    -0.0215                  5.136088321294882
0.0035                    -0.0205                  5.202976773779264
0.0035                    -0.0195                  5.265817691873026
0.0035                    -0.0185                  5.320506053966879
0.0035                    -0.0175                  5.355718273520461
0.0035                    -0.0165                  5.346173115752089
0.0035                    -0.0155                  5.285055591701052
0.0035                    -0.0145                  5.190840864763642
0.0035                    -0.0135                  5.090271212691798
0.0035                    -0.0125                  5.005265972144418
0.0035                    -0.0115                  4.94860858382157
0.0035                    -0.0105                  4.924431327012208
0.0035                    -0.0095                  4.929835589939368
0.0035                    -0.0085                  4.958134104997692
0.0035                    -0.0075                  4.999121549907454
0.0035                    -0.0065                  5.041579665312521
0.0035                    -0.0055                  5.075729948179804
0.0035                    -0.0045                  5.103904898719696
0.0035                    -0.0035                  5.13644496502374
0.0035                    -0.0025                  5.177405266610356
0.0035                    -0.0015                  5.245705134914281
0.0035                    -5.0E-4                  5.338480248699627
0.0035                    5.0E-4                   5.365094815756263
0.0035                    0.0015                   4.97866622153719
0.0035                    0.0025                   3.928822669393549
0.0035                    0.0035                   2.494443169573784
0.0035                    0.0045                   1.7543149861375302
0.0035                    0.0055                   1.7831128599187407
0.0035                    0.0065                   1.8119652355221658
0.0035                    0.0075                   1.8469765629280923
0.0035                    0.0085                   1.9272166699482125
0.0035                    0.0095                   2.084897859820627
0.0035                    0.0105                   2.3366490070754438
0.0035                    0.0115                   2.66672199089033
0.0035                    0.0125                   3.0343430201528454
0.0035                    0.0135                   3.3939480373424797
0.0035                    0.0145                   3.711538418478173
0.0035                    0.0155                   3.9711657695982345
0.0035                    0.0165                   4.172727279243277
0.0035                    0.0175                   4.325221102513174
0.0035                    0.0185                   4.43967683642466
0.0035                    0.0195                   4.525132032285419
0.0035                    0.0205                   4.5880791603825575
0.0035                    0.0215                   4.63350561405432
0.0035                    0.0225                   4.665689908504937
0.0035                    0.0235                   4.68797339720582
0.0035                    0.0245                   4.702601456383994
0.0035                    0.0255                   4.711334552499309
0.0035                    0.0265                   4.716072260038408
0.0035                    0.0275                   4.718951965330623
0.0035                    0.0285                   4.721931698064954
0.0035                    0.0295                   4.726073892827735
0.0035                    0.0305                   4.73087326973673
0.0035                    0.0315                   4.73438704300324
0.0045                    -0.0315                  4.584539880067619
0.0045                    -0.0305                  4.603950423889304
0.0045                    -0.0295                  4.6384198210621985
0.0045                    -0.0285                  4.682072846760185
0.0045                    -0.0275                  4.730103918203203
0.0045                    -0.0265                  4.779494771364911
0.0045                    -0.0255                  4.82902430979041
0.0045                    -0.0245                  4.87889547970655
0.0045                    -0.0235                  4.930335763300036
0.0045                    -0.0225                  4.985282249811639
0.0045                    -0.0215                  5.045294380226969
0.0045                    -0.0205                  5.111470071865849
0.0045                    -0.0195                  5.180078873358697
0.0045                    -0.0185                  5.2393853087044615
0.0045                    -0.0175                  5.264567466110619
0.0045                    -0.0165                  5.23007845776049
0.0045                    -0.0155                  5.139265600336884
0.0045                    -0.0145                  5.021371724361174
0.0045                    -0.0135                  4.9100940311886925
0.0045                    -0.0125                  4.829281175834147
0.0045                    -0.0115                  4.784602271061629
0.0045                    -0.0105                  4.7687304267851705
0.0045                    -0.0095                  4.7740927939549795
0.0045                    -0.0085                  4.797809263008949
0.0045                    -0.0075                  4.840477229520632
0.0045                    -0.0065                  4.905009104280283
0.0045                    -0.0055                  4.9911413945646546
0.0045                    -0.0045                  5.093478977105781
0.0045                    -0.0035                  5.207851088550427
0.0045                    -0.0025                  5.334185659645529
0.0045                    -0.0015                  5.4806814660681455
0.0045                    -5.0E-4                  5.662462484593955
0.0045                    5.0E-4                   5.831898416654486
0.0045                    0.0015                   5.594922483002518
0.0045                    0.0025                   4.598702205895535
0.0045                    0.0035                   2.9877734188214258
0.0045                    0.0045                   1.9431333257164933
0.0045                    0.0055                   1.820413226583581
0.0045                    0.0065                   1.8422037019221011
0.0045                    0.0075                   1.8944663283819134
0.0045                    0.0085                   1.988347310453427
0.0045                    0.0095                   2.1614041653848894
0.0045                    0.0105                   2.4413871397078863
0.0045                    0.0115                   2.815341330387963
0.0045                    0.0125                   3.23237606810874
0.0045                    0.0135                   3.6280661826493947
0.0045                    0.0145                   3.9583391831760615
0.0045                    0.0155                   4.21231104802213
0.0045                    0.0165                   4.400463184605476
0.0045                    0.0175                   4.538946176987028
0.0045                    0.0185                   4.640850680527222
0.0045                    0.0195                   4.714743864891604
0.0045                    0.0205                   4.766659794518017
0.0045                    0.0215                   4.801836590111016
0.0045                    0.0225                   4.824431347261558
0.0045                    0.0235                   4.836956486659855
0.0045                    0.0245                   4.840697361341772
0.0045                    0.0255                   4.83682019100168
0.0045                    0.0265                   4.8271031518476475
0.0045                    0.0275                   4.813822041874541
0.0045                    0.0285                   4.79945102095196
0.0045                    0.0295                   4.786250190470617
0.0045                    0.0305                   4.776039800211756
0.0045                    0.0315                   4.770319479692896
0.0055                    -0.0315                  4.534129882494252
0.0055                    -0.0305                  4.550576275750597
0.0055                    -0.0295                  4.580482385144997
0.0055                    -0.0285                  4.619454386489254
0.0055                    -0.0275                  4.663471064352565
0.0055                    -0.0265                  4.709408912938445
0.0055                    -0.0255                  4.755216004700668
0.0055                    -0.0245                  4.7999385116519315
0.0055                    -0.0235                  4.843811743073344
0.0055                    -0.0225                  4.888652866114772
0.0055                    -0.0215                  4.938704896574661
0.0055                    -0.0205                  4.997444123186154
0.0055                    -0.0195                  5.06301547113602
0.0055                    -0.0185                  5.117757373845877
0.0055                    -0.0175                  5.128694762952477
0.0055                    -0.0165                  5.076898696617394
0.0055                    -0.0155                  4.976121892867685
0.0055                    -0.0145                  4.86379846844127
0.0055                    -0.0135                  4.776886241335337
0.0055                    -0.0125                  4.729690329129388
0.0055                    -0.0115                  4.712883609822308
0.0055                    -0.0105                  4.711896072479444
0.0055                    -0.0095                  4.720722751302885
0.0055                    -0.0085                  4.7407249513668255
0.0055                    -0.0075                  4.777504774240994
0.0055                    -0.0065                  4.841003505458842
0.0055                    -0.0055                  4.9448058848752385
0.0055                    -0.0045                  5.104613826361398
0.0055                    -0.0035                  5.329951361558454
0.0055                    -0.0025                  5.601880196308535
0.0055                    -0.0015                  5.895022433368432
0.0055                    -5.0E-4                  6.231328846394318
0.0055                    5.0E-4                   6.566076836032592
0.0055                    0.0015                   6.478500520370411
0.0055                    0.0025                   5.536458277663541
0.0055                    0.0035                   3.803447437622257
0.0055                    0.0045                   2.3161103781829127
0.0055                    0.0055                   1.8725207140428495
0.0055                    0.0065                   1.9138412573509411
0.0055                    0.0075                   1.9700706792448788
0.0055                    0.0085                   2.0656189258212505
0.0055                    0.0095                   2.2465404049034756
0.0055                    0.0105                   2.548926272971898
0.0055                    0.0115                   2.9646972841365264
0.0055                    0.0125                   3.420593021974302
0.0055                    0.0135                   3.8314661229391285
0.0055                    0.0145                   4.151806552518623
0.0055                    0.0155                   4.384990825174517
0.0055                    0.0165                   4.555142699281207
0.0055                    0.0175                   4.682113004345177
0.0055                    0.0185                   4.7768274378057685
0.0055                    0.0195                   4.845321956380758
0.0055                    0.0205                   4.892970032838506
0.0055                    0.0215                   4.925537591578551
0.0055                    0.0225                   4.946779268130152
0.0055                    0.0235                   4.957884840140881
0.0055                    0.0245                   4.959107467782919
0.0055                    0.0255                   4.950304959644958
0.0055                    0.0265                   4.932029704863165
0.0055                    0.0275                   4.906247857010205
0.0055                    0.0285                   4.876271704148474
0.0055                    0.0295                   4.8463201421082
0.0055                    0.0305                   4.821102427314358
0.0055                    0.0315                   4.805975460112098
0.0065                    -0.0315                  4.48264377289117
0.0065                    -0.0305                  4.496784271295633
0.0065                    -0.0295                  4.522849738285579
0.0065                    -0.0285                  4.557393271703085
0.0065                    -0.0275                  4.5970667444745335
0.0065                    -0.0265                  4.638892851832624
0.0065                    -0.0255                  4.6804083871222675
0.0065                    -0.0245                  4.7199181721198125
0.0065                    -0.0235                  4.756871923923128
0.0065                    -0.0225                  4.7931812002211185
0.0065                    -0.0215                  4.833142020440603
0.0065                    -0.0205                  4.880978453951866
0.0065                    -0.0195                  4.934544037941174
0.0065                    -0.0185                  4.976673823435732
0.0065                    -0.0175                  4.9793668691453306
0.0065                    -0.0165                  4.926999806241563
0.0065                    -0.0155                  4.840097275094596
0.0065                    -0.0145                  4.760805838165672
0.0065                    -0.0135                  4.715509225562724
0.0065                    -0.0125                  4.7005568194079395
0.0065                    -0.0115                  4.699936251114555
0.0065                    -0.0105                  4.7055876296919035
0.0065                    -0.0095                  4.717814013699452
0.0065                    -0.0085                  4.741321031250644
0.0065                    -0.0075                  4.784045060119375
0.0065                    -0.0065                  4.857673601589193
0.0065                    -0.0055                  4.979771357274857
0.0065                    -0.0045                  5.18471178489148
0.0065                    -0.0035                  5.515862639336026
0.0065                    -0.0025                  5.979432225922637
0.0065                    -0.0015                  6.516694355785484
0.0065                    -5.0E-4                  7.077067585736335
0.0065                    5.0E-4                   7.555011368011013
0.0065                    0.0015                   7.580062551013134
0.0065                    0.0025                   6.716062378804654
0.0065                    0.0035                   4.952932449772349
0.0065                    0.0045                   3.0127748238645538
0.0065                    0.0055                   2.067094303948383
0.0065                    0.0065                   2.0134640973276356
0.0065                    0.0075                   2.0664927400386968
0.0065                    0.0085                   2.1540650007558604
0.0065                    0.0095                   2.3300641522052805
0.0065                    0.0105                   2.655709578602241
0.0065                    0.0115                   3.1007242349061084
0.0065                    0.0125                   3.566439030394944