% Model:              Benchmark260518.mph
% Version:            COMSOL 6.2.0.339
% Date:               May 19 2026, 03:24
% Dimension:          2
% Nodes:              4096
% Expressions:        1
% Description:        压力
% Length unit:        m
% x                       y                        p (Pa)
5.0E-4                    -0.0315                  3.75222776849417
5.0E-4                    -0.0305                  3.7777598854405157
5.0E-4                    -0.0295                  3.8125023923489283
5.0E-4                    -0.0285                  3.8501497758012886
5.0E-4                    -0.0275                  3.889330818203419
5.0E-4                    -0.0265                  3.929539094438276
5.0E-4                    -0.0255                  3.970447670734795
5.0E-4                    -0.0245                  4.01187987563938
5.0E-4                    -0.0235                  4.053721122384976
5.0E-4                    -0.0225                  4.095896585071041
5.0E-4                    -0.0215                  4.138333090245324
5.0E-4                    -0.0205                  4.180959389255878
5.0E-4                    -0.0195                  4.223718341553665
5.0E-4                    -0.0185                  4.266563498601235
5.0E-4                    -0.0175                  4.309465048392113
5.0E-4                    -0.0165                  4.35243500472365
5.0E-4                    -0.0155                  4.395516247262263
5.0E-4                    -0.0145                  4.438724380767203
5.0E-4                    -0.0135                  4.482013237003586
5.0E-4                    -0.0125                  4.525056627916953
5.0E-4                    -0.0115                  4.566341300660293
5.0E-4                    -0.0105                  4.602795901279933
5.0E-4                    -0.0095                  4.631160380503786
5.0E-4                    -0.0085                  4.649287654948625
5.0E-4                    -0.0075                  4.658332005358105
5.0E-4                    -0.0065                  4.661749057360611
5.0E-4                    -0.0055                  4.6618414508140695
5.0E-4                    -0.0045                  4.659825268598755
5.0E-4                    -0.0035                  4.656560868616414
5.0E-4                    -0.0025                  4.652874051369246
5.0E-4                    -0.0015                  4.6496042717504835
5.0E-4                    -5.0E-4                  4.64741916795907
5.0E-4                    5.0E-4                   4.646685271542287
5.0E-4                    0.0015                   4.647488044159125
5.0E-4                    0.0025                   4.649733373119189
5.0E-4                    0.0035                   4.653289712510387
5.0E-4                    0.0045                   4.6582438186727755
5.0E-4                    0.0055                   4.665023641889756
5.0E-4                    0.0065                   4.674302602749367
5.0E-4                    0.0075                   4.6866643046075325
5.0E-4                    0.0085                   4.702008160011419
5.0E-4                    0.0095                   4.718656206941425
5.0E-4                    0.0105                   4.732895460897286
5.0E-4                    0.0115                   4.739724774036526
5.0E-4                    0.0125                   4.735132449962531
5.0E-4                    0.0135                   4.719344852097692
5.0E-4                    0.0145                   4.697485115781217
5.0E-4                    0.0155                   4.675761029657821
5.0E-4                    0.0165                   4.655081525136528
5.0E-4                    0.0175                   4.632900339429619
5.0E-4                    0.0185                   4.612946351200584
5.0E-4                    0.0195                   4.6011335948195144
5.0E-4                    0.0205                   4.59656441784926
5.0E-4                    0.0215                   4.603568971380399
5.0E-4                    0.0225                   4.6613864389056525
5.0E-4                    0.0235                   4.789402935473584
5.0E-4                    0.0245                   4.899756554824619
5.0E-4                    0.0255                   4.934169779712943
5.0E-4                    0.0265                   4.939884825678154
5.0E-4                    0.0275                   4.945099966465328
5.0E-4                    0.0285                   4.947690693728269
5.0E-4                    0.0295                   4.9489175525927065
5.0E-4                    0.0305                   4.949608635928742
5.0E-4                    0.0315                   4.949955670541083
0.0015                    -0.0315                  3.7266313490067304
0.0015                    -0.0305                  3.7525195747684363
0.0015                    -0.0295                  3.790273070905952
0.0015                    -0.0285                  3.831485485470689
0.0015                    -0.0275                  3.8737292990930423
0.0015                    -0.0265                  3.9163793741177124
0.0015                    -0.0255                  3.9592206947310045
0.0015                    -0.0245                  4.002180932738371
0.0015                    -0.0235                  4.045262258894654
0.0015                    -0.0225                  4.088484302831765
0.0015                    -0.0215                  4.131848660480703
0.0015                    -0.0205                  4.175324867611069
0.0015                    -0.0195                  4.218859920130611
0.0015                    -0.0185                  4.2623990792558315
0.0015                    -0.0175                  4.305918341222991
0.0015                    -0.0165                  4.349460975700595
0.0015                    -0.0155                  4.393157655537776
0.0015                    -0.0145                  4.437208727008819
0.0015                    -0.0135                  4.481713830623888
0.0015                    -0.0125                  4.526053782897328
0.0015                    -0.0115                  4.568067612656636
0.0015                    -0.0105                  4.604448116800615
0.0015                    -0.0095                  4.63175685584911
0.0015                    -0.0085                  4.648818527095093
0.0015                    -0.0075                  4.658071329132703
0.0015                    -0.0065                  4.662243681398129
0.0015                    -0.0055                  4.6626164668269805
0.0015                    -0.0045                  4.6602305574008485
0.0015                    -0.0035                  4.656170596070675
0.0015                    -0.0025                  4.651641059431145
0.0015                    -0.0015                  4.647842368681945
0.0015                    -5.0E-4                  4.645549454497254
0.0015                    5.0E-4                   4.645045044934195
0.0015                    0.0015                   4.646278679465848
0.0015                    0.0025                   4.648977445645139
0.0015                    0.0035                   4.652758448825466
0.0015                    0.0045                   4.657437493324345
0.0015                    0.0055                   4.663246548359365
0.0015                    0.0065                   4.670822435733353
0.0015                    0.0075                   4.680834987554021
0.0015                    0.0085                   4.6934950278802745
0.0015                    0.0095                   4.707874773610086
0.0015                    0.0105                   4.7211505751844065
0.0015                    0.0115                   4.728675138418409
0.0015                    0.0125                   4.725884982659331
0.0015                    0.0135                   4.7118845256592845
0.0015                    0.0145                   4.691088803301218
0.0015                    0.0155                   4.669825516567544
0.0015                    0.0165                   4.649692539492422
0.0015                    0.0175                   4.6291627322747875
0.0015                    0.0185                   4.611735493543147
0.0015                    0.0195                   4.601223885221793
0.0015                    0.0205                   4.597214618359004
0.0015                    0.0215                   4.593977710960294
0.0015                    0.0225                   4.661725344436748
0.0015                    0.0235                   4.810064408514693
0.0015                    0.0245                   4.9163648879679265
0.0015                    0.0255                   4.94422523069382
0.0015                    0.0265                   4.945189934388962
0.0015                    0.0275                   4.9477881276118465
0.0015                    0.0285                   4.949411481540984
0.0015                    0.0295                   4.950227638118403
0.0015                    0.0305                   4.950466814428567
0.0015                    0.0315                   4.950407005214938
0.0025                    -0.0315                  3.6914461836172228
0.0025                    -0.0305                  3.7154766300966577
0.0025                    -0.0295                  3.75419214225578
0.0025                    -0.0285                  3.7989256212426126
0.0025                    -0.0275                  3.845356028838732
0.0025                    -0.0265                  3.891891127030161
0.0025                    -0.0255                  3.9380383399869983
0.0025                    -0.0245                  3.9837151539679656
0.0025                    -0.0235                  4.029021456580637
0.0025                    -0.0225                  4.074118673872324
0.0025                    -0.0215                  4.119139483007226
0.0025                    -0.0205                  4.164139707502525
0.0025                    -0.0195                  4.209097776594405
0.0025                    -0.0185                  4.253951446546662
0.0025                    -0.0175                  4.298653153312051
0.0025                    -0.0165                  4.34323066737864
0.0025                    -0.0155                  4.387826582333046
0.0025                    -0.0145                  4.432647607264166
0.0025                    -0.0135                  4.477676042769635
0.0025                    -0.0125                  4.522004749385299
0.0025                    -0.0115                  4.563150578261385
0.0025                    -0.0105                  4.598277829525319
0.0025                    -0.0095                  4.624437845140466
0.0025                    -0.0085                  4.64187017499204
0.0025                    -0.0075                  4.653481704045808
0.0025                    -0.0065                  4.6594570984834665
0.0025                    -0.0055                  4.65935646110878
0.0025                    -0.0045                  4.654599274488275
0.0025                    -0.0035                  4.647961664905085
0.0025                    -0.0025                  4.642032114414578
0.0025                    -0.0015                  4.638207759183317
0.0025                    -5.0E-4                  4.637041360174276
0.0025                    5.0E-4                   4.638430509328003
0.0025                    0.0015                   4.641688235266754
0.0025                    0.0025                   4.645950940607971
0.0025                    0.0035                   4.650462842692133
0.0025                    0.0045                   4.654755714458624
0.0025                    0.0055                   4.658782700466142
0.0025                    0.0065                   4.663037130865061
0.0025                    0.0075                   4.6684860742557115
0.0025                    0.0085                   4.676043158119345
0.0025                    0.0095                   4.685877501505627
0.0025                    0.0105                   4.696606130433629
0.0025                    0.0115                   4.70474996280784
0.0025                    0.0125                   4.705800885217958
0.0025                    0.0135                   4.697205353135137
0.0025                    0.0145                   4.680929062133306
0.0025                    0.0155                   4.661569493375237
0.0025                    0.0165                   4.641856200704426
0.0025                    0.0175                   4.623161272554495
0.0025                    0.0185                   4.608690157283355
0.0025                    0.0195                   4.601097984448465
0.0025                    0.0205                   4.600532176083824
0.0025                    0.0215                   4.623976577343126
0.0025                    0.0225                   4.722090646825886
0.0025                    0.0235                   4.85895148322852
0.0025                    0.0245                   4.938101103681635
0.0025                    0.0255                   4.954795208041599
0.0025                    0.0265                   4.953056370173548
0.0025                    0.0275                   4.952933490070842
0.0025                    0.0285                   4.952819227038989
0.0025                    0.0295                   4.952520650284757
0.0025                    0.0305                   4.951741364890499
0.0025                    0.0315                   4.950830480193109
0.0035                    -0.0315                  3.6528627311595967
0.0035                    -0.0305                  3.6746458004094524
0.0035                    -0.0295                  3.7122163408505124
0.0035                    -0.0285                  3.7584954179744035
0.0035                    -0.0275                  3.8083812674428628
0.0035                    -0.0265                  3.8590337158878487
0.0035                    -0.0255                  3.9091557488876423
0.0035                    -0.0245                  3.958300820639328
0.0035                    -0.0235                  4.006488613110877
0.0035                    -0.0225                  4.053976472183246
0.0035                    -0.0215                  4.1010677097587545
0.0035                    -0.0205                  4.147971397753468
0.0035                    -0.0195                  4.194751491940136
0.0035                    -0.0185                  4.241357269753011
0.0035                    -0.0175                  4.287681940153108
0.0035                    -0.0165                  4.3336156505356245
0.0035                    -0.0155                  4.379068137892838
0.0035                    -0.0145                  4.423886367298912
0.0035                    -0.0135                  4.467636780980953
0.0035                    -0.0125                  4.509323223726948
0.0035                    -0.0115                  4.547261415580365
0.0035                    -0.0105                  4.580160976238325
0.0035                    -0.0095                  4.606399568440887
0.0035                    -0.0085                  4.626169629189812
0.0035                    -0.0075                  4.640497116891082
0.0035                    -0.0065                  4.647008136851683
0.0035                    -0.0055                  4.644612025675296
0.0035                    -0.0045                  4.636711070382561
0.0035                    -0.0035                  4.628134824144572
0.0035                    -0.0025                  4.6223930525833765
0.0035                    -0.0015                  4.620934490904015
0.0035                    -5.0E-4                  4.623462389271231
0.0035                    5.0E-4                   4.628802591395482
0.0035                    0.0015                   4.635483441385907
0.0035                    0.0025                   4.642177041633598
0.0035                    0.0035                   4.647878694387408
0.0035                    0.0045                   4.651906228793566
0.0035                    0.0055                   4.653965825388302
0.0035                    0.0065                   4.654403496479599
0.0035                    0.0075                   4.654471107170494
0.0035                    0.0085                   4.655854745795499
0.0035                    0.0095                   4.659749312609781
0.0035                    0.0105                   4.666068194757411
0.0035                    0.0115                   4.673446215786962
0.0035                    0.0125                   4.679098041348406
0.0035                    0.0135                   4.679532747256803
0.0035                    0.0145                   4.672446230330434
0.0035                    0.0155                   4.658508638845005
0.0035                    0.0165                   4.640757601750606
0.0035                    0.0175                   4.623167400865663
0.0035                    0.0185                   4.6111265309047855
0.0035                    0.0195                   4.610559805921763
0.0035                    0.0205                   4.628755166723758
0.0035                    0.0215                   4.6905629433375555
0.0035                    0.0225                   4.8020065708459265
0.0035                    0.0235                   4.907551816198647
0.0035                    0.0245                   4.956481145922039
0.0035                    0.0255                   4.962995874800575
0.0035                    0.0265                   4.960709430582509
0.0035                    0.0275                   4.958925686116496
0.0035                    0.0285                   4.957202435278219
0.0035                    0.0295                   4.955359340106897
0.0035                    0.0305                   4.952962833063709
0.0035                    0.0315                   4.950754223419444
0.0045                    -0.0315                  3.612310629118986
0.0045                    -0.0305                  3.63220865836173
0.0045                    -0.0295                  3.6679897410353344
0.0045                    -0.0285                  3.7142242521702173
0.0045                    -0.0275                  3.7661846292779932
0.0045                    -0.0265                  3.820382426634236
0.0045                    -0.0255                  3.8745992597952696
0.0045                    -0.0245                  3.927661076080252
0.0045                    -0.0235                  3.979183132754248
0.0045                    -0.0225                  4.029345248507183
0.0045                    -0.0215                  4.078617893250251
0.0045                    -0.0205                  4.127467823748487
0.0045                    -0.0195                  4.17616049786771
0.0045                    -0.0185                  4.2247142516941185
0.0045                    -0.0175                  4.2729468827193795
0.0045                    -0.0165                  4.32048413696957
0.0045                    -0.0155                  4.366726247440172
0.0045                    -0.0145                  4.410844821691457
0.0045                    -0.0135                  4.45184748073517
0.0045                    -0.0125                  4.48885207084822
0.0045                    -0.0115                  4.521741390558433
0.0045                    -0.0105                  4.551278394028025
0.0045                    -0.0095                  4.577782023646867
0.0045                    -0.0085                  4.600229892925448
0.0045                    -0.0075                  4.615933186986996
0.0045                    -0.0065                  4.621320768083713
0.0045                    -0.0055                  4.616800838916977
0.0045                    -0.0045                  4.608079231098044
0.0045                    -0.0035                  4.601353423485387
0.0045                    -0.0025                  4.599970008808007
0.0045                    -0.0015                  4.604031464616857
0.0045                    -5.0E-4                  4.611814750251112
0.0045                    5.0E-4                   4.621326719986918
0.0045                    0.0015                   4.6309870551244146
0.0045                    0.0025                   4.639622632607572
0.0045                    0.0035                   4.646296863029253
0.0045                    0.0045                   4.650223027410975
0.0045                    0.0055                   4.650921865498254
0.0045                    0.0065                   4.6486401441676
0.0045                    0.0075                   4.644711904601042
0.0045                    0.0085                   4.641213659751279
0.0045                    0.0095                   4.640030974404201
0.0045                    0.0105                   4.642062370442243
0.0045                    0.0115                   4.64761530289637
0.0045                    0.0125                   4.655855275234535
0.0045                    0.0135                   4.664604962521434
0.0045                    0.0145                   4.670867185659425
0.0045                    0.0155                   4.6720500853667515
0.0045                    0.0165                   4.667857362983571
0.0045                    0.0175                   4.662069411716959
0.0045                    0.0185                   4.664108268868788
0.0045                    0.0195                   4.683762227445095
0.0045                    0.0205                   4.730289927183021
0.0045                    0.0215                   4.808312536482626
0.0045                    0.0225                   4.892338407069133
0.0045                    0.0235                   4.948886668203249
0.0045                    0.0245                   4.968717375296357
0.0045                    0.0255                   4.968787614827441
0.0045                    0.0265                   4.967083576512612
0.0045                    0.0275                   4.964688668979749
0.0045                    0.0285                   4.961916679468695
0.0045                    0.0295                   4.9583112181131455
0.0045                    0.0305                   4.953660794855166
0.0045                    0.0315                   4.949672364776006
0.0055                    -0.0315                  3.5702800227020663
0.0055                    -0.0305                  3.588619804674308
0.0055                    -0.0295                  3.6225167858657015
0.0055                    -0.0285                  3.667866042368111
0.0055                    -0.0275                  3.720717138948293
0.0055                    -0.0265                  3.777608212176661
0.0055                    -0.0255                  3.8357207217868856
0.0055                    -0.0245                  3.8930207033849014
0.0055                    -0.0235                  3.948345176502288
0.0055                    -0.0225                  4.001437770713037
0.0055                    -0.0215                  4.052800508462098
0.0055                    -0.0205                  4.103280277505467
0.0055                    -0.0195                  4.153589161911554
0.0055                    -0.0185                  4.204002533239953
0.0055                    -0.0175                  4.254286668017526
0.0055                    -0.0165                  4.303720229880785
0.0055                    -0.0155                  4.35101243405872
0.0055                    -0.0145                  4.3944202654291065
0.0055                    -0.0135                  4.432341794221584
0.0055                    -0.0125                  4.46432539683992
0.0055                    -0.0115                  4.491840246592343
0.0055                    -0.0105                  4.517453550345214
0.0055                    -0.0095                  4.542663004715065
0.0055                    -0.0085                  4.565606407251808
0.0055                    -0.0075                  4.581392257577598
0.0055                    -0.0065                  4.586287857349652
0.0055                    -0.0055                  4.582629061726879
0.0055                    -0.0045                  4.577647413598635
0.0055                    -0.0035                  4.577329716272935
0.0055                    -0.0025                  4.583104739941194
0.0055                    -0.0015                  4.593090190599863
0.0055                    -5.0E-4                  4.604962204728968
0.0055                    5.0E-4                   4.617030160824639
0.0055                    0.0015                   4.6281196533834565
0.0055                    0.0025                   4.637417404349631
0.0055                    0.0035                   4.644250279706698
0.0055                    0.0045                   4.647916829903811
0.0055                    0.0055                   4.647887735337218
0.0055                    0.0065                   4.644402820577822
0.0055                    0.0075                   4.6388924395437705
0.0055                    0.0085                   4.633591492783588
0.0055                    0.0095                   4.630528529149485
0.0055                    0.0105                   4.630887733101062
0.0055                    0.0115                   4.635388560821962
0.0055                    0.0125                   4.644468613132137
0.0055                    0.0135                   4.658665477758007
0.0055                    0.0145                   4.67840713041732
0.0055                    0.0155                   4.703078809954691
0.0055                    0.0165                   4.73109465651395
0.0055                    0.0175                   4.762932233321435
0.0055                    0.0185                   4.802631142460777
0.0055                    0.0195                   4.850895770199727
0.0055                    0.0205                   4.9023975317246276
0.0055                    0.0215                   4.944669101723786
0.0055                    0.0225                   4.96756777741359
0.0055                    0.0235                   4.976243381210942
0.0055                    0.0245                   4.976667950338715
0.0055                    0.0255                   4.97442480633627
0.0055                    0.0265                   4.972990345468853
0.0055                    0.0275                   4.970364336102693
0.0055                    0.0285                   4.9666188756727365
0.0055                    0.0295                   4.960821313591488
0.0055                    0.0305                   4.953227554699875
0.0055                    0.0315                   4.946995105513843
0.0065                    -0.0315                  3.5270890252495817
0.0065                    -0.0305                  3.543997800296783
0.0065                    -0.0295                  3.575929060891201
0.0065                    -0.0285                  3.619856001282959
0.0065                    -0.0275                  3.6726908420757334
0.0065                    -0.0265                  3.731407623315955
0.0065                    -0.0255                  3.7930435885970355
0.0065                    -0.0245                  3.854868400865306
0.0065                    -0.0235                  3.914691987015674
0.0065                    -0.0225                  3.9712891276446314
0.0065                    -0.0215                  4.024739550759642
0.0065                    -0.0205                  4.076261086349841
0.0065                    -0.0195                  4.1274169844095585
0.0065                    -0.0185                  4.179234075293641
0.0065                    -0.0175                  4.231662882491367
0.0065                    -0.0165                  4.2834933206151256
0.0065                    -0.0155                  4.332596961935853
0.0065                    -0.0145                  4.376128351038886
0.0065                    -0.0135                  4.411820019015334
0.0065                    -0.0125                  4.439933301773468
0.0065                    -0.0115                  4.463301090624713
0.0065                    -0.0105                  4.485399635374673
0.0065                    -0.0095                  4.507641308751886
0.0065                    -0.0085                  4.528616433897661
0.0065                    -0.0075                  4.5439731677272865
0.0065                    -0.0065                  4.55034557015853
0.0065                    -0.0055                  4.551223764537905
0.0065                    -0.0045                  4.553512015896971
0.0065                    -0.0035                  4.5606315386523395
0.0065                    -0.0025                  4.571937539875483
0.0065                    -0.0015                  4.585530155363282
0.0065                    -5.0E-4                  4.5995770160583
0.0065                    5.0E-4                   4.612637541460995
0.0065                    0.0015                   4.62378713128515
0.0065                    0.0025                   4.63252987070858
0.0065                    0.0035                   4.638488702554413
0.0065                    0.0045                   4.641171925501581
0.0065                    0.0055                   4.640178515696817
0.0065                    0.0065                   4.636108211878832
0.0065                    0.0075                   4.631043974585647
0.0065                    0.0085                   4.62725381064031
0.0065                    0.0095                   4.625946902297258
0.0065                    0.0105                   4.627712106961513
0.0065                    0.0115                   4.6333346191952804
0.0065                    0.0125                   4.644191569294481