% Model:              Benchmark260518.mph
% Version:            COMSOL 6.2.0.339
% Date:               May 21 2026, 07:15
% Dimension:          2
% Nodes:              4096
% Expressions:        1
% Description:        压力
% Length unit:        m
% x                       y                        p (Pa)
5.0E-4                    -0.0315                  3.720797122051958
5.0E-4                    -0.0305                  3.761640560996932
5.0E-4                    -0.0295                  3.817538231143122
5.0E-4                    -0.0285                  3.8786720879975727
5.0E-4                    -0.0275                  3.9431523945954323
5.0E-4                    -0.0265                  4.010196801446137
5.0E-4                    -0.0255                  4.079094197457285
5.0E-4                    -0.0245                  4.149251017006684
5.0E-4                    -0.0235                  4.220185104289673
5.0E-4                    -0.0225                  4.291566069862141
5.0E-4                    -0.0215                  4.36308648896235
5.0E-4                    -0.0205                  4.434333605415044
5.0E-4                    -0.0195                  4.504739809712676
5.0E-4                    -0.0185                  4.573495743613242
5.0E-4                    -0.0175                  4.6397404721995965
5.0E-4                    -0.0165                  4.701583821719577
5.0E-4                    -0.0155                  4.754314091135366
5.0E-4                    -0.0145                  4.792253266879872
5.0E-4                    -0.0135                  4.812724563460934
5.0E-4                    -0.0125                  4.819642385199572
5.0E-4                    -0.0115                  4.819737975113579
5.0E-4                    -0.0105                  4.816238602480741
5.0E-4                    -0.0095                  4.809993799866818
5.0E-4                    -0.0085                  4.81516441802686
5.0E-4                    -0.0075                  4.852915220317325
5.0E-4                    -0.0065                  4.909731994827254
5.0E-4                    -0.0055                  4.9551345494921755
5.0E-4                    -0.0045                  4.98363980243464
5.0E-4                    -0.0035                  5.001253925859806
5.0E-4                    -0.0025                  5.011196384146574
5.0E-4                    -0.0015                  5.0158743138854245
5.0E-4                    -5.0E-4                  5.016870626558543
5.0E-4                    5.0E-4                   5.015190003419673
5.0E-4                    0.0015                   5.01136606154488
5.0E-4                    0.0025                   5.005453968137335
5.0E-4                    0.0035                   4.996878340964287
5.0E-4                    0.0045                   4.984004797962864
5.0E-4                    0.0055                   4.96349178877981
5.0E-4                    0.0065                   4.925228289222082
5.0E-4                    0.0075                   4.859546844351986
5.0E-4                    0.0085                   4.7954859221863195
5.0E-4                    0.0095                   4.776309674601178
5.0E-4                    0.0105                   4.786513551545084
5.0E-4                    0.0115                   4.794806801119595
5.0E-4                    0.0125                   4.798857571749279
5.0E-4                    0.0135                   4.800486092200364
5.0E-4                    0.0145                   4.801275652876951
5.0E-4                    0.0155                   4.802250780156106
5.0E-4                    0.0165                   4.803386024204332
5.0E-4                    0.0175                   4.803664532936869
5.0E-4                    0.0185                   4.801631687753723
5.0E-4                    0.0195                   4.79573670449
5.0E-4                    0.0205                   4.783761424211366
5.0E-4                    0.0215                   4.7633385407794915
5.0E-4                    0.0225                   4.735562047163205
5.0E-4                    0.0235                   4.703353338814556
5.0E-4                    0.0245                   4.6688644107167026
5.0E-4                    0.0255                   4.634094159996855
5.0E-4                    0.0265                   4.599830575670013
5.0E-4                    0.0275                   4.566130389048931
5.0E-4                    0.0285                   4.533206972172626
5.0E-4                    0.0295                   4.501530529333261
5.0E-4                    0.0305                   4.472291513643547
5.0E-4                    0.0315                   4.45079669152525
0.0015                    -0.0315                  3.6792924467200057
0.0015                    -0.0305                  3.719148828206157
0.0015                    -0.0295                  3.7775113599963768
0.0015                    -0.0285                  3.8419525287020244
0.0015                    -0.0275                  3.909686756320113
0.0015                    -0.0265                  3.9804219303896993
0.0015                    -0.0255                  4.053859800157635
0.0015                    -0.0245                  4.12932253225461
0.0015                    -0.0235                  4.205987746444205
0.0015                    -0.0225                  4.2832355004751586
0.0015                    -0.0215                  4.3606954981488535
0.0015                    -0.0205                  4.43801430033132
0.0015                    -0.0195                  4.5145863263317505
0.0015                    -0.0185                  4.589365842767714
0.0015                    -0.0175                  4.660384604351819
0.0015                    -0.0165                  4.723691399422972
0.0015                    -0.0155                  4.773651711201406
0.0015                    -0.0145                  4.805497966386406
0.0015                    -0.0135                  4.819767346121258
0.0015                    -0.0125                  4.823178569056328
0.0015                    -0.0115                  4.821755204870233
0.0015                    -0.0105                  4.818086924131098
0.0015                    -0.0095                  4.81482902173156
0.0015                    -0.0085                  4.815924447735771
0.0015                    -0.0075                  4.848523391084037
0.0015                    -0.0065                  4.904790161236798
0.0015                    -0.0055                  4.947847364458386
0.0015                    -0.0045                  4.976299947432439
0.0015                    -0.0035                  4.9950083100736755
0.0015                    -0.0025                  5.007003007445023
0.0015                    -0.0015                  5.013645192581304
0.0015                    -5.0E-4                  5.015678645752741
0.0015                    5.0E-4                   5.013790842305278
0.0015                    0.0015                   5.0086933036421
0.0015                    0.0025                   5.000945222343946
0.0015                    0.0035                   4.990707849313905
0.0015                    0.0045                   4.977248481777271
0.0015                    0.0055                   4.9579151690421295
0.0015                    0.0065                   4.925527580726966
0.0015                    0.0075                   4.867621124790648
0.0015                    0.0085                   4.815592603758702
0.0015                    0.0095                   4.797813739821425
0.0015                    0.0105                   4.7959151940240305
0.0015                    0.0115                   4.797648558797039
0.0015                    0.0125                   4.798417025355391
0.0015                    0.0135                   4.798363246475542
0.0015                    0.0145                   4.798704621780191
0.0015                    0.0155                   4.8002413817171465
0.0015                    0.0165                   4.802446325429361
0.0015                    0.0175                   4.803390311939223
0.0015                    0.0185                   4.80084994762818
0.0015                    0.0195                   4.793555863675892
0.0015                    0.0205                   4.78055606575972
0.0015                    0.0215                   4.759991565370418
0.0015                    0.0225                   4.7324458887058745
0.0015                    0.0235                   4.700229773663584
0.0015                    0.0245                   4.665041867259851
0.0015                    0.0255                   4.628686700143335
0.0015                    0.0265                   4.592056070176222
0.0015                    0.0275                   4.5554985050739525
0.0015                    0.0285                   4.5192505274910815
0.0015                    0.0295                   4.483888357914415
0.0015                    0.0305                   4.451540098681765
0.0015                    0.0315                   4.429387889731007
0.0025                    -0.0315                  3.622699287350992
0.0025                    -0.0305                  3.656830170637771
0.0025                    -0.0295                  3.712402534665622
0.0025                    -0.0285                  3.777775324018085
0.0025                    -0.0275                  3.8484763511335087
0.0025                    -0.0265                  3.924053367492819
0.0025                    -0.0255                  4.0046782395259815
0.0025                    -0.0245                  4.089661693069276
0.0025                    -0.0235                  4.177378472497287
0.0025                    -0.0225                  4.2660562859658935
0.0025                    -0.0215                  4.354565311956609
0.0025                    -0.0205                  4.44227892125485
0.0025                    -0.0195                  4.528401807911785
0.0025                    -0.0185                  4.611133839933531
0.0025                    -0.0175                  4.686679662136396
0.0025                    -0.0165                  4.749156066304359
0.0025                    -0.0155                  4.793120012620875
0.0025                    -0.0145                  4.8170763506456815
0.0025                    -0.0135                  4.826307457541374
0.0025                    -0.0125                  4.828313084157809
0.0025                    -0.0115                  4.826676173789767
0.0025                    -0.0105                  4.823606108047615
0.0025                    -0.0095                  4.8227671220267565
0.0025                    -0.0085                  4.833449394225491
0.0025                    -0.0075                  4.864404655254068
0.0025                    -0.0065                  4.90457709834263
0.0025                    -0.0055                  4.938575024577994
0.0025                    -0.0045                  4.964310188038939
0.0025                    -0.0035                  4.983630898859717
0.0025                    -0.0025                  4.998113228846225
0.0025                    -0.0015                  5.007646777544202
0.0025                    -5.0E-4                  5.011609412186194
0.0025                    5.0E-4                   5.010011339238341
0.0025                    0.0015                   5.0037307784239475
0.0025                    0.0025                   4.99410409070759
0.0025                    0.0035                   4.982277764909111
0.0025                    0.0045                   4.968623274479691
0.0025                    0.0055                   4.952378005704718
0.0025                    0.0065                   4.931066427745401
0.0025                    0.0075                   4.900725914197407
0.0025                    0.0085                   4.864936427139506
0.0025                    0.0095                   4.835830592710024
0.0025                    0.0105                   4.817654276185815
0.0025                    0.0115                   4.805711077253964
0.0025                    0.0125                   4.796654349964645
0.0025                    0.0135                   4.790174053693014
0.0025                    0.0145                   4.787280373038966
0.0025                    0.0155                   4.788404390507072
0.0025                    0.0165                   4.7923422401870965
0.0025                    0.0175                   4.795598810588011
0.0025                    0.0185                   4.793399317638712
0.0025                    0.0195                   4.7836114151592914
0.0025                    0.0205                   4.767737577108641
0.0025                    0.0215                   4.746926730387202
0.0025                    0.0225                   4.720930781743454
0.0025                    0.0235                   4.690048690783879
0.0025                    0.0245                   4.6550239066236925
0.0025                    0.0255                   4.616922105543509
0.0025                    0.0265                   4.577023314576041
0.0025                    0.0275                   4.536192580217023
0.0025                    0.0285                   4.495199055587286
0.0025                    0.0295                   4.4555916440143974
0.0025                    0.0305                   4.421273467600947
0.0025                    0.0315                   4.399949810608187
0.0035                    -0.0315                  3.5617394327117218
0.0035                    -0.0305                  3.5893160891099205
0.0035                    -0.0295                  3.637880581085354
0.0035                    -0.0285                  3.6994491864149786
0.0035                    -0.0275                  3.769769713222903
0.0035                    -0.0265                  3.8483394892656917
0.0035                    -0.0255                  3.935939952141073
0.0035                    -0.0245                  4.032295160219591
0.0035                    -0.0235                  4.13499571946124
0.0035                    -0.0225                  4.239964542853517
0.0035                    -0.0215                  4.343431368146367
0.0035                    -0.0205                  4.4434499429140075
0.0035                    -0.0195                  4.5389686124673565
0.0035                    -0.0185                  4.627920896411841
0.0035                    -0.0175                  4.705681941894529
0.0035                    -0.0165                  4.765690800227152
0.0035                    -0.0155                  4.803609870194275
0.0035                    -0.0145                  4.822370345119612
0.0035                    -0.0135                  4.830414268314751
0.0035                    -0.0125                  4.833465363162168
0.0035                    -0.0115                  4.832791491805622
0.0035                    -0.0105                  4.83021009576254
0.0035                    -0.0095                  4.831226481374107
0.0035                    -0.0085                  4.843423540731727
0.0035                    -0.0075                  4.868333420751808
0.0035                    -0.0065                  4.897675206965381
0.0035                    -0.0055                  4.924315822262535
0.0035                    -0.0045                  4.947270692471511
0.0035                    -0.0035                  4.96703851441548
0.0035                    -0.0025                  4.983890886586394
0.0035                    -0.0015                  4.996643277766022
0.0035                    -5.0E-4                  5.003057470599464
0.0035                    5.0E-4                   5.00209024051372
0.0035                    0.0015                   4.994888507257709
0.0035                    0.0025                   4.983787527656282
0.0035                    0.0035                   4.970800844972786
0.0035                    0.0045                   4.957135071265866
0.0035                    0.0055                   4.943922126892214
0.0035                    0.0065                   4.931519635065592
0.0035                    0.0075                   4.916367434249001
0.0035                    0.0085                   4.894695973049857
0.0035                    0.0095                   4.867903611323603
0.0035                    0.0105                   4.839954584412473
0.0035                    0.0115                   4.814164727454569
0.0035                    0.0125                   4.792242331274355
0.0035                    0.0135                   4.775423849962789
0.0035                    0.0145                   4.765259837503183
0.0035                    0.0155                   4.762825578466664
0.0035                    0.0165                   4.766970480732883
0.0035                    0.0175                   4.772761042997534
0.0035                    0.0185                   4.772797606343378
0.0035                    0.0195                   4.762690189947313
0.0035                    0.0205                   4.745016858284583
0.0035                    0.0215                   4.724175528510978
0.0035                    0.0225                   4.700090678905896
0.0035                    0.0235                   4.671453622094974
0.0035                    0.0245                   4.637660354578342
0.0035                    0.0255                   4.598690755093525
0.0035                    0.0265                   4.555970149647914
0.0035                    0.0275                   4.511058890474821
0.0035                    0.0285                   4.4658006643356005
0.0035                    0.0295                   4.423140670236712
0.0035                    0.0305                   4.388067158079123
0.0035                    0.0315                   4.367521679228379
0.0045                    -0.0315                  3.4986953597274195
0.0045                    -0.0305                  3.521055933263541
0.0045                    -0.0295                  3.5622762097003364
0.0045                    -0.0285                  3.6174998709796995
0.0045                    -0.0275                  3.6840015105374038
0.0045                    -0.0265                  3.7620617651793515
0.0045                    -0.0255                  3.8536881472210034
0.0045                    -0.0245                  3.9600250407416584
0.0045                    -0.0235                  4.07884244772575
0.0045                    -0.0225                  4.2036454007319355
0.0045                    -0.0215                  4.3256929139594265
0.0045                    -0.0205                  4.438833223920467
0.0045                    -0.0195                  4.541663287169531
0.0045                    -0.0185                  4.6341617227729435
0.0045                    -0.0175                  4.712830925272878
0.0045                    -0.0165                  4.770937759197659
0.0045                    -0.0155                  4.8052079046929155
0.0045                    -0.0145                  4.8220708999102975
0.0045                    -0.0135                  4.83114984309567
0.0045                    -0.0125                  4.8356022276014885
0.0045                    -0.0115                  4.835097395912491
0.0045                    -0.0105                  4.832295816485825
0.0045                    -0.0095                  4.83342458379245
0.0045                    -0.0085                  4.843446018315613
0.0045                    -0.0075                  4.861866536890711
0.0045                    -0.0065                  4.883885015173927
0.0045                    -0.0055                  4.905967161857628
0.0045                    -0.0045                  4.927071059003085
0.0045                    -0.0035                  4.946758239298883
0.0045                    -0.0025                  4.964322162771909
0.0045                    -0.0015                  4.9774221423854295
0.0045                    -5.0E-4                  4.983229124349525
0.0045                    5.0E-4                   4.981469952421023
0.0045                    0.0015                   4.974363892181961
0.0045                    0.0025                   4.964196303000903
0.0045                    0.0035                   4.952079110901193
0.0045                    0.0045                   4.939685082507755
0.0045                    0.0055                   4.929877732162989
0.0045                    0.0065                   4.923500150474363
0.0045                    0.0075                   4.916709364503155
0.0045                    0.0085                   4.902986545862138
0.0045                    0.0095                   4.879448719098613
0.0045                    0.0105                   4.849121457351582
0.0045                    0.0115                   4.817051811956685
0.0045                    0.0125                   4.787062871955001
0.0045                    0.0135                   4.761658058744701
0.0045                    0.0145                   4.742821348469424
0.0045                    0.0155                   4.732564979607073
0.0045                    0.0165                   4.731732495056832
0.0045                    0.0175                   4.736765294612135
0.0045                    0.0185                   4.73899726189704
0.0045                    0.0195                   4.731324118069898
0.0045                    0.0205                   4.714891634749614
0.0045                    0.0215                   4.694725257434891
0.0045                    0.0225                   4.672280220748818
0.0045                    0.0235                   4.645862740361223
0.0045                    0.0245                   4.613681875534207
0.0045                    0.0255                   4.574879192626498
0.0045                    0.0265                   4.530355109178935
0.0045                    0.0275                   4.48241476280673
0.0045                    0.0285                   4.434025963292185
0.0045                    0.0295                   4.389244851834163
0.0045                    0.0305                   4.353472207704147
0.0045                    0.0315                   4.333091748566702
0.0055                    -0.0315                  3.43421188634663
0.0055                    -0.0305                  3.452964926553967
0.0055                    -0.0295                  3.488636150451838
0.0055                    -0.0285                  3.5382404413739805
0.0055                    -0.0275                  3.6000881588410887
0.0055                    -0.0265                  3.6749599533125314
0.0055                    -0.0255                  3.7661799789797876
0.0055                    -0.0245                  3.877516466709017
0.0055                    -0.0235                  4.009083181100662
0.0055                    -0.0225                  4.153581458966545
0.0055                    -0.0215                  4.296879318084072
0.0055                    -0.0205                  4.424569493940282
0.0055                    -0.0195                  4.534392943845534
0.0055                    -0.0185                  4.631222955050322
0.0055                    -0.0175                  4.711878302119908
0.0055                    -0.0165                  4.768776155316791
0.0055                    -0.0155                  4.8009364619839925
0.0055                    -0.0145                  4.8174990233744435
0.0055                    -0.0135                  4.827293681401933
0.0055                    -0.0125                  4.831466714191761
0.0055                    -0.0115                  4.829693450691005
0.0055                    -0.0105                  4.825783304668753
0.0055                    -0.0095                  4.8256756272263335
0.0055                    -0.0085                  4.83325683790307
0.0055                    -0.0075                  4.847910692969246
0.0055                    -0.0065                  4.866199628545292
0.0055                    -0.0055                  4.885595376596742
0.0055                    -0.0045                  4.904798451207633
0.0055                    -0.0035                  4.92232947336305
0.0055                    -0.0025                  4.935321823032869
0.0055                    -0.0015                  4.9406713898680925
0.0055                    -5.0E-4                  4.9381816144182835
0.0055                    5.0E-4                   4.931147651849079
0.0055                    0.0015                   4.923446665150665
0.0055                    0.0025                   4.916716533265719
0.0055                    0.0035                   4.910394699603602
0.0055                    0.0045                   4.9047285457271395
0.0055                    0.0055                   4.902096356812511
0.0055                    0.0065                   4.903224290491563
0.0055                    0.0075                   4.903190104785903
0.0055                    0.0085                   4.894667358932471
0.0055                    0.0095                   4.8749245772794385
0.0055                    0.0105                   4.846729156897963
0.0055                    0.0115                   4.814581555035005
0.0055                    0.0125                   4.782249805125609
0.0055                    0.0135                   4.752426962028576
0.0055                    0.0145                   4.727160489879823
0.0055                    0.0155                   4.708541488054802
0.0055                    0.0165                   4.699001349195349
0.0055                    0.0175                   4.69831152881917
0.0055                    0.0185                   4.699590349110148
0.0055                    0.0195                   4.694134995909534
0.0055                    0.0205                   4.680239068841878
0.0055                    0.0215                   4.6616311777457105
0.0055                    0.0225                   4.640831698758979
0.0055                    0.0235                   4.616229488337548
0.0055                    0.0245                   4.585368136061264
0.0055                    0.0255                   4.547107492002228
0.0055                    0.0265                   4.501652141858545
0.0055                    0.0275                   4.451560732921334
0.0055                    0.0285                   4.4007265851164235
0.0055                    0.0295                   4.3540828749831775
0.0055                    0.0305                   4.317371895905087
0.0055                    0.0315                   4.296743819416765
0.0065                    -0.0315                  3.3684356494342587
0.0065                    -0.0305                  3.384734656152186
0.0065                    -0.0295                  3.417319394444327
0.0065                    -0.0285                  3.464420706343231
0.0065                    -0.0275                  3.5241262814983783
0.0065                    -0.0265                  3.5963585995673224
0.0065                    -0.0255                  3.6839038189223805
0.0065                    -0.0245                  3.792859268619087
0.0065                    -0.0235                  3.928832561745698
0.0065                    -0.0225                  4.087262104625726
0.0065                    -0.0215                  4.250386663406533
0.0065                    -0.0205                  4.395534117424012
0.0065                    -0.0195                  4.518943701197457
0.0065                    -0.0185                  4.6269448565726785
0.0065                    -0.0175                  4.711938417738076
0.0065                    -0.0165                  4.76633860579689
0.0065                    -0.0155                  4.795213570535459
0.0065                    -0.0145                  4.81053372557709
0.0065                    -0.0135                  4.819039793247331
0.0065                    -0.0125                  4.820829414320236
0.0065                    -0.0115                  4.816693712565687
0.0065                    -0.0105                  4.811274108408124
0.0065                    -0.0095                  4.810635405715676
0.0065                    -0.0085                  4.817829782304998
0.0065                    -0.0075                  4.831015609530821
0.0065                    -0.0065                  4.8469392802005835
0.0065                    -0.0055                  4.863458680073183
0.0065                    -0.0045                  4.878173526641513
0.0065                    -0.0035                  4.886628568977449
0.0065                    -0.0025                  4.884262220554552
0.0065                    -0.0015                  4.870960386768807
0.0065                    -5.0E-4                  4.851918039508016
0.0065                    5.0E-4                   4.833970360906556
0.0065                    0.0015                   4.821826173968335
0.0065                    0.0025                   4.817047913734281
0.0065                    0.0035                   4.819111406209335
0.0065                    0.0045                   4.82693163826889
0.0065                    0.0055                   4.839127241423384
0.0065                    0.0065                   4.8545020579350275
0.0065                    0.0075                   4.867081112945503
0.0065                    0.0085                   4.868240697332483
0.0065                    0.0095                   4.85612851021369
0.0065                    0.0105                   4.833823408017292
0.0065                    0.0115                   4.805151212576909
0.0065                    0.0125                   4.773459627584974