% Model:              Benchmark260518.mph
% Version:            COMSOL 6.2.0.339
% Date:               May 20 2026, 20:36
% Dimension:          2
% Nodes:              4096
% Expressions:        1
% Description:        压力
% Length unit:        m
% x                       y                        p (Pa)
5.0E-4                    -0.0315                  3.897336843314228
5.0E-4                    -0.0305                  3.9297809880714123
5.0E-4                    -0.0295                  3.9739576557803415
5.0E-4                    -0.0285                  4.021800817809965
5.0E-4                    -0.0275                  4.071584145319545
5.0E-4                    -0.0265                  4.122688930792598
5.0E-4                    -0.0255                  4.174724364319335
5.0E-4                    -0.0245                  4.227485579560344
5.0E-4                    -0.0235                  4.280828237786117
5.0E-4                    -0.0225                  4.334635794535206
5.0E-4                    -0.0215                  4.388758950020578
5.0E-4                    -0.0205                  4.443032671238909
5.0E-4                    -0.0195                  4.497306815885127
5.0E-4                    -0.0185                  4.551542603415235
5.0E-4                    -0.0175                  4.604897180598448
5.0E-4                    -0.0165                  4.654158138100953
5.0E-4                    -0.0155                  4.695046270253098
5.0E-4                    -0.0145                  4.722886859294224
5.0E-4                    -0.0135                  4.7369942754332
5.0E-4                    -0.0125                  4.742074795317443
5.0E-4                    -0.0115                  4.741909339798491
5.0E-4                    -0.0105                  4.738207008847743
5.0E-4                    -0.0095                  4.731529660077739
5.0E-4                    -0.0085                  4.722299955587183
5.0E-4                    -0.0075                  4.712748766425241
5.0E-4                    -0.0065                  4.706956129807131
5.0E-4                    -0.0055                  4.708664569542226
5.0E-4                    -0.0045                  4.718395839519225
5.0E-4                    -0.0035                  4.73173444703505
5.0E-4                    -0.0025                  4.740424266152668
5.0E-4                    -0.0015                  4.73639589600759
5.0E-4                    -5.0E-4                  4.716710792744906
5.0E-4                    5.0E-4                   4.68548362292043
5.0E-4                    0.0015                   4.651531376547824
5.0E-4                    0.0025                   4.623993900678001
5.0E-4                    0.0035                   4.605797476696623
5.0E-4                    0.0045                   4.5901390832454165
5.0E-4                    0.0055                   4.568616865654272
5.0E-4                    0.0065                   4.544982145851324
5.0E-4                    0.0075                   4.529393838324646
5.0E-4                    0.0085                   4.522411338357265
5.0E-4                    0.0095                   4.51883271832638
5.0E-4                    0.0105                   4.517150448167491
5.0E-4                    0.0115                   4.5294667475663495
5.0E-4                    0.0125                   4.604646521402977
5.0E-4                    0.0135                   4.756798235453884
5.0E-4                    0.0145                   4.901187836340663
5.0E-4                    0.0155                   4.982231482717516
5.0E-4                    0.0165                   5.01583635047424
5.0E-4                    0.0175                   5.024311171825409
5.0E-4                    0.0185                   5.024427186368974
5.0E-4                    0.0195                   5.020764831644061
5.0E-4                    0.0205                   5.0103634472450205
5.0E-4                    0.0215                   4.987666551983089
5.0E-4                    0.0225                   4.946545317111374
5.0E-4                    0.0235                   4.886848315373261
5.0E-4                    0.0245                   4.814894840381137
5.0E-4                    0.0255                   4.737396489542977
5.0E-4                    0.0265                   4.660072602124504
5.0E-4                    0.0275                   4.58492173065466
5.0E-4                    0.0285                   4.512381664444453
5.0E-4                    0.0295                   4.443112118421733
5.0E-4                    0.0305                   4.379365375634542
5.0E-4                    0.0315                   4.332629769014773
0.0015                    -0.0315                  3.8649325658321847
0.0015                    -0.0305                  3.898033450871227
0.0015                    -0.0295                  3.946322393354977
0.0015                    -0.0285                  3.9989277891106934
0.0015                    -0.0275                  4.052700503166721
0.0015                    -0.0265                  4.106886822893569
0.0015                    -0.0255                  4.161307988639237
0.0015                    -0.0245                  4.215977019820131
0.0015                    -0.0235                  4.270979242756988
0.0015                    -0.0225                  4.326386304592582
0.0015                    -0.0215                  4.382219503659702
0.0015                    -0.0205                  4.438449280930744
0.0015                    -0.0195                  4.495028614746056
0.0015                    -0.0185                  4.551634130985385
0.0015                    -0.0175                  4.606763908240854
0.0015                    -0.0165                  4.656846269334332
0.0015                    -0.0155                  4.697715061139751
0.0015                    -0.0145                  4.724736721370123
0.0015                    -0.0135                  4.738269310742557
0.0015                    -0.0125                  4.743722937371484
0.0015                    -0.0115                  4.743907913629296
0.0015                    -0.0105                  4.739823525708706
0.0015                    -0.0095                  4.7313678044095635
0.0015                    -0.0085                  4.718491631908536
0.0015                    -0.0075                  4.703910880198902
0.0015                    -0.0065                  4.6927438833034145
0.0015                    -0.0055                  4.689750526673531
0.0015                    -0.0045                  4.696334948922961
0.0015                    -0.0035                  4.708842574902951
0.0015                    -0.0025                  4.719336283321887
0.0015                    -0.0015                  4.71898563188306
0.0015                    -5.0E-4                  4.70320754450951
0.0015                    5.0E-4                   4.674737183025388
0.0015                    0.0015                   4.642262781850341
0.0015                    0.0025                   4.61587691121567
0.0015                    0.0035                   4.599057727996444
0.0015                    0.0045                   4.584446520280649
0.0015                    0.0055                   4.564517293583912
0.0015                    0.0065                   4.543589070567359
0.0015                    0.0075                   4.529725159242002
0.0015                    0.0085                   4.523064463068364
0.0015                    0.0095                   4.518732166945863
0.0015                    0.0105                   4.516484205018529
0.0015                    0.0115                   4.516043210993784
0.0015                    0.0125                   4.604455019202925
0.0015                    0.0135                   4.784030280003966
0.0015                    0.0145                   4.928880032053343
0.0015                    0.0155                   5.003123614476852
0.0015                    0.0165                   5.0258959789539785
0.0015                    0.0175                   5.02690172407787
0.0015                    0.0185                   5.02357085358239
0.0015                    0.0195                   5.019170909641648
0.0015                    0.0205                   5.0102079441678855
0.0015                    0.0215                   4.989682275868443
0.0015                    0.0225                   4.947807187317398
0.0015                    0.0235                   4.883221162922363
0.0015                    0.0245                   4.804188572829071
0.0015                    0.0255                   4.7198772492415175
0.0015                    0.0265                   4.636806729212721
0.0015                    0.0275                   4.556525127637283
0.0015                    0.0285                   4.478508798662716
0.0015                    0.0295                   4.402821674426619
0.0015                    0.0305                   4.333401944472118
0.0015                    0.0315                   4.285863686620477
0.0025                    -0.0315                  3.8204035901375772
0.0025                    -0.0305                  3.851550651802979
0.0025                    -0.0295                  3.9016892520276536
0.0025                    -0.0285                  3.9593249745306345
0.0025                    -0.0275                  4.018714863144809
0.0025                    -0.0265                  4.077847645415273
0.0025                    -0.0255                  4.13629752882651
0.0025                    -0.0245                  4.194238279521094
0.0025                    -0.0235                  4.25204912884937
0.0025                    -0.0225                  4.310106921610021
0.0025                    -0.0215                  4.368668067287644
0.0025                    -0.0205                  4.4278058493395855
0.0025                    -0.0195                  4.487245426809323
0.0025                    -0.0185                  4.545960836807531
0.0025                    -0.0175                  4.6017038301600195
0.0025                    -0.0165                  4.650883125006198
0.0025                    -0.0155                  4.690443631151263
0.0025                    -0.0145                  4.718023388890876
0.0025                    -0.0135                  4.734931530684952
0.0025                    -0.0125                  4.743803072861361
0.0025                    -0.0115                  4.743665305669288
0.0025                    -0.0105                  4.733430090868386
0.0025                    -0.0095                  4.713725188224165
0.0025                    -0.0085                  4.688059075482746
0.0025                    -0.0075                  4.662314101472761
0.0025                    -0.0065                  4.642619823916389
0.0025                    -0.0055                  4.633482050291397
0.0025                    -0.0045                  4.636171229068543
0.0025                    -0.0035                  4.647972834733733
0.0025                    -0.0025                  4.6624918048389725
0.0025                    -0.0015                  4.671356954643683
0.0025                    -5.0E-4                  4.668043270614016
0.0025                    5.0E-4                   4.651812092566793
0.0025                    0.0015                   4.628283623376645
0.0025                    0.0025                   4.606245604748911
0.0025                    0.0035                   4.590235682509815
0.0025                    0.0045                   4.5762577659853925
0.0025                    0.0055                   4.559884257018681
0.0025                    0.0065                   4.54352742630123
0.0025                    0.0075                   4.531394997469706
0.0025                    0.0085                   4.5240636666665806
0.0025                    0.0095                   4.520128672657387
0.0025                    0.0105                   4.521400360804994
0.0025                    0.0115                   4.558568793307033
0.0025                    0.0125                   4.6901773767126596
0.0025                    0.0135                   4.863516298421651
0.0025                    0.0145                   4.983852954090751
0.0025                    0.0155                   5.038305945728396
0.0025                    0.0165                   5.044578190754068
0.0025                    0.0175                   5.034296956389386
0.0025                    0.0185                   5.024587479407037
0.0025                    0.0195                   5.017006133466255
0.0025                    0.0205                   5.004670619795974
0.0025                    0.0215                   4.978874152107811
0.0025                    0.0225                   4.929745387551167
0.0025                    0.0235                   4.856882913226018
0.0025                    0.0245                   4.770478523835488
0.0025                    0.0255                   4.680211284488641
0.0025                    0.0265                   4.59150982657266
0.0025                    0.0275                   4.504969084955535
0.0025                    0.0285                   4.419845514824969
0.0025                    0.0295                   4.337657187477436
0.0025                    0.0305                   4.266088365792194
0.0025                    0.0315                   4.221800347502038
0.0035                    -0.0315                  3.771566502077433
0.0035                    -0.0305                  3.800458750175526
0.0035                    -0.0295                  3.8501183937181005
0.0035                    -0.0285                  3.910690055499587
0.0035                    -0.0275                  3.975111167758637
0.0035                    -0.0265                  4.039633883891198
0.0035                    -0.0255                  4.10287159842229
0.0035                    -0.0245                  4.164762795084861
0.0035                    -0.0235                  4.22585517118017
0.0035                    -0.0225                  4.286830427734946
0.0035                    -0.0215                  4.348171248681388
0.0035                    -0.0205                  4.40988886513985
0.0035                    -0.0195                  4.47123029017272
0.0035                    -0.0185                  4.5303423813396995
0.0035                    -0.0175                  4.584288475685496
0.0035                    -0.0165                  4.630603707087074
0.0035                    -0.0155                  4.668290956858682
0.0035                    -0.0145                  4.698072130509429
0.0035                    -0.0135                  4.720881715888944
0.0035                    -0.0125                  4.732712426193002
0.0035                    -0.0115                  4.726545561431887
0.0035                    -0.0105                  4.7013083718449575
0.0035                    -0.0095                  4.663185924699835
0.0035                    -0.0085                  4.621098743204592
0.0035                    -0.0075                  4.583158929184345
0.0035                    -0.0065                  4.555184480826551
0.0035                    -0.0055                  4.540705002297346
0.0035                    -0.0045                  4.5404304603990955
0.0035                    -0.0035                  4.552211530878629
0.0035                    -0.0025                  4.571933580376369
0.0035                    -0.0015                  4.593828920135924
0.0035                    -5.0E-4                  4.610519729537157
0.0035                    5.0E-4                   4.616485587127915
0.0035                    0.0015                   4.611569125273064
0.0035                    0.0025                   4.600121529923951
0.0035                    0.0035                   4.586447015985868
0.0035                    0.0045                   4.571690769273203
0.0035                    0.0055                   4.556328867035103
0.0035                    0.0065                   4.542410338368796
0.0035                    0.0075                   4.532000946546194
0.0035                    0.0085                   4.526128624986263
0.0035                    0.0095                   4.529209404733854
0.0035                    0.0105                   4.556265103821331
0.0035                    0.0115                   4.647032477279118
0.0035                    0.0125                   4.806871960219018
0.0035                    0.0135                   4.961870060428039
0.0035                    0.0145                   5.0554784456817075
0.0035                    0.0155                   5.08509967075686
0.0035                    0.0165                   5.072663516650445
0.0035                    0.0175                   5.04760114731471
0.0035                    0.0185                   5.026320469835582
0.0035                    0.0195                   5.009568774219455
0.0035                    0.0205                   4.985526898641487
0.0035                    0.0215                   4.94263735354544
0.0035                    0.0225                   4.877239147243854
0.0035                    0.0235                   4.795875777074487
0.0035                    0.0245                   4.707888053517628
0.0035                    0.0255                   4.6183686966650015
0.0035                    0.0265                   4.528590939424538
0.0035                    0.0275                   4.4381012472336545
0.0035                    0.0285                   4.347841113760415
0.0035                    0.0295                   4.262573531131455
0.0035                    0.0305                   4.192460523868494
0.0035                    0.0315                   4.151909474002341
0.0045                    -0.0315                  3.7200653996769164
0.0045                    -0.0305                  3.747311358383721
0.0045                    -0.0295                  3.795970494859122
0.0045                    -0.0285                  3.8579207930410684
0.0045                    -0.0275                  3.926144247985132
0.0045                    -0.0265                  3.995720700371378
0.0045                    -0.0255                  4.063970109026452
0.0045                    -0.0245                  4.130072485617251
0.0045                    -0.0235                  4.19441774131171
0.0045                    -0.0225                  4.257894426274245
0.0045                    -0.0215                  4.321219694099149
0.0045                    -0.0205                  4.384366146627932
0.0045                    -0.0195                  4.446103510238957
0.0045                    -0.0185                  4.503901849270262
0.0045                    -0.0175                  4.554655562898161
0.0045                    -0.0165                  4.597545988576748
0.0045                    -0.0155                  4.633270876954205
0.0045                    -0.0145                  4.664362366358358
0.0045                    -0.0135                  4.689817354453523
0.0045                    -0.0125                  4.698287286399403
0.0045                    -0.0115                  4.679682790757862
0.0045                    -0.0105                  4.63732448807162
0.0045                    -0.0095                  4.583350987316493
0.0045                    -0.0085                  4.5297075940537095
0.0045                    -0.0075                  4.485569686094657
0.0045                    -0.0065                  4.4564048660347355
0.0045                    -0.0055                  4.4432263503177625
0.0045                    -0.0045                  4.44397987472891
0.0045                    -0.0035                  4.456302524684531
0.0045                    -0.0025                  4.478448720197473
0.0045                    -0.0015                  4.50861251179546
0.0045                    -5.0E-4                  4.542912554808581
0.0045                    5.0E-4                   4.575232937784929
0.0045                    0.0015                   4.598458741585235
0.0045                    0.0025                   4.607293012018104
0.0045                    0.0035                   4.601802894757253
0.0045                    0.0045                   4.586907917554769
0.0045                    0.0055                   4.569279796859059
0.0045                    0.0065                   4.555057567844291
0.0045                    0.0075                   4.54874495978723
0.0045                    0.0085                   4.5546437560173025
0.0045                    0.0095                   4.583246483246441
0.0045                    0.0105                   4.656632406470464
0.0045                    0.0115                   4.788215740149242
0.0045                    0.0125                   4.943163808096689
0.0045                    0.0135                   5.066210735132323
0.0045                    0.0145                   5.129747665092504
0.0045                    0.0155                   5.135745326418402
0.0045                    0.0165                   5.106422034424931
0.0045                    0.0175                   5.06337195990854
0.0045                    0.0185                   5.021773684545872
0.0045                    0.0195                   4.984567884246184
0.0045                    0.0205                   4.936890346524769
0.0045                    0.0215                   4.867029750001572
0.0045                    0.0225                   4.784547755967139
0.0045                    0.0235                   4.702095999544834
0.0045                    0.0245                   4.621366884831429
0.0045                    0.0255                   4.539748718431951
0.0045                    0.0265                   4.453347556465471
0.0045                    0.0275                   4.361856075470069
0.0045                    0.0285                   4.269366827416821
0.0045                    0.0295                   4.183782923059453
0.0045                    0.0305                   4.116063873356518
0.0045                    0.0315                   4.0783083963493265
0.0055                    -0.0315                  3.666383865474055
0.0055                    -0.0305                  3.6923545981204424
0.0055                    -0.0295                  3.7399810353867275
0.0055                    -0.0285                  3.8026086932366887
0.0055                    -0.0275                  3.873798710521081
0.0055                    -0.0265                  3.9481180531155355
0.0055                    -0.0255                  4.021634255590509
0.0055                    -0.0245                  4.092284607966103
0.0055                    -0.0235                  4.1597677531545045
0.0055                    -0.0225                  4.224962644551965
0.0055                    -0.0215                  4.288962692492314
0.0055                    -0.0205                  4.352058373681746
0.0055                    -0.0195                  4.412922842639721
0.0055                    -0.0185                  4.468488552016998
0.0055                    -0.0175                  4.51613120444012
0.0055                    -0.0165                  4.555613025384599
0.0055                    -0.0155                  4.589111404991505
0.0055                    -0.0145                  4.619051466304498
0.0055                    -0.0135                  4.6405314586478985
0.0055                    -0.0125                  4.639245872224258
0.0055                    -0.0115                  4.607563576344119
0.0055                    -0.0105                  4.553440070938095
0.0055                    -0.0095                  4.491999973765108
0.0055                    -0.0085                  4.4385103231647784
0.0055                    -0.0075                  4.402397474948489
0.0055                    -0.0065                  4.384554583108109
0.0055                    -0.0055                  4.380591100729571
0.0055                    -0.0045                  4.385893246379389
0.0055                    -0.0035                  4.398688773307175
0.0055                    -0.0025                  4.41945446582388
0.0055                    -0.0015                  4.44993717102501
0.0055                    -5.0E-4                  4.491811005672486
0.0055                    5.0E-4                   4.544326697592115
0.0055                    0.0015                   4.599460646233707
0.0055                    0.0025                   4.643060900379668
0.0055                    0.0035                   4.663563039041553
0.0055                    0.0045                   4.660496371206788
0.0055                    0.0055                   4.645080464523958
0.0055                    0.0065                   4.631853256757858
0.0055                    0.0075                   4.632759408839809
0.0055                    0.0085                   4.657432031720106
0.0055                    0.0095                   4.71629553107335
0.0055                    0.0105                   4.816749553738267
0.0055                    0.0115                   4.945780428251153
0.0055                    0.0125                   5.06923393329743
0.0055                    0.0135                   5.155542983153223
0.0055                    0.0145                   5.189583253524864
0.0055                    0.0155                   5.177141694805978
0.0055                    0.0165                   5.133304971891681
0.0055                    0.0175                   5.067540785379686
0.0055                    0.0185                   4.992724146801
0.0055                    0.0195                   4.920761474024145
0.0055                    0.0205                   4.842782720270705
0.0055                    0.0215                   4.75099876685615
0.0055                    0.0225                   4.663336992433056
0.0055                    0.0235                   4.590308360081458
0.0055                    0.0245                   4.523027512510497
0.0055                    0.0255                   4.45156334938976
0.0055                    0.0265                   4.369608613600172
0.0055                    0.0275                   4.278676718319229
0.0055                    0.0285                   4.186099215967711
0.0055                    0.0295                   4.101917831679806
0.0055                    0.0305                   4.036988377414583
0.0055                    0.0315                   4.00160744556931
0.0065                    -0.0315                  3.610848984490833
0.0065                    -0.0305                  3.6353985871009304
0.0065                    -0.0295                  3.681572123550342
0.0065                    -0.0285                  3.7442240624946805
0.0065                    -0.0275                  3.817834465958499
0.0065                    -0.0265                  3.89694152340893
0.0065                    -0.0255                  3.9765054348676934
0.0065                    -0.0245                  4.052728408871371
0.0065                    -0.0235                  4.123871570237415
0.0065                    -0.0225                  4.190311963932842
0.0065                    -0.0215                  4.253736019709687
0.0065                    -0.0205                  4.315433803978786
0.0065                    -0.0195                  4.3746579837857205
0.0065                    -0.0185                  4.428317371824708
0.0065                    -0.0175                  4.473680162223131
0.0065                    -0.0165                  4.509816019443008
0.0065                    -0.0155                  4.540006500364876
0.0065                    -0.0145                  4.566090350896214
0.0065                    -0.0135                  4.5795016142510425
0.0065                    -0.0125                  4.567544308664958
0.0065                    -0.0115                  4.52687342878434
0.0065                    -0.0105                  4.469024036388861
0.0065                    -0.0095                  4.413191986652125
0.0065                    -0.0085                  4.374796871557059
0.0065                    -0.0075                  4.357178488085435
0.0065                    -0.0065                  4.354008075537435
0.0065                    -0.0055                  4.358515900555024
0.0065                    -0.0045                  4.3677841775533235
0.0065                    -0.0035                  4.381802047797953
0.0065                    -0.0025                  4.4024598182569825
0.0065                    -0.0015                  4.433124876365236
0.0065                    -5.0E-4                  4.478154359833583
0.0065                    5.0E-4                   4.54226722075032
0.0065                    0.0015                   4.625283529938841
0.0065                    0.0025                   4.711958278924486
0.0065                    0.0035                   4.7752064134399745
0.0065                    0.0045                   4.801141090631168
0.0065                    0.0055                   4.799607990299206
0.0065                    0.0065                   4.791954569741897
0.0065                    0.0075                   4.798006714582625
0.0065                    0.0085                   4.830264265876499
0.0065                    0.0095                   4.893234118140422
0.0065                    0.0105                   4.981803619812142
0.0065                    0.0115                   5.079100126183924
0.0065                    0.0125                   5.161778083006531
0.0065                    0.0135                   5.211198957255138