% Model:              Benchmark260518.mph
% Version:            COMSOL 6.2.0.339
% Date:               May 19 2026, 20:15
% Dimension:          2
% Nodes:              4096
% Expressions:        1
% Description:        压力
% Length unit:        m
% x                       y                        p (Pa)
5.0E-4                    -0.0315                  3.096293762371048
5.0E-4                    -0.0305                  3.118765928540899
5.0E-4                    -0.0295                  3.149384396326965
5.0E-4                    -0.0285                  3.182692501542131
5.0E-4                    -0.0275                  3.2175288854562893
5.0E-4                    -0.0265                  3.253478874423058
5.0E-4                    -0.0255                  3.2902870915604283
5.0E-4                    -0.0245                  3.3278172570488342
5.0E-4                    -0.0235                  3.365978072513528
5.0E-4                    -0.0225                  3.404710975551284
5.0E-4                    -0.0215                  3.443977124507848
5.0E-4                    -0.0205                  3.4837580313842005
5.0E-4                    -0.0195                  3.5240529181879494
5.0E-4                    -0.0185                  3.5648811581701008
5.0E-4                    -0.0175                  3.6062752563257225
5.0E-4                    -0.0165                  3.648274244452455
5.0E-4                    -0.0155                  3.6909160103885683
5.0E-4                    -0.0145                  3.7342193456299864
5.0E-4                    -0.0135                  3.77816550043372
5.0E-4                    -0.0125                  3.822681117808127
5.0E-4                    -0.0115                  3.867619752400798
5.0E-4                    -0.0105                  3.9127524452830746
5.0E-4                    -0.0095                  3.957786708743673
5.0E-4                    -0.0085                  4.002402976155354
5.0E-4                    -0.0075                  4.046297602401826
5.0E-4                    -0.0065                  4.089214107064645
5.0E-4                    -0.0055                  4.130942523742361
5.0E-4                    -0.0045                  4.171392953937423
5.0E-4                    -0.0035                  4.210534047198725
5.0E-4                    -0.0025                  4.247683969028641
5.0E-4                    -0.0015                  4.2810258890278785
5.0E-4                    -5.0E-4                  4.308073580587914
5.0E-4                    5.0E-4                   4.326465173779966
5.0E-4                    0.0015                   4.335476634227128
5.0E-4                    0.0025                   4.337748691759334
5.0E-4                    0.0035                   4.3370062746031905
5.0E-4                    0.0045                   4.33480602932987
5.0E-4                    0.0055                   4.331048403629023
5.0E-4                    0.0065                   4.328312458467085
5.0E-4                    0.0075                   4.3672902660292205
5.0E-4                    0.0085                   4.487620936778293
5.0E-4                    0.0095                   4.627559259111401
5.0E-4                    0.0105                   4.731122880432073
5.0E-4                    0.0115                   4.817451825716786
5.0E-4                    0.0125                   4.887435721056316
5.0E-4                    0.0135                   4.923571410375041
5.0E-4                    0.0145                   4.935020566437596
5.0E-4                    0.0155                   4.942334950172358
5.0E-4                    0.0165                   4.949449658801902
5.0E-4                    0.0175                   4.955842871113161
5.0E-4                    0.0185                   4.961602546012943
5.0E-4                    0.0195                   4.96661829936127
5.0E-4                    0.0205                   4.9709641291544315
5.0E-4                    0.0215                   4.974924773901034
5.0E-4                    0.0225                   4.976028398927287
5.0E-4                    0.0235                   4.969996439905515
5.0E-4                    0.0245                   4.94906121562339
5.0E-4                    0.0255                   4.914929046919671
5.0E-4                    0.0265                   4.877258384468118
5.0E-4                    0.0275                   4.838998980139418
5.0E-4                    0.0285                   4.80152962363951
5.0E-4                    0.0295                   4.76545899243219
5.0E-4                    0.0305                   4.732155640303365
5.0E-4                    0.0315                   4.707680563221122
0.0015                    -0.0315                  3.073687624824043
0.0015                    -0.0305                  3.096176349617087
0.0015                    -0.0295                  3.128947374025821
0.0015                    -0.0285                  3.1647756932776656
0.0015                    -0.0275                  3.201666616453502
0.0015                    -0.0265                  3.239165631301107
0.0015                    -0.0255                  3.277132897474612
0.0015                    -0.0245                  3.3155099042719054
0.0015                    -0.0235                  3.3542707373850496
0.0015                    -0.0225                  3.393402424531036
0.0015                    -0.0215                  3.432900658151284
0.0015                    -0.0205                  3.4727713123254853
0.0015                    -0.0195                  3.513035175281261
0.0015                    -0.0185                  3.5537336422364825
0.0015                    -0.0175                  3.594935186770777
0.0015                    -0.0165                  3.636738680373268
0.0015                    -0.0155                  3.679272054724302
0.0015                    -0.0145                  3.7226788866103115
0.0015                    -0.0135                  3.76708881909901
0.0015                    -0.0125                  3.812573068936125
0.0015                    -0.0115                  3.8590924470346635
0.0015                    -0.0105                  3.9064561127694
0.0015                    -0.0095                  3.9543148025829957
0.0015                    -0.0085                  4.0022031959067945
0.0015                    -0.0075                  4.049618804479436
0.0015                    -0.0065                  4.096107660603302
0.0015                    -0.0055                  4.141336241965034
0.0015                    -0.0045                  4.185062361787805
0.0015                    -0.0035                  4.226775937117528
0.0015                    -0.0025                  4.265144883969086
0.0015                    -0.0015                  4.297806714111661
0.0015                    -5.0E-4                  4.321950933442024
0.0015                    5.0E-4                   4.3357468139804505
0.0015                    0.0015                   4.340418118736112
0.0015                    0.0025                   4.340120835894342
0.0015                    0.0035                   4.338168852185681
0.0015                    0.0045                   4.335210086321547
0.0015                    0.0055                   4.3319916878724385
0.0015                    0.0065                   4.330277786308573
0.0015                    0.0075                   4.329024066405365
0.0015                    0.0085                   4.386744668295183
0.0015                    0.0095                   4.479952919002498
0.0015                    0.0105                   4.5448804296776855
0.0015                    0.0115                   4.606348506071246
0.0015                    0.0125                   4.6694261673191875
0.0015                    0.0135                   4.732387303267108
0.0015                    0.0145                   4.781946411055066
0.0015                    0.0155                   4.814002922492192
0.0015                    0.0165                   4.838606041972325
0.0015                    0.0175                   4.85906268163885
0.0015                    0.0185                   4.876134407546253
0.0015                    0.0195                   4.890521545984995
0.0015                    0.0205                   4.902618891752743
0.0015                    0.0215                   4.911807814377986
0.0015                    0.0225                   4.917531123889206
0.0015                    0.0235                   4.9198552909577895
0.0015                    0.0245                   4.912267041159494
0.0015                    0.0255                   4.8892744826314125
0.0015                    0.0265                   4.856093599609196
0.0015                    0.0275                   4.819012187521909
0.0015                    0.0285                   4.780762612684017
0.0015                    0.0295                   4.7427010461322405
0.0015                    0.0305                   4.7073566119678745
0.0015                    0.0315                   4.682995015842624
0.0025                    -0.0315                  3.042695459796289
0.0025                    -0.0305                  3.063053276406099
0.0025                    -0.0295                  3.095801371138731
0.0025                    -0.0285                  3.1336076815530496
0.0025                    -0.0275                  3.1729475437768886
0.0025                    -0.0265                  3.2126449477110093
0.0025                    -0.0255                  3.2523965982615684
0.0025                    -0.0245                  3.292147069966031
0.0025                    -0.0235                  3.331910355278972
0.0025                    -0.0225                  3.3717200832710708
0.0025                    -0.0215                  3.4116152238306348
0.0025                    -0.0205                  3.4516394494092166
0.0025                    -0.0195                  3.4918482762597054
0.0025                    -0.0185                  3.532322127068463
0.0025                    -0.0175                  3.5731849748513045
0.0025                    -0.0165                  3.614625192855387
0.0025                    -0.0155                  3.6569098840764944
0.0025                    -0.0145                  3.7003814231432512
0.0025                    -0.0135                  3.745421563034454
0.0025                    -0.0125                  3.792375650135334
0.0025                    -0.0115                  3.841445917272968
0.0025                    -0.0105                  3.892582106535349
0.0025                    -0.0095                  3.9454123679140087
0.0025                    -0.0085                  3.9992549340331456
0.0025                    -0.0075                  4.0532218597227025
0.0025                    -0.0065                  4.106378192084064
0.0025                    -0.0055                  4.157848814762294
0.0025                    -0.0045                  4.206699049985461
0.0025                    -0.0035                  4.25155657397784
0.0025                    -0.0025                  4.2902578526393
0.0025                    -0.0015                  4.319988087530455
0.0025                    -5.0E-4                  4.33851031925964
0.0025                    5.0E-4                   4.346176090947211
0.0025                    0.0015                   4.346720033672996
0.0025                    0.0025                   4.344442424790066
0.0025                    0.0035                   4.341168551306065
0.0025                    0.0045                   4.337491876092907
0.0025                    0.0055                   4.334932552417278
0.0025                    0.0065                   4.332447946614421
0.0025                    0.0075                   4.340530000441916
0.0025                    0.0085                   4.369801900156501
0.0025                    0.0095                   4.407291178286835
0.0025                    0.0105                   4.444245745025555
0.0025                    0.0115                   4.484735367090068
0.0025                    0.0125                   4.532518642992342
0.0025                    0.0135                   4.587745849614679
0.0025                    0.0145                   4.644842278496769
0.0025                    0.0155                   4.694812490017405
0.0025                    0.0165                   4.734246827311947
0.0025                    0.0175                   4.7662758925235815
0.0025                    0.0185                   4.792817068501621
0.0025                    0.0195                   4.81478318575423
0.0025                    0.0205                   4.832571246605885
0.0025                    0.0215                   4.846359464847871
0.0025                    0.0225                   4.856312635560036
0.0025                    0.0235                   4.860479197616145
0.0025                    0.0245                   4.856176482433431
0.0025                    0.0255                   4.841186608008411
0.0025                    0.0265                   4.815083258559019
0.0025                    0.0275                   4.7812354514902315
0.0025                    0.0285                   4.743510669405712
0.0025                    0.0295                   4.705061307496169
0.0025                    0.0305                   4.670705228513834
0.0025                    0.0315                   4.649180235102704
0.0035                    -0.0315                  3.00882980280287
0.0035                    -0.0305                  3.026660825940481
0.0035                    -0.0295                  3.0573591634232704
0.0035                    -0.0285                  3.095090391369222
0.0035                    -0.0275                  3.135772649073458
0.0035                    -0.0265                  3.17729452997797
0.0035                    -0.0255                  3.2188079089170434
0.0035                    -0.0245                  3.2600430724404434
0.0035                    -0.0235                  3.300949804557874
0.0035                    -0.0225                  3.3415589397657266
0.0035                    -0.0215                  3.3819326407007697
0.0035                    -0.0205                  3.42214872055988
0.0035                    -0.0195                  3.4623019529838075
0.0035                    -0.0185                  3.5025182041964995
0.0035                    -0.0175                  3.5429803456737954
0.0035                    -0.0165                  3.5839631639062683
0.0035                    -0.0155                  3.6258678816107652
0.0035                    -0.0145                  3.6692387869451157
0.0035                    -0.0135                  3.7147388167290707
0.0035                    -0.0125                  3.7630629751763265
0.0035                    -0.0115                  3.8147848541717573
0.0035                    -0.0105                  3.870161040701171
0.0035                    -0.0095                  3.9289501862250797
0.0035                    -0.0085                  3.99032035781966
0.0035                    -0.0075                  4.05289877996468
0.0035                    -0.0065                  4.114939382061632
0.0035                    -0.0055                  4.174476992386125
0.0035                    -0.0045                  4.229337543191593
0.0035                    -0.0035                  4.277018153682504
0.0035                    -0.0025                  4.314646646973449
0.0035                    -0.0015                  4.339824988636999
0.0035                    -5.0E-4                  4.352308358183389
0.0035                    5.0E-4                   4.355303362691563
0.0035                    0.0015                   4.353683019231138
0.0035                    0.0025                   4.350393918569569
0.0035                    0.0035                   4.346269509629474
0.0035                    0.0045                   4.342576649537832
0.0035                    0.0055                   4.3388925513004395
0.0035                    0.0065                   4.335604084637136
0.0035                    0.0075                   4.33791505447638
0.0035                    0.0085                   4.348648477803722
0.0035                    0.0095                   4.364163435829829
0.0035                    0.0105                   4.384504574178991
0.0035                    0.0115                   4.410618330095484
0.0035                    0.0125                   4.444270889273788
0.0035                    0.0135                   4.487515041673138
0.0035                    0.0145                   4.538155567645035
0.0035                    0.0155                   4.591190548773487
0.0035                    0.0165                   4.639002191985988
0.0035                    0.0175                   4.679055537579772
0.0035                    0.0185                   4.712252765237125
0.0035                    0.0195                   4.739497520104941
0.0035                    0.0205                   4.76138520034562
0.0035                    0.0215                   4.778310633710121
0.0035                    0.0225                   4.789806277199302
0.0035                    0.0235                   4.794732843243228
0.0035                    0.0245                   4.791903712206105
0.0035                    0.0255                   4.780352182122095
0.0035                    0.0265                   4.7595645225839105
0.0035                    0.0275                   4.730425219766311
0.0035                    0.0285                   4.6959354623916605
0.0035                    0.0295                   4.660540108113133
0.0035                    0.0305                   4.630203852140168
0.0035                    0.0315                   4.612270535722521
0.0045                    -0.0315                  2.973400659249236
0.0045                    -0.0305                  2.9890941133649664
0.0045                    -0.0295                  3.017218913622865
0.0045                    -0.0285                  3.0533896526886655
0.0045                    -0.0275                  3.0939151762361687
0.0045                    -0.0265                  3.1362618327224205
0.0045                    -0.0255                  3.1790009548020297
0.0045                    -0.0245                  3.2214705869615283
0.0045                    -0.0235                  3.263421774537219
0.0045                    -0.0225                  3.3048023275521423
0.0045                    -0.0215                  3.345654305503466
0.0045                    -0.0205                  3.3860703611088305
0.0045                    -0.0195                  3.426179627606984
0.0045                    -0.0185                  3.466153015319499
0.0045                    -0.0175                  3.5062260253175737
0.0045                    -0.0165                  3.546737954788486
0.0045                    -0.0155                  3.58818132242917
0.0045                    -0.0145                  3.631245039651696
0.0045                    -0.0135                  3.6768230418393357
0.0045                    -0.0125                  3.7259527766594656
0.0045                    -0.0115                  3.779653905054866
0.0045                    -0.0105                  3.8386648514680397
0.0045                    -0.0095                  3.9031225822196918
0.0045                    -0.0085                  3.97227931371745
0.0045                    -0.0075                  4.044362522476748
0.0045                    -0.0065                  4.116634260770793
0.0045                    -0.0055                  4.185606142264121
0.0045                    -0.0045                  4.24732886272723
0.0045                    -0.0035                  4.297846830609997
0.0045                    -0.0025                  4.333979776578862
0.0045                    -0.0015                  4.354834785622248
0.0045                    -5.0E-4                  4.362976874186729
0.0045                    5.0E-4                   4.3636140787334625
0.0045                    0.0015                   4.3612697120479975
0.0045                    0.0025                   4.357601366188805
0.0045                    0.0035                   4.353549132614452
0.0045                    0.0045                   4.349432147609939
0.0045                    0.0055                   4.343409821484743
0.0045                    0.0065                   4.336735687846954
0.0045                    0.0075                   4.33232634786378
0.0045                    0.0085                   4.3332836783261515
0.0045                    0.0095                   4.3397131481759175
0.0045                    0.0105                   4.35079681639926
0.0045                    0.0115                   4.367076561901587
0.0045                    0.0125                   4.389459883381834
0.0045                    0.0135                   4.420742517477405
0.0045                    0.0145                   4.461392288256503
0.0045                    0.0155                   4.508546027459863
0.0045                    0.0165                   4.55604684943688
0.0045                    0.0175                   4.598886076435113
0.0045                    0.0185                   4.635277607725186
0.0045                    0.0195                   4.665306635190369
0.0045                    0.0205                   4.689376862326575
0.0045                    0.0215                   4.707578505170195
0.0045                    0.0225                   4.719597645416023
0.0045                    0.0235                   4.7249563170464715
0.0045                    0.0245                   4.723128064945477
0.0045                    0.0255                   4.713657015240036
0.0045                    0.0265                   4.696429042501662
0.0045                    0.0275                   4.672119025361468
0.0045                    0.0285                   4.642964719133078
0.0045                    0.0295                   4.613098127606444
0.0045                    0.0305                   4.587989858104757
0.0045                    0.0315                   4.573476745062744
0.0055                    -0.0315                  2.936875838462001
0.0055                    -0.0305                  2.9508893769421696
0.0055                    -0.0295                  2.976603905745734
0.0055                    -0.0285                  3.0106496027645124
0.0055                    -0.0275                  3.0499451348912356
0.0055                    -0.0265                  3.0920379457343556
0.0055                    -0.0255                  3.1352011704327385
0.0055                    -0.0245                  3.1783975255658534
0.0055                    -0.0235                  3.2210988880202054
0.0055                    -0.0225                  3.2630911970511756
0.0055                    -0.0215                  3.3043415039613895
0.0055                    -0.0205                  3.3449253700795287
0.0055                    -0.0195                  3.3849917963056333
0.0055                    -0.0185                  3.4247515121221572
0.0055                    -0.0175                  3.464484914289859
0.0055                    -0.0165                  3.5045711946524136
0.0055                    -0.0155                  3.545538891446764
0.0055                    -0.0145                  3.5881296787525447
0.0055                    -0.0135                  3.6333516593814434
0.0055                    -0.0125                  3.6824792564317126
0.0055                    -0.0115                  3.7369438320127863
0.0055                    -0.0105                  3.798067107445291
0.0055                    -0.0095                  3.866632339726686
0.0055                    -0.0085                  3.942365684306
0.0055                    -0.0075                  4.023475985506012
0.0055                    -0.0065                  4.10642348348098
0.0055                    -0.0055                  4.186038907220198
0.0055                    -0.0045                  4.256116447695926
0.0055                    -0.0035                  4.310798329352683
0.0055                    -0.0025                  4.346845918396074
0.0055                    -0.0015                  4.365363342909674
0.0055                    -5.0E-4                  4.371488113590419
0.0055                    5.0E-4                   4.371557080617811
0.0055                    0.0015                   4.3693302372332985
0.0055                    0.0025                   4.366039097450568
0.0055                    0.0035                   4.362299690833563
0.0055                    0.0045                   4.35653654743159
0.0055                    0.0055                   4.3475151319570715
0.0055                    0.0065                   4.335795895300251
0.0055                    0.0075                   4.32573312358492
0.0055                    0.0085                   4.3227519049901195
0.0055                    0.0095                   4.326020269045686
0.0055                    0.0105                   4.332732648494525
0.0055                    0.0115                   4.342233445443327
0.0055                    0.0125                   4.356393634919154
0.0055                    0.0135                   4.377815346122966
0.0055                    0.0145                   4.408097712585073
0.0055                    0.0155                   4.446025060281064
0.0055                    0.0165                   4.487249802770451
0.0055                    0.0175                   4.527203278587523
0.0055                    0.0185                   4.562821795030819
0.0055                    0.0195                   4.592878930066599
0.0055                    0.0205                   4.617084884854737
0.0055                    0.0215                   4.635306258475056
0.0055                    0.0225                   4.647373154039559
0.0055                    0.0235                   4.65307043582858
0.0055                    0.0245                   4.652187842554638
0.0055                    0.0255                   4.644623040326716
0.0055                    0.0265                   4.630597563675138
0.0055                    0.0275                   4.611021027081896
0.0055                    0.0285                   4.5878573397482185
0.0055                    0.0295                   4.564308257458082
0.0055                    0.0305                   4.544593721017438
0.0055                    0.0315                   4.533236084302548
0.0065                    -0.0315                  2.8995221487695906
0.0065                    -0.0305                  2.912214944583921
0.0065                    -0.0295                  2.9358584581640934
0.0065                    -0.0285                  2.9677450308411797
0.0065                    -0.0275                  3.0053100293145745
0.0065                    -0.0265                  3.0463706564659234
0.0065                    -0.0255                  3.0891819573031336
0.0065                    -0.0245                  3.1324956283322334
0.0065                    -0.0235                  3.1755321031324044
0.0065                    -0.0225                  3.2178791625382703
0.0065                    -0.0215                  3.259381461973073
0.0065                    -0.0205                  3.3000591595060405
0.0065                    -0.0195                  3.3400572086993354
0.0065                    -0.0185                  3.379615341524972
0.0065                    -0.0175                  3.4190537906994436
0.0065                    -0.0165                  3.45877810943174
0.0065                    -0.0155                  3.4993110789564694
0.0065                    -0.0145                  3.54135665075465
0.0065                    -0.0135                  3.5858875771106513
0.0065                    -0.0125                  3.6342229529710206
0.0065                    -0.0115                  3.6880279402890466
0.0065                    -0.0105                  3.7491430601438784
0.0065                    -0.0095                  3.819159445824857
0.0065                    -0.0085                  3.8987275843446914
0.0065                    -0.0075                  3.9867255553303007
0.0065                    -0.0065                  4.079531254766745
0.0065                    -0.0055                  4.170692881963208
0.0065                    -0.0045                  4.2515354347286465
0.0065                    -0.0035                  4.313574455899703
0.0065                    -0.0025                  4.3529435507527126
0.0065                    -0.0015                  4.372237275880236
0.0065                    -5.0E-4                  4.378598195733247
0.0065                    5.0E-4                   4.37927408711929
0.0065                    0.0015                   4.3777358294593345
0.0065                    0.0025                   4.375206845774409
0.0065                    0.0035                   4.3712481041908
0.0065                    0.0045                   4.363234448235772
0.0065                    0.0055                   4.3500145855651455
0.0065                    0.0065                   4.333361113656551
0.0065                    0.0075                   4.320813871319606
0.0065                    0.0085                   4.316866390677115
0.0065                    0.0095                   4.3186820400704455
0.0065                    0.0105                   4.323045455486383
0.0065                    0.0115                   4.32847652592344
0.0065                    0.0125                   4.336948488151961