% Model:              Benchmark260518.mph
% Version:            COMSOL 6.2.0.339
% Date:               May 20 2026, 06:49
% Dimension:          2
% Nodes:              4096
% Expressions:        1
% Description:        压力
% Length unit:        m
% x                       y                        p (Pa)
5.0E-4                    -0.0315                  2.7290662862185924
5.0E-4                    -0.0305                  2.7512807062360065
5.0E-4                    -0.0295                  2.7817942721404334
5.0E-4                    -0.0285                  2.8153338731874724
5.0E-4                    -0.0275                  2.8504027231221043
5.0E-4                    -0.0265                  2.88644192136979
5.0E-4                    -0.0255                  2.9232375498770806
5.0E-4                    -0.0245                  2.960657089012516
5.0E-4                    -0.0235                  2.998627092091796
5.0E-4                    -0.0225                  3.0371121182487624
5.0E-4                    -0.0215                  3.076103810451659
5.0E-4                    -0.0205                  3.115618571433858
5.0E-4                    -0.0195                  3.155672144496133
5.0E-4                    -0.0185                  3.1962866391878975
5.0E-4                    -0.0175                  3.237477634147098
5.0E-4                    -0.0165                  3.2792288581736417
5.0E-4                    -0.0155                  3.3215009940570766
5.0E-4                    -0.0145                  3.364221761572074
5.0E-4                    -0.0135                  3.407283095861458
5.0E-4                    -0.0125                  3.450576436256735
5.0E-4                    -0.0115                  3.493999375636218
5.0E-4                    -0.0105                  3.5374827675043634
5.0E-4                    -0.0095                  3.5809990129270433
5.0E-4                    -0.0085                  3.6245230670193354
5.0E-4                    -0.0075                  3.668008021752676
5.0E-4                    -0.0065                  3.711339754343743
5.0E-4                    -0.0055                  3.754306588449694
5.0E-4                    -0.0045                  3.7965995339534273
5.0E-4                    -0.0035                  3.8378053352031776
5.0E-4                    -0.0025                  3.877421408230305
5.0E-4                    -0.0015                  3.91489608092941
5.0E-4                    -5.0E-4                  3.9495987196064997
5.0E-4                    5.0E-4                   3.9806361070556635
5.0E-4                    0.0015                   4.006829577069079
5.0E-4                    0.0025                   4.0269909428782515
5.0E-4                    0.0035                   4.040099220833212
5.0E-4                    0.0045                   4.045362066549413
5.0E-4                    0.0055                   4.042316150079312
5.0E-4                    0.0065                   4.03090252859811
5.0E-4                    0.0075                   4.011490160197068
5.0E-4                    0.0085                   3.984879679034393
5.0E-4                    0.0095                   3.9523242371862395
5.0E-4                    0.0105                   3.915613792842313
5.0E-4                    0.0115                   3.877278176434425
5.0E-4                    0.0125                   3.840722412617104
5.0E-4                    0.0135                   3.809463100448578
5.0E-4                    0.0145                   3.7872833582628185
5.0E-4                    0.0155                   3.774875974698467
5.0E-4                    0.0165                   3.7685355810551346
5.0E-4                    0.0175                   3.7662828091700478
5.0E-4                    0.0185                   3.7735425314363815
5.0E-4                    0.0195                   3.811684482709835
5.0E-4                    0.0205                   3.9856534717420082
5.0E-4                    0.0215                   4.34184681852681
5.0E-4                    0.0225                   4.686097221873373
5.0E-4                    0.0235                   4.878638798132892
5.0E-4                    0.0245                   4.96423362650029
5.0E-4                    0.0255                   4.997377732960702
5.0E-4                    0.0265                   5.00701238037805
5.0E-4                    0.0275                   5.0007498467378415
5.0E-4                    0.0285                   4.981388972562586
5.0E-4                    0.0295                   4.955607510582873
5.0E-4                    0.0305                   4.929888699053376
5.0E-4                    0.0315                   4.910469450554723
0.0015                    -0.0315                  2.7068324462708016
0.0015                    -0.0305                  2.729081919210675
0.0015                    -0.0295                  2.761604592961448
0.0015                    -0.0285                  2.797462860938156
0.0015                    -0.0275                  2.834573029181323
0.0015                    -0.0265                  2.8722662308315394
0.0015                    -0.0255                  2.910325278490353
0.0015                    -0.0245                  2.9486815017013477
0.0015                    -0.0235                  2.9873092500876695
0.0015                    -0.0225                  3.02621582405516
0.0015                    -0.0215                  3.0654357586801098
0.0015                    -0.0205                  3.105029374838753
0.0015                    -0.0195                  3.14507812978005
0.0015                    -0.0185                  3.1856756505001056
0.0015                    -0.0175                  3.226916630077829
0.0015                    -0.0165                  3.268875765922806
0.0015                    -0.0155                  3.311582667930949
0.0015                    -0.0145                  3.355002824518407
0.0015                    -0.0135                  3.3990265935439536
0.0015                    -0.0125                  3.443483677813433
0.0015                    -0.0115                  3.4881909158614657
0.0015                    -0.0105                  3.5330119572636476
0.0015                    -0.0095                  3.577906906811283
0.0015                    -0.0085                  3.6229343955944513
0.0015                    -0.0075                  3.66819654873453
0.0015                    -0.0065                  3.7137518386376334
0.0015                    -0.0055                  3.7595350580179066
0.0015                    -0.0045                  3.805316188206883
0.0015                    -0.0035                  3.850688422463418
0.0015                    -0.0025                  3.895075593575774
0.0015                    -0.0015                  3.9377470159108663
0.0015                    -5.0E-4                  3.977721482641016
0.0015                    5.0E-4                   4.013676489477028
0.0015                    0.0015                   4.044111194207754
0.0015                    0.0025                   4.067596468938521
0.0015                    0.0035                   4.082973710216373
0.0015                    0.0045                   4.089466640302094
0.0015                    0.0055                   4.086643286801869
0.0015                    0.0065                   4.074325132795699
0.0015                    0.0075                   4.052591248970514
0.0015                    0.0085                   4.021892802479932
0.0015                    0.0095                   3.9832335773979914
0.0015                    0.0105                   3.9384992662900626
0.0015                    0.0115                   3.89115980487073
0.0015                    0.0125                   3.846742732735274
0.0015                    0.0135                   3.810784764094865
0.0015                    0.0145                   3.7875066365607735
0.0015                    0.0155                   3.775512939543462
0.0015                    0.0165                   3.7691140801070153
0.0015                    0.0175                   3.7654356704195164
0.0015                    0.0185                   3.763877277147996
0.0015                    0.0195                   3.748296155478628
0.0015                    0.0205                   3.910670321382036
0.0015                    0.0215                   4.2931853098958666
0.0015                    0.0225                   4.619363754527855
0.0015                    0.0235                   4.789029390318498
0.0015                    0.0245                   4.856345587490038
0.0015                    0.0255                   4.8861397010111425
0.0015                    0.0265                   4.905403138306918
0.0015                    0.0275                   4.921073363133784
0.0015                    0.0285                   4.928447690121798
0.0015                    0.0295                   4.921153520532286
0.0015                    0.0305                   4.903831521875775
0.0015                    0.0315                   4.8884444495346155
0.0025                    -0.0315                  2.676180779463281
0.0025                    -0.0305                  2.6964978057300684
0.0025                    -0.0295                  2.729071751719948
0.0025                    -0.0285                  2.7668507475931134
0.0025                    -0.0275                  2.806376091648911
0.0025                    -0.0265                  2.846366544012361
0.0025                    -0.0255                  2.886376746261223
0.0025                    -0.0245                  2.9262693094065964
0.0025                    -0.0235                  2.9660260773962825
0.0025                    -0.0225                  3.005683074599644
0.0025                    -0.0215                  3.0453208993720335
0.0025                    -0.0205                  3.085064795460874
0.0025                    -0.0195                  3.1250863405018383
0.0025                    -0.0185                  3.165596834972788
0.0025                    -0.0175                  3.20683063574793
0.0025                    -0.0165                  3.2490163369831864
0.0025                    -0.0155                  3.2923312398362814
0.0025                    -0.0145                  3.3368494066249195
0.0025                    -0.0135                  3.38250121090437
0.0025                    -0.0125                  3.4290668713687857
0.0025                    -0.0115                  3.476231037081668
0.0025                    -0.0105                  3.5236976300013674
0.0025                    -0.0095                  3.5713243589971233
0.0025                    -0.0085                  3.6192044728452664
0.0025                    -0.0075                  3.6676321506569614
0.0025                    -0.0065                  3.716958678528295
0.0025                    -0.0055                  3.7674029426816356
0.0025                    -0.0045                  3.818907826910856
0.0025                    -0.0035                  3.871092616891571
0.0025                    -0.0025                  3.923214949978594
0.0025                    -0.0015                  3.9741089955407696
0.0025                    -5.0E-4                  4.022187743909404
0.0025                    5.0E-4                   4.065477461143339
0.0025                    0.0015                   4.101877273331143
0.0025                    0.0025                   4.129622139035087
0.0025                    0.0035                   4.14760751794425
0.0025                    0.0045                   4.155432149460228
0.0025                    0.0055                   4.152977579771936
0.0025                    0.0065                   4.139883219501575
0.0025                    0.0075                   4.115585702880144
0.0025                    0.0085                   4.079872843575501
0.0025                    0.0095                   4.033396712873706
0.0025                    0.0105                   3.9782743726734577
0.0025                    0.0115                   3.919249864579471
0.0025                    0.0125                   3.8642745347090415
0.0025                    0.0135                   3.821236495898736
0.0025                    0.0145                   3.79458051224709
0.0025                    0.0155                   3.780885308281217
0.0025                    0.0165                   3.7725863230323746
0.0025                    0.0175                   3.763850477969105
0.0025                    0.0185                   3.757971204996167
0.0025                    0.0195                   3.773101760981289
0.0025                    0.0205                   3.976175666199336
0.0025                    0.0215                   4.326392907455975
0.0025                    0.0225                   4.589211794822453
0.0025                    0.0235                   4.725405462421785
0.0025                    0.0245                   4.776344618564863
0.0025                    0.0255                   4.801276492214737
0.0025                    0.0265                   4.821379942403474
0.0025                    0.0275                   4.8419962967377215
0.0025                    0.0285                   4.859872083828042
0.0025                    0.0295                   4.867655338781436
0.0025                    0.0305                   4.864407321558677
0.0025                    0.0315                   4.8577905030948205
0.0035                    -0.0315                  2.642197937369711
0.0035                    -0.0305                  2.6603088591989055
0.0035                    -0.0295                  2.6911023140122086
0.0035                    -0.0285                  2.728982576906103
0.0035                    -0.0275                  2.7699964580191745
0.0035                    -0.0265                  2.81199339997851
0.0035                    -0.0255                  2.854012068480448
0.0035                    -0.0245                  2.895659702991496
0.0035                    -0.0235                  2.9368029023758644
0.0035                    -0.0225                  2.977440795381152
0.0035                    -0.0215                  3.017662007176876
0.0035                    -0.0205                  3.0576378026812323
0.0035                    -0.0195                  3.09762282853027
0.0035                    -0.0185                  3.13795122309265
0.0035                    -0.0175                  3.179019178969694
0.0035                    -0.0165                  3.2212484674701516
0.0035                    -0.0155                  3.265027026751743
0.0035                    -0.0145                  3.3106282989068223
0.0035                    -0.0135                  3.3581267464158118
0.0035                    -0.0125                  3.4073427937760723
0.0035                    -0.0115                  3.4578609492723986
0.0035                    -0.0105                  3.509154057971746
0.0035                    -0.0095                  3.5608018777913446
0.0035                    -0.0085                  3.612718714292764
0.0035                    -0.0075                  3.66524253206443
0.0035                    -0.0065                  3.71900528849515
0.0035                    -0.0055                  3.774633099076131
0.0035                    -0.0045                  3.832408344698292
0.0035                    -0.0035                  3.8920387663676514
0.0035                    -0.0025                  3.9525980503322264
0.0035                    -0.0015                  4.012408573486725
0.0035                    -5.0E-4                  4.069028577705922
0.0035                    5.0E-4                   4.119563415015135
0.0035                    0.0015                   4.161074282349857
0.0035                    0.0025                   4.191633614776848
0.0035                    0.0035                   4.210932703648086
0.0035                    0.0045                   4.21943757978957
0.0035                    0.0055                   4.217387734802657
0.0035                    0.0065                   4.2042983658177775
0.0035                    0.0075                   4.179007198672061
0.0035                    0.0085                   4.140334679308763
0.0035                    0.0095                   4.0883336568647515
0.0035                    0.0105                   4.025663172897176
0.0035                    0.0115                   3.958154415853797
0.0035                    0.0125                   3.8946831268771804
0.0035                    0.0135                   3.8439701081533295
0.0035                    0.0145                   3.811246034017694
0.0035                    0.0155                   3.7932399823607295
0.0035                    0.0165                   3.7811363123428134
0.0035                    0.0175                   3.770168682452501
0.0035                    0.0185                   3.7626537610036315
0.0035                    0.0195                   3.822175858410181
0.0035                    0.0205                   4.057451101021073
0.0035                    0.0215                   4.367235924640317
0.0035                    0.0225                   4.578792762761461
0.0035                    0.0235                   4.679315898521768
0.0035                    0.0245                   4.715772105684259
0.0035                    0.0255                   4.736326414458183
0.0035                    0.0265                   4.754777942794189
0.0035                    0.0275                   4.775244313253635
0.0035                    0.0285                   4.79622285540823
0.0035                    0.0295                   4.812521761951627
0.0035                    0.0305                   4.821458271885216
0.0035                    0.0315                   4.824054170001309
0.0045                    -0.0315                  2.6062186502609155
0.0045                    -0.0305                  2.622466258869362
0.0045                    -0.0295                  2.6510449033615564
0.0045                    -0.0285                  2.687692907909788
0.0045                    -0.0275                  2.7288668313571334
0.0045                    -0.0265                  2.77202261553399
0.0045                    -0.0255                  2.8156417555671744
0.0045                    -0.0245                  2.8589339474669133
0.0045                    -0.0235                  2.9015261006466426
0.0045                    -0.0225                  2.943284593819463
0.0045                    -0.0215                  2.984237841078526
0.0045                    -0.0205                  3.024551676686654
0.0045                    -0.0195                  3.0645254668224378
0.0045                    -0.0185                  3.1045883264271064
0.0045                    -0.0175                  3.1452834270843213
0.0045                    -0.0165                  3.187231863465428
0.0045                    -0.0155                  3.2310690633761405
0.0045                    -0.0145                  3.2773491899604315
0.0045                    -0.0135                  3.32642299756779
0.0045                    -0.0125                  3.3783139343452118
0.0045                    -0.0115                  3.432645199094496
0.0045                    -0.0105                  3.4886901197155993
0.0045                    -0.0095                  3.5455894210504253
0.0045                    -0.0085                  3.602718603314985
0.0045                    -0.0075                  3.660052887639269
0.0045                    -0.0065                  3.7182459883134786
0.0045                    -0.0055                  3.7783409545604076
0.0045                    -0.0045                  3.8412235755948645
0.0045                    -0.0035                  3.9070314129444337
0.0045                    -0.0025                  3.9747334276602944
0.0045                    -0.0015                  4.0421639374271345
0.0045                    -5.0E-4                  4.105930608849954
0.0045                    5.0E-4                   4.161861233982237
0.0045                    0.0015                   4.206469217195959
0.0045                    0.0025                   4.2382077270012015
0.0045                    0.0035                   4.2578657573401735
0.0045                    0.0045                   4.266690258215275
0.0045                    0.0055                   4.264918494272502
0.0045                    0.0065                   4.252198254785311
0.0045                    0.0075                   4.227382457265126
0.0045                    0.0085                   4.188217630999589
0.0045                    0.0095                   4.134130898267845
0.0045                    0.0105                   4.069014088785268
0.0045                    0.0115                   3.9994749949488897
0.0045                    0.0125                   3.9332925215655816
0.0045                    0.0135                   3.8780013833409144
0.0045                    0.0145                   3.839059386951631
0.0045                    0.0155                   3.814971776887897
0.0045                    0.0165                   3.7964694272443795
0.0045                    0.0175                   3.784392489985858
0.0045                    0.0185                   3.788436564650549
0.0045                    0.0195                   3.905362463357166
0.0045                    0.0205                   4.159543404064428
0.0045                    0.0215                   4.413796927914812
0.0045                    0.0225                   4.57501433462363
0.0045                    0.0235                   4.642937584441374
0.0045                    0.0245                   4.669298678709336
0.0045                    0.0255                   4.687080492654258
0.0045                    0.0265                   4.703870043176318
0.0045                    0.0275                   4.722884622886913
0.0045                    0.0285                   4.744017338611856
0.0045                    0.0295                   4.764331686475348
0.0045                    0.0305                   4.780648760439167
0.0045                    0.0315                   4.789583719608737
0.0055                    -0.0315                  2.568834486859267
0.0055                    -0.0305                  2.5835842218854186
0.0055                    -0.0295                  2.610080383003195
0.0055                    -0.0285                  2.6449890607123674
0.0055                    -0.0275                  2.685352351264778
0.0055                    -0.0265                  2.7287187295753914
0.0055                    -0.0255                  2.773282020158671
0.0055                    -0.0245                  2.8178733675517993
0.0055                    -0.0235                  2.861811284353654
0.0055                    -0.0225                  2.904745374945546
0.0055                    -0.0215                  2.946563483730697
0.0055                    -0.0205                  2.987353858437261
0.0055                    -0.0195                  3.02739614872762
0.0055                    -0.0185                  3.0671586708047047
0.0055                    -0.0175                  3.107286530079748
0.0055                    -0.0165                  3.1485711716387823
0.0055                    -0.0155                  3.1918941374259164
0.0055                    -0.0145                  3.238135076707392
0.0055                    -0.0135                  3.288033618766577
0.0055                    -0.0125                  3.3420090702590146
0.0055                    -0.0115                  3.399967073333249
0.0055                    -0.0105                  3.4611761081728027
0.0055                    -0.0095                  3.524343460373178
0.0055                    -0.0085                  3.5879612452906757
0.0055                    -0.0075                  3.6509542558409755
0.0055                    -0.0065                  3.713352042512298
0.0055                    -0.0055                  3.776351993403357
0.0055                    -0.0045                  3.841728919751083
0.0055                    -0.0035                  3.91072814703041
0.0055                    -0.0025                  3.9829027086318245
0.0055                    -0.0015                  4.055422943466511
0.0055                    -5.0E-4                  4.12390308641133
0.0055                    5.0E-4                   4.183410977084687
0.0055                    0.0015                   4.230478256982295
0.0055                    0.0025                   4.264008763756088
0.0055                    0.0035                   4.284890728833025
0.0055                    0.0045                   4.294408494037751
0.0055                    0.0055                   4.292634141306102
0.0055                    0.0065                   4.279589131160199
0.0055                    0.0075                   4.2547543451592285
0.0055                    0.0085                   4.215703862446497
0.0055                    0.0095                   4.161808421957591
0.0055                    0.0105                   4.09827350577296
0.0055                    0.0115                   4.032523047730576
0.0055                    0.0125                   3.970773064539814
0.0055                    0.0135                   3.9177343914936125
0.0055                    0.0145                   3.876956967964023
0.0055                    0.0155                   3.846170071657723
0.0055                    0.0165                   3.8226809853405372
0.0055                    0.0175                   3.808171518780617
0.0055                    0.0185                   3.848274615601578
0.0055                    0.0195                   4.017107415683574
0.0055                    0.0205                   4.257041066583586
0.0055                    0.0215                   4.455709066422599
0.0055                    0.0225                   4.568633966576181
0.0055                    0.0235                   4.6108075016795125
0.0055                    0.0245                   4.631243343712654
0.0055                    0.0255                   4.647859690857813
0.0055                    0.0265                   4.664182702984771
0.0055                    0.0275                   4.68227230944073
0.0055                    0.0285                   4.702777566932722
0.0055                    0.0295                   4.724556112319828
0.0055                    0.0305                   4.744227991912331
0.0055                    0.0315                   4.756230651014214
0.0065                    -0.0315                  2.5303771881105535
0.0065                    -0.0305                  2.5439202474373506
0.0065                    -0.0295                  2.568593549698633
0.0065                    -0.0285                  2.6017003659206837
0.0065                    -0.0275                  2.6407811866780206
0.0065                    -0.0265                  2.683654023935969
0.0065                    -0.0255                  2.728500924723885
0.0065                    -0.0245                  2.7739378040659615
0.0065                    -0.0235                  2.8190056138488613
0.0065                    -0.0225                  2.8631001334573654
0.0065                    -0.0215                  2.905903341414321
0.0065                    -0.0205                  2.9473488176335714
0.0065                    -0.0195                  2.9876159248840963
0.0065                    -0.0185                  3.0271340077627507
0.0065                    -0.0175                  3.066579414096129
0.0065                    -0.0165                  3.1068547861301066
0.0065                    -0.0155                  3.1490449946372356
0.0065                    -0.0145                  3.194343556751733
0.0065                    -0.0135                  3.243929722643907
0.0065                    -0.0125                  3.2987681633029218
0.0065                    -0.0115                  3.3593280696961143
0.0065                    -0.0105                  3.4252431352232877
0.0065                    -0.0095                  3.495053693067771
0.0065                    -0.0085                  3.5663116880617283
0.0065                    -0.0075                  3.6362180380016693
0.0065                    -0.0065                  3.7030244295552714
0.0065                    -0.0055                  3.7673876161337025
0.0065                    -0.0045                  3.8320212700681378
0.0065                    -0.0035                  3.9001253252508974
0.0065                    -0.0025                  3.973054703517489
0.0065                    -0.0015                  4.04782557188271
0.0065                    -5.0E-4                  4.119811415393204
0.0065                    5.0E-4                   4.183910449271858
0.0065                    0.0015                   4.2359141925898065
0.0065                    0.0025                   4.274189743368032
0.0065                    0.0035                   4.298547106912997
0.0065                    0.0045                   4.3097820350635025
0.0065                    0.0055                   4.308059550110985
0.0065                    0.0065                   4.293578627080814
0.0065                    0.0075                   4.266502403275609
0.0065                    0.0085                   4.225492631385199
0.0065                    0.0095                   4.171098003897239
0.0065                    0.0105                   4.109824542036629
0.0065                    0.0115                   4.049964590424761