% Model:              Benchmark260518.mph
% Version:            COMSOL 6.2.0.339
% Date:               May 19 2026, 19:12
% Dimension:          2
% Nodes:              4096
% Expressions:        1
% Description:        压力
% Length unit:        m
% x                       y                        p (Pa)
5.0E-4                    -0.0315                  3.103432948234602
5.0E-4                    -0.0305                  3.1381784219761295
5.0E-4                    -0.0295                  3.185469390706002
5.0E-4                    -0.0285                  3.236880892191336
5.0E-4                    -0.0275                  3.290622502263442
5.0E-4                    -0.0265                  3.3460684820696085
5.0E-4                    -0.0255                  3.402819556618448
5.0E-4                    -0.0245                  3.460647069033111
5.0E-4                    -0.0235                  3.5193654134357364
5.0E-4                    -0.0225                  3.578806633638077
5.0E-4                    -0.0215                  3.638798657908898
5.0E-4                    -0.0205                  3.6991724341418095
5.0E-4                    -0.0195                  3.759791714935522
5.0E-4                    -0.0185                  3.8205694795114744
5.0E-4                    -0.0175                  3.881463553450553
5.0E-4                    -0.0165                  3.942462011020637
5.0E-4                    -0.0155                  4.003567046338187
5.0E-4                    -0.0145                  4.064783358773736
5.0E-4                    -0.0135                  4.126113770923593
5.0E-4                    -0.0125                  4.187575250972073
5.0E-4                    -0.0115                  4.24923534507153
5.0E-4                    -0.0105                  4.311216096648711
5.0E-4                    -0.0095                  4.3737152455236314
5.0E-4                    -0.0085                  4.435841246396003
5.0E-4                    -0.0075                  4.493872307554511
5.0E-4                    -0.0065                  4.542781951779813
5.0E-4                    -0.0055                  4.5767479009831
5.0E-4                    -0.0045                  4.5944853655771185
5.0E-4                    -0.0035                  4.601283591106908
5.0E-4                    -0.0025                  4.601711438123779
5.0E-4                    -0.0015                  4.598119493341634
5.0E-4                    -5.0E-4                  4.5916076304607865
5.0E-4                    5.0E-4                   4.582889910176024
5.0E-4                    0.0015                   4.573355859652574
5.0E-4                    0.0025                   4.565406049019512
5.0E-4                    0.0035                   4.5620510794844975
5.0E-4                    0.0045                   4.565894741689022
5.0E-4                    0.0055                   4.578399338843452
5.0E-4                    0.0065                   4.599500212540145
5.0E-4                    0.0075                   4.627089864174209
5.0E-4                    0.0085                   4.656559076956906
5.0E-4                    0.0095                   4.680856090766577
5.0E-4                    0.0105                   4.692248286328374
5.0E-4                    0.0115                   4.686129510509716
5.0E-4                    0.0125                   4.664002918797394
5.0E-4                    0.0135                   4.632907678723829
5.0E-4                    0.0145                   4.602449351616827
5.0E-4                    0.0155                   4.580334612476206
5.0E-4                    0.0165                   4.568133950325693
5.0E-4                    0.0175                   4.562100529934709
5.0E-4                    0.0185                   4.558993820373885
5.0E-4                    0.0195                   4.571924696688742
5.0E-4                    0.0205                   4.6493437790716605
5.0E-4                    0.0215                   4.785563400935688
5.0E-4                    0.0225                   4.90112780566142
5.0E-4                    0.0235                   4.965493544944253
5.0E-4                    0.0245                   4.995966483011071
5.0E-4                    0.0255                   5.008350840072625
5.0E-4                    0.0265                   5.012437608897667
5.0E-4                    0.0275                   5.011690485688919
5.0E-4                    0.0285                   5.006331895422735
5.0E-4                    0.0295                   4.997817810221582
5.0E-4                    0.0305                   4.988617269654467
5.0E-4                    0.0315                   4.981054807684953
0.0015                    -0.0315                  3.068446189444667
0.0015                    -0.0305                  3.1033460777443196
0.0015                    -0.0295                  3.154141278950749
0.0015                    -0.0285                  3.2096462363857348
0.0015                    -0.0275                  3.266768700073211
0.0015                    -0.0265                  3.3248290178613655
0.0015                    -0.0255                  3.383669417199651
0.0015                    -0.0245                  3.4432658547063975
0.0015                    -0.0235                  3.5036197537799723
0.0015                    -0.0225                  3.5646824151108287
0.0015                    -0.0215                  3.626323594543536
0.0015                    -0.0205                  3.688341024050308
0.0015                    -0.0195                  3.750512796024366
0.0015                    -0.0185                  3.812666575567018
0.0015                    -0.0175                  3.874725293479191
0.0015                    -0.0165                  3.936702795134714
0.0015                    -0.0155                  3.9986553678818937
0.0015                    -0.0145                  4.060628817293673
0.0015                    -0.0135                  4.12264153641393
0.0015                    -0.0125                  4.184720570069713
0.0015                    -0.0115                  4.246973557069139
0.0015                    -0.0105                  4.309651829039922
0.0015                    -0.0095                  4.372858274229357
0.0015                    -0.0085                  4.435508766441087
0.0015                    -0.0075                  4.493950710087265
0.0015                    -0.0065                  4.543333429301641
0.0015                    -0.0055                  4.577299681980385
0.0015                    -0.0045                  4.595182850540229
0.0015                    -0.0035                  4.602877336243814
0.0015                    -0.0025                  4.603711856913947
0.0015                    -0.0015                  4.599435661895121
0.0015                    -5.0E-4                  4.591122275432566
0.0015                    5.0E-4                   4.579793071019407
0.0015                    0.0015                   4.567612202221869
0.0015                    0.0025                   4.557645113568682
0.0015                    0.0035                   4.55285333548417
0.0015                    0.0045                   4.555276931646056
0.0015                    0.0055                   4.565908628881557
0.0015                    0.0065                   4.584611533464752
0.0015                    0.0075                   4.609719911432723
0.0015                    0.0085                   4.6375284065053695
0.0015                    0.0095                   4.662035608424778
0.0015                    0.0105                   4.675842415099216
0.0015                    0.0115                   4.6732120213576795
0.0015                    0.0125                   4.653954110220617
0.0015                    0.0135                   4.624418528837028
0.0015                    0.0145                   4.594941666653598
0.0015                    0.0155                   4.574301968275789
0.0015                    0.0165                   4.564284230889409
0.0015                    0.0175                   4.5606038562591875
0.0015                    0.0185                   4.560539372312963
0.0015                    0.0195                   4.567557342472188
0.0015                    0.0205                   4.653728403056653
0.0015                    0.0215                   4.800347614184763
0.0015                    0.0225                   4.905148078674726
0.0015                    0.0235                   4.960283883729299
0.0015                    0.0245                   4.984023917832767
0.0015                    0.0255                   4.99396701542112
0.0015                    0.0265                   4.9986704024376225
0.0015                    0.0275                   5.000630357375446
0.0015                    0.0285                   4.9989721935246765
0.0015                    0.0295                   4.992174110750538
0.0015                    0.0305                   4.981571298787995
0.0015                    0.0315                   4.972441174997443
0.0025                    -0.0315                  3.0203639157750524
0.0025                    -0.0305                  3.052241403341012
0.0025                    -0.0295                  3.1033831014050786
0.0025                    -0.0285                  3.1623837481727026
0.0025                    -0.0275                  3.223753100412297
0.0025                    -0.0265                  3.2856924332901714
0.0025                    -0.0255                  3.3478545894187697
0.0025                    -0.0245                  3.4103538673174065
0.0025                    -0.0235                  3.4734162953403427
0.0025                    -0.0225                  3.537203609101115
0.0025                    -0.0215                  3.60170278250177
0.0025                    -0.0205                  3.666696934378154
0.0025                    -0.0195                  3.7318278290479436
0.0025                    -0.0185                  3.7967315127950187
0.0025                    -0.0175                  3.8611826925798614
0.0025                    -0.0165                  3.92516165719982
0.0025                    -0.0155                  3.9887953006006844
0.0025                    -0.0145                  4.052221244350463
0.0025                    -0.0135                  4.1154926773679
0.0025                    -0.0125                  4.178586272573925
0.0025                    -0.0115                  4.241483034701366
0.0025                    -0.0105                  4.304151775557601
0.0025                    -0.0095                  4.366247253965257
0.0025                    -0.0085                  4.426543660796174
0.0025                    -0.0075                  4.482293442733749
0.0025                    -0.0065                  4.530126957364569
0.0025                    -0.0055                  4.565797629722694
0.0025                    -0.0045                  4.588623534442017
0.0025                    -0.0035                  4.600418196847403
0.0025                    -0.0025                  4.600766233065542
0.0025                    -0.0015                  4.591001814686973
0.0025                    -5.0E-4                  4.575155305144534
0.0025                    5.0E-4                   4.557667329618699
0.0025                    0.0015                   4.542114609812244
0.0025                    0.0025                   4.531300742434247
0.0025                    0.0035                   4.526949817063652
0.0025                    0.0045                   4.5295979233035055
0.0025                    0.0055                   4.539025566268606
0.0025                    0.0065                   4.554751751856495
0.0025                    0.0075                   4.575858673675838
0.0025                    0.0085                   4.60055709091279
0.0025                    0.0095                   4.625125877350725
0.0025                    0.0105                   4.643711950503572
0.0025                    0.0115                   4.649697559694142
0.0025                    0.0125                   4.639853896365639
0.0025                    0.0135                   4.617904425837215
0.0025                    0.0145                   4.59297727803332
0.0025                    0.0155                   4.574400050673035
0.0025                    0.0165                   4.566064483687748
0.0025                    0.0175                   4.5677308354643635
0.0025                    0.0185                   4.582930503179068
0.0025                    0.0195                   4.634976274783069
0.0025                    0.0205                   4.7412016067045695
0.0025                    0.0215                   4.851980882883156
0.0025                    0.0225                   4.922431862849022
0.0025                    0.0235                   4.958878567006444
0.0025                    0.0245                   4.9742435675760985
0.0025                    0.0255                   4.981543528537838
0.0025                    0.0265                   4.986030285606342
0.0025                    0.0275                   4.988745031623291
0.0025                    0.0285                   4.987971640583117
0.0025                    0.0295                   4.981283295638517
0.0025                    0.0305                   4.969499845880757
0.0025                    0.0315                   4.959213330071211
0.0035                    -0.0315                  2.967640444717928
0.0035                    -0.0305                  2.9959763650443945
0.0035                    -0.0295                  3.0445408641624128
0.0035                    -0.0285                  3.104143656337342
0.0035                    -0.0275                  3.168373145373124
0.0035                    -0.0265                  3.2339400353793293
0.0035                    -0.0255                  3.299664319656879
0.0035                    -0.0245                  3.365429947202456
0.0035                    -0.0235                  3.431559100144286
0.0035                    -0.0225                  3.498449343178647
0.0035                    -0.0215                  3.566317212199987
0.0035                    -0.0205                  3.635045415179534
0.0035                    -0.0195                  3.7041802815976963
0.0035                    -0.0185                  3.773087082392057
0.0035                    -0.0175                  3.8412062739713133
0.0035                    -0.0165                  3.9082794768776776
0.0035                    -0.0155                  3.974399799664696
0.0035                    -0.0145                  4.039824364038685
0.0035                    -0.0135                  4.104693873920389
0.0035                    -0.0125                  4.168868349093303
0.0035                    -0.0115                  4.231905498586853
0.0035                    -0.0105                  4.293069100372116
0.0035                    -0.0095                  4.351341969834515
0.0035                    -0.0085                  4.405526986716545
0.0035                    -0.0075                  4.454800343265386
0.0035                    -0.0065                  4.4989411796396235
0.0035                    -0.0055                  4.537305847380796
0.0035                    -0.0045                  4.566977663695077
0.0035                    -0.0035                  4.581957798521345
0.0035                    -0.0025                  4.578453087687374
0.0035                    -0.0015                  4.560728605076448
0.0035                    -5.0E-4                  4.5374190794638665
0.0035                    5.0E-4                   4.515819240042221
0.0035                    0.0015                   4.500765961704488
0.0035                    0.0025                   4.4939425745529595
0.0035                    0.0035                   4.494368378654786
0.0035                    0.0045                   4.500363591010283
0.0035                    0.0055                   4.510550699239484
0.0035                    0.0065                   4.5242538860190225
0.0035                    0.0075                   4.54138740439506
0.0035                    0.0085                   4.562089799783446
0.0035                    0.0095                   4.585177840889346
0.0035                    0.0105                   4.607884524671492
0.0035                    0.0115                   4.625814700302547
0.0035                    0.0125                   4.6339959078707915
0.0035                    0.0135                   4.630694198069786
0.0035                    0.0145                   4.6199800444221575
0.0035                    0.0155                   4.610830542109534
0.0035                    0.0165                   4.612595325284743
0.0035                    0.0175                   4.632622647712974
0.0035                    0.0185                   4.679257442707128
0.0035                    0.0195                   4.758328754734527
0.0035                    0.0205                   4.847439356045297
0.0035                    0.0215                   4.911054041317209
0.0035                    0.0225                   4.943679814525079
0.0035                    0.0235                   4.95819258496473
0.0035                    0.0245                   4.965176873129403
0.0035                    0.0255                   4.970167140179476
0.0035                    0.0265                   4.974169073491149
0.0035                    0.0275                   4.976523269317919
0.0035                    0.0285                   4.974801851310814
0.0035                    0.0295                   4.966633033075081
0.0035                    0.0305                   4.9535601322201
0.0035                    0.0315                   4.942570937505346
0.0045                    -0.0315                  2.9123434875031977
0.0045                    -0.0305                  2.9377398415876206
0.0045                    -0.0295                  2.983046251053512
0.0045                    -0.0285                  3.0412147315051143
0.0045                    -0.0275                  3.1063534653100477
0.0045                    -0.0265                  3.174417079137079
0.0045                    -0.0255                  3.243233598984641
0.0045                    -0.0245                  3.312065564057534
0.0045                    -0.0235                  3.38106027581317
0.0045                    -0.0225                  3.450779537085301
0.0045                    -0.0215                  3.521783725385255
0.0045                    -0.0205                  3.594275223489605
0.0045                    -0.0195                  3.667902663421133
0.0045                    -0.0185                  3.7418134631115074
0.0045                    -0.0175                  3.814943920109768
0.0045                    -0.0165                  3.886445217331746
0.0045                    -0.0155                  3.956012268172417
0.0045                    -0.0145                  4.023886715586406
0.0045                    -0.0135                  4.090400612521548
0.0045                    -0.0125                  4.155413478243345
0.0045                    -0.0115                  4.217983383051672
0.0045                    -0.0105                  4.276483707657136
0.0045                    -0.0095                  4.329217152353976
0.0045                    -0.0085                  4.375505248307712
0.0045                    -0.0075                  4.416737285029449
0.0045                    -0.0065                  4.455902627358611
0.0045                    -0.0055                  4.494183381456388
0.0045                    -0.0045                  4.526008927486933
0.0045                    -0.0035                  4.5402801011299045
0.0045                    -0.0025                  4.532826961618653
0.0045                    -0.0015                  4.51134584866008
0.0045                    -5.0E-4                  4.487561447992913
0.0045                    5.0E-4                   4.470367364321873
0.0045                    0.0015                   4.463128126467487
0.0045                    0.0025                   4.464708132357351
0.0045                    0.0035                   4.471955618880505
0.0045                    0.0045                   4.482249556690686
0.0045                    0.0055                   4.494189336800745
0.0045                    0.0065                   4.507361973141988
0.0045                    0.0075                   4.522147422887141
0.0045                    0.0085                   4.539512941040657
0.0045                    0.0095                   4.560333571112427
0.0045                    0.0105                   4.5853117353387995
0.0045                    0.0115                   4.613747757575687
0.0045                    0.0125                   4.642054699836866
0.0045                    0.0135                   4.665265711254632
0.0045                    0.0145                   4.68256261153346
0.0045                    0.0155                   4.700982499291605
0.0045                    0.0165                   4.731109710450393
0.0045                    0.0175                   4.780960070913055
0.0045                    0.0185                   4.849080777198187
0.0045                    0.0195                   4.917387966956402
0.0045                    0.0205                   4.959218663082792
0.0045                    0.0215                   4.9682772882164254
0.0045                    0.0225                   4.9620191532995035
0.0045                    0.0235                   4.956701730284016
0.0045                    0.0245                   4.956820300763485
0.0045                    0.0255                   4.959838193059655
0.0045                    0.0265                   4.96301539450664
0.0045                    0.0275                   4.964116167978503
0.0045                    0.0285                   4.96012376597737
0.0045                    0.0295                   4.949275912964302
0.0045                    0.0305                   4.9343537910450195
0.0045                    0.0315                   4.922688015533164
0.0055                    -0.0315                  2.855170059716546
0.0055                    -0.0305                  2.878318560658905
0.0055                    -0.0295                  2.920646517543912
0.0055                    -0.0285                  2.9766837130274784
0.0055                    -0.0275                  3.041418333849724
0.0055                    -0.0265                  3.1107914006312587
0.0055                    -0.0255                  3.1819615998952235
0.0055                    -0.0245                  3.253410151650003
0.0055                    -0.0235                  3.3247939263883683
0.0055                    -0.0225                  3.3966309407231186
0.0055                    -0.0215                  3.4698574433115743
0.0055                    -0.0205                  3.5452814821595977
0.0055                    -0.0195                  3.6230595024878807
0.0055                    -0.0185                  3.7024335104355006
0.0055                    -0.0175                  3.7818636689403324
0.0055                    -0.0165                  3.8595254708477715
0.0055                    -0.0155                  3.934061831960445
0.0055                    -0.0145                  4.005093879972257
0.0055                    -0.0135                  4.073141508441117
0.0055                    -0.0125                  4.138528428626063
0.0055                    -0.0115                  4.200266654828959
0.0055                    -0.0105                  4.255985683672537
0.0055                    -0.0095                  4.303308326219154
0.0055                    -0.0085                  4.342406806764679
0.0055                    -0.0075                  4.376730168765442
0.0055                    -0.0065                  4.410642906610052
0.0055                    -0.0055                  4.4446448291917555
0.0055                    -0.0045                  4.472715161133547
0.0055                    -0.0035                  4.484439737010796
0.0055                    -0.0025                  4.476584159972303
0.0055                    -0.0015                  4.458716734145713
0.0055                    -5.0E-4                  4.4435376321929025
0.0055                    5.0E-4                   4.438006201305167
0.0055                    0.0015                   4.4415957497403
0.0055                    0.0025                   4.450781502737865
0.0055                    0.0035                   4.462697882135294
0.0055                    0.0045                   4.4757092320503045
0.0055                    0.0055                   4.48907323931339
0.0055                    0.0065                   4.502763248801038
0.0055                    0.0075                   4.517382172696202
0.0055                    0.0085                   4.534121995592243
0.0055                    0.0095                   4.554801480354337
0.0055                    0.0105                   4.58188265198859
0.0055                    0.0115                   4.617184656949553
0.0055                    0.0125                   4.66026550573784
0.0055                    0.0135                   4.707674426447578
0.0055                    0.0145                   4.756570905170969
0.0055                    0.0155                   4.810702230161695
0.0055                    0.0165                   4.876508661380002
0.0055                    0.0175                   4.953469117810574
0.0055                    0.0185                   5.025548758535837
0.0055                    0.0195                   5.064880128148396
0.0055                    0.0205                   5.055917582139326
0.0055                    0.0215                   5.015090761597456
0.0055                    0.0225                   4.975209232402564
0.0055                    0.0235                   4.954414896392556
0.0055                    0.0245                   4.949359679181895
0.0055                    0.0255                   4.950237936769897
0.0055                    0.0265                   4.951627398388501
0.0055                    0.0275                   4.950358679382814
0.0055                    0.0285                   4.943122798647321
0.0055                    0.0295                   4.929091584412119
0.0055                    0.0305                   4.912141787573853
0.0055                    0.0315                   4.89975920987069
0.0065                    -0.0315                  2.7965070132406895
0.0065                    -0.0305                  2.8179146676219444
0.0065                    -0.0295                  2.857739457387942
0.0065                    -0.0285                  2.911636607856666
0.0065                    -0.0275                  2.975423721047618
0.0065                    -0.0265                  3.0453552855796286
0.0065                    -0.0255                  3.118297934793738
0.0065                    -0.0245                  3.192017561377114
0.0065                    -0.0235                  3.265417176863439
0.0065                    -0.0225                  3.3386133703604948
0.0065                    -0.0215                  3.412738121978647
0.0065                    -0.0205                  3.4893979820693106
0.0065                    -0.0195                  3.569844475074934
0.0065                    -0.0185                  3.654113403474456
0.0065                    -0.0175                  3.740617966390487
0.0065                    -0.0165                  3.8264393060844446
0.0065                    -0.0155                  3.9083152107364674
0.0065                    -0.0145                  3.9842272314348652
0.0065                    -0.0135                  4.054101065491785
0.0065                    -0.0125                  4.119328294684525
0.0065                    -0.0115                  4.180338748561422
0.0065                    -0.0105                  4.234262648245545
0.0065                    -0.0095                  4.2776764720489195
0.0065                    -0.0085                  4.3114431195501135
0.0065                    -0.0075                  4.340652910240431
0.0065                    -0.0065                  4.3693477574375095
0.0065                    -0.0055                  4.397700647522489
0.0065                    -0.0045                  4.420954187878512
0.0065                    -0.0035                  4.430839258951597
0.0065                    -0.0025                  4.426709658072652
0.0065                    -0.0015                  4.418738552843694
0.0065                    -5.0E-4                  4.4161092319136745
0.0065                    5.0E-4                   4.420754808470829
0.0065                    0.0015                   4.430692855264249
0.0065                    0.0025                   4.443703007537112
0.0065                    0.0035                   4.458163091554496
0.0065                    0.0045                   4.472976014015606
0.0065                    0.0055                   4.487682249936859
0.0065                    0.0065                   4.502530948208243
0.0065                    0.0075                   4.518382847707779
0.0065                    0.0085                   4.536680794547488
0.0065                    0.0095                   4.559596106029772
0.0065                    0.0105                   4.590014186730671
0.0065                    0.0115                   4.6306023026597565
0.0065                    0.0125                   4.682226279807106