% Model:              Benchmark260518.mph
% Version:            COMSOL 6.2.0.339
% Date:               May 20 2026, 03:47
% Dimension:          2
% Nodes:              4096
% Expressions:        1
% Description:        压力
% Length unit:        m
% x                       y                        p (Pa)
% mirrored_by_python_y_to_minus_y, coord_match_decimals=12
0.0005 -0.0315 4.98412944466
0.0005 -0.0305 4.99213855272
0.0005 -0.0295 5.00174958419
0.0005 -0.0285 5.01036148703
0.0005 -0.0275 5.01570896355
0.0005 -0.0265 5.01686918619
0.0005 -0.0255 5.013570299
0.0005 -0.0245 5.00113442027
0.0005 -0.0235 4.96685075333
0.0005 -0.0225 4.89048580778
0.0005 -0.0215 4.75061139982
0.0005 -0.0205 4.58669535969
0.0005 -0.0195 4.49479498733
0.0005 -0.0185 4.47844785236
0.0005 -0.0175 4.47927503192
0.0005 -0.0165 4.48197224095
0.0005 -0.0155 4.48998708694
0.0005 -0.0145 4.50942050868
0.0005 -0.0135 4.54203724785
0.0005 -0.0125 4.58148506018
0.0005 -0.0115 4.617299577
0.0005 -0.0105 4.64163279537
0.0005 -0.0095 4.65265119447
0.0005 -0.0085 4.65448086603
0.0005 -0.0075 4.653843884
0.0005 -0.0065 4.65526720953
0.0005 -0.0055 4.65868689334
0.0005 -0.0045 4.66116605255
0.0005 -0.0035 4.65913012889
0.0005 -0.0025 4.64915043266
0.0005 -0.0015 4.62706949074
0.0005 -0.0005 4.58921031108
0.0005 0.0005 4.53861488554
0.0005 0.0015 4.48170217759
0.0005 0.0025 4.42327953426
0.0005 0.0035 4.3669711348
0.0005 0.0045 4.31339448122
0.0005 0.0055 4.26176078821
0.0005 0.0065 4.21154032649
0.0005 0.0075 4.16253704604
0.0005 0.0085 4.11458848151
0.0005 0.0095 4.0675011807
0.0005 0.0105 4.02114663553
0.0005 0.0115 3.97540486208
0.0005 0.0125 3.93010686215
0.0005 0.0135 3.88509815866
0.0005 0.0145 3.84031196296
0.0005 0.0155 3.79575046737
0.0005 0.0165 3.75141038059
0.0005 0.0175 3.70722255487
0.0005 0.0185 3.66313602792
0.0005 0.0195 3.61924035647
0.0005 0.0205 3.57561731533
0.0005 0.0215 3.53218778851
0.0005 0.0225 3.48890374841
0.0005 0.0235 3.44588030057
0.0005 0.0245 3.40319473983
0.0005 0.0255 3.36078718889
0.0005 0.0265 3.31857379447
0.0005 0.0275 3.27679776534
0.0005 0.0285 3.23630558582
0.0005 0.0295 3.19793650697
0.0005 0.0305 3.16293162887
0.0005 0.0315 3.13728498182
0.0015 -0.0315 4.97512526094
0.0015 -0.0305 4.98530855398
0.0015 -0.0295 4.99695688764
0.0015 -0.0285 5.00450382198
0.0015 -0.0275 5.00700825926
0.0015 -0.0265 5.00619254933
0.0015 -0.0255 5.00251725432
0.0015 -0.0245 4.99237770879
0.0015 -0.0235 4.96459227893
0.0015 -0.0225 4.8967072624
0.0015 -0.0215 4.76623310044
0.0015 -0.0205 4.58698658033
0.0015 -0.0195 4.48584872723
0.0015 -0.0185 4.48005685621
0.0015 -0.0175 4.47866233684
0.0015 -0.0165 4.47831306731
0.0015 -0.0155 4.4828902355
0.0015 -0.0145 4.50001672529
0.0015 -0.0135 4.53197625255
0.0015 -0.0125 4.57115849929
0.0015 -0.0115 4.60575686742
0.0015 -0.0105 4.62802888308
0.0015 -0.0095 4.63749650643
0.0015 -0.0085 4.63982545584
0.0015 -0.0075 4.64208709544
0.0015 -0.0065 4.64793248872
0.0015 -0.0055 4.65583464891
0.0015 -0.0045 4.66118986745
0.0015 -0.0035 4.65924960832
0.0015 -0.0025 4.64665503326
0.0015 -0.0015 4.62050002708
0.0015 -0.0005 4.57716197876
0.0015 0.0005 4.52096576422
0.0015 0.0015 4.46071910045
0.0015 0.0025 4.40140433932
0.0015 0.0035 4.34586165213
0.0015 0.0045 4.29391584054
0.0015 0.0055 4.24446650082
0.0015 0.0065 4.19661697896
0.0015 0.0075 4.14985413285
0.0015 0.0085 4.1038807925
0.0015 0.0095 4.05850260599
0.0015 0.0105 4.01356889688
0.0015 0.0115 3.96893613766
0.0015 0.0125 3.92445849361
0.0015 0.0135 3.88001879799
0.0015 0.0145 3.83555915315
0.0015 0.0155 3.79106981624
0.0015 0.0165 3.74654406927
0.0015 0.0175 3.70196363906
0.0015 0.0185 3.65733885373
0.0015 0.0195 3.61271902383
0.0015 0.0205 3.56813520086
0.0015 0.0215 3.52358272664
0.0015 0.0225 3.47908071414
0.0015 0.0235 3.43468293109
0.0015 0.0245 3.39040963652
0.0015 0.0255 3.34621908409
0.0015 0.0265 3.30213270376
0.0015 0.0275 3.25844520742
0.0015 0.0285 3.21565593432
0.0015 0.0295 3.17445769768
0.0015 0.0305 3.13703927828
0.0015 0.0315 3.11137653002
0.0025 -0.0315 4.96085186686
0.0025 -0.0305 4.97336610974
0.0025 -0.0295 4.98760263972
0.0025 -0.0285 4.9959744234
0.0025 -0.0275 4.99801704236
0.0025 -0.0265 4.99650752704
0.0025 -0.0255 4.99284835332
0.0025 -0.0245 4.98510988219
0.0025 -0.0235 4.96567003177
0.0025 -0.0225 4.91691455137
0.0025 -0.0215 4.82277885642
0.0025 -0.0205 4.68058723206
0.0025 -0.0195 4.55285495536
0.0025 -0.0185 4.49670647893
0.0025 -0.0175 4.48143406153
0.0025 -0.0165 4.4762608339
0.0025 -0.0155 4.47937349716
0.0025 -0.0145 4.49500906355
0.0025 -0.0135 4.52257455698
0.0025 -0.0125 4.55321618168
0.0025 -0.0115 4.57654260602
0.0025 -0.0105 4.58806900312
0.0025 -0.0095 4.59061922703
0.0025 -0.0085 4.59170493802
0.0025 -0.0075 4.59798881323
0.0025 -0.0065 4.61174909846
0.0025 -0.0055 4.62995072919
0.0025 -0.0045 4.6449268773
0.0025 -0.0035 4.64652224738
0.0025 -0.0025 4.62850287624
0.0025 -0.0015 4.59163386685
0.0025 -0.0005 4.53901715593
0.0025 0.0005 4.47786516636
0.0025 0.0015 4.416488865
0.0025 0.0025 4.35889112151
0.0025 0.0035 4.30641165765
0.0025 0.0045 4.25823200357
0.0025 0.0055 4.21293902067
0.0025 0.0065 4.16930110276
0.0025 0.0075 4.1265061065
0.0025 0.0085 4.08409474788
0.0025 0.0095 4.04179893853
0.0025 0.0105 3.99942184101
0.0025 0.0115 3.95679540938
0.0025 0.0125 3.91378683196
0.0025 0.0135 3.87031166302
0.0025 0.0145 3.82633572381
0.0025 0.0155 3.78186167245
0.0025 0.0165 3.73691270025
0.0025 0.0175 3.69152736661
0.0025 0.0185 3.64575154028
0.0025 0.0195 3.59962631816
0.0025 0.0205 3.55319900414
0.0025 0.0215 3.50653810379
0.0025 0.0225 3.45971744934
0.0025 0.0235 3.41279516002
0.0025 0.0245 3.36581329073
0.0025 0.0255 3.31882619999
0.0025 0.0265 3.27196286154
0.0025 0.0275 3.22545507414
0.0025 0.0285 3.17977413244
0.0025 0.0295 3.13629883304
0.0025 0.0305 3.09889563679
0.0025 0.0315 3.07557594305
0.0035 -0.0315 4.94208292507
0.0035 -0.0305 4.95678043331
0.0035 -0.0295 4.97418719416
0.0035 -0.0285 4.98523144883
0.0035 -0.0275 4.98839465627
0.0035 -0.0265 4.98682913196
0.0035 -0.0255 4.9831593464
0.0035 -0.0245 4.97733534537
0.0035 -0.0235 4.96607059388
0.0035 -0.0225 4.93977211241
0.0035 -0.0215 4.88496180647
0.0035 -0.0205 4.79270732835
0.0035 -0.0195 4.67825787967
0.0035 -0.0185 4.58639008195
0.0035 -0.0175 4.53720485131
0.0035 -0.0165 4.51591148751
0.0035 -0.0155 4.51203315072
0.0035 -0.0145 4.51943429858
0.0035 -0.0135 4.53010387905
0.0035 -0.0125 4.53550145137
0.0035 -0.0115 4.53133025268
0.0035 -0.0105 4.5203435534
0.0035 -0.0095 4.5095358966
0.0035 -0.0085 4.50595298813
0.0035 -0.0075 4.51436992461
0.0035 -0.0065 4.53559400888
0.0035 -0.0055 4.56484323773
0.0035 -0.0045 4.5918578008
0.0035 -0.0035 4.60120720857
0.0035 -0.0025 4.58077238406
0.0035 -0.0015 4.53356517376
0.0035 -0.0005 4.4730802473
0.0035 0.0005 4.41110557733
0.0035 0.0015 4.35342259822
0.0035 0.0025 4.30137089685
0.0035 0.0035 4.25456205355
0.0035 0.0045 4.21192986824
0.0035 0.0055 4.17205547739
0.0035 0.0065 4.13367490152
0.0035 0.0075 4.09585423917
0.0035 0.0085 4.057978819
0.0035 0.0095 4.01964015273
0.0035 0.0105 3.98053815577
0.0035 0.0115 3.94045175914
0.0035 0.0125 3.89924581257
0.0035 0.0135 3.8568693875
0.0035 0.0145 3.8133341701
0.0035 0.0155 3.76868847454
0.0035 0.0165 3.72300054595
0.0035 0.0175 3.67634675591
0.0035 0.0185 3.62880415285
0.0035 0.0195 3.58045986439
0.0035 0.0205 3.53143059328
0.0035 0.0215 3.48186487741
0.0035 0.0225 3.43192367451
0.0035 0.0235 3.38176318106
0.0035 0.0245 3.33153849775
0.0035 0.0255 3.28142416278
0.0035 0.0265 3.23163904066
0.0035 0.0275 3.18256309505
0.0035 0.0285 3.13514509475
0.0035 0.0295 3.09168301564
0.0035 0.0305 3.05653461823
0.0035 0.0315 3.03592623201
0.0045 -0.0315 4.91876826644
0.0045 -0.0305 4.935309731
0.0045 -0.0295 4.9562825043
0.0045 -0.0285 4.97144405194
0.0045 -0.0275 4.9773601019
0.0045 -0.0265 4.97672082911
0.0045 -0.0255 4.97330274731
0.0045 -0.0245 4.96886782072
0.0045 -0.0235 4.96386311028
0.0045 -0.0225 4.9571801955
0.0045 -0.0215 4.94264010964
0.0045 -0.0205 4.90988559186
0.0045 -0.0195 4.84859966019
0.0045 -0.0185 4.76927149738
0.0045 -0.0175 4.69922808871
0.0045 -0.0165 4.65068436192
0.0045 -0.0155 4.61917885535
0.0045 -0.0145 4.59296012674
0.0045 -0.0135 4.56237769269
0.0045 -0.0125 4.52507082569
0.0045 -0.0115 4.48570242864
0.0045 -0.0105 4.45162275219
0.0045 -0.0095 4.42771385845
0.0045 -0.0085 4.41661363935
0.0045 -0.0075 4.42025669568
0.0045 -0.0065 4.43979363053
0.0045 -0.0055 4.47164463962
0.0045 -0.0045 4.5042594709
0.0045 -0.0035 4.51919849954
0.0045 -0.0025 4.50080802908
0.0045 -0.0015 4.45232329752
0.0045 -0.0005 4.39180829218
0.0045 0.0005 4.3336382802
0.0045 0.0015 4.28229070214
0.0045 0.0025 4.23714950766
0.0045 0.0035 4.19702427273
0.0045 0.0045 4.16052762015
0.0045 0.0055 4.12643959822
0.0045 0.0065 4.09363528269
0.0045 0.0075 4.06116579417
0.0045 0.0085 4.02825332148
0.0045 0.0095 3.99426572102
0.0045 0.0105 3.95872243013
0.0045 0.0115 3.92131955934
0.0045 0.0125 3.88192570007
0.0045 0.0135 3.84054020857
0.0045 0.0145 3.79723547571
0.0045 0.0155 3.75211191746
0.0045 0.0165 3.70527587742
0.0045 0.0175 3.65683829266
0.0045 0.0185 3.60692980513
0.0045 0.0195 3.55572366811
0.0045 0.0205 3.50345063799
0.0045 0.0215 3.4503943728
0.0045 0.0225 3.39686927265
0.0045 0.0235 3.34319371744
0.0045 0.0245 3.28967609865
0.0045 0.0255 3.23662895356
0.0045 0.0265 3.18445419588
0.0045 0.0275 3.13388377089
0.0045 0.0285 3.08639922118
0.0045 0.0295 3.04462244986
0.0045 0.0305 3.01231156629
0.0045 0.0315 2.99404294481
0.0055 -0.0315 4.89116667886
0.0055 -0.0305 4.90884456174
0.0055 -0.0295 4.93301805057
0.0055 -0.0285 4.95302073824
0.0055 -0.0275 4.9634149982
0.0055 -0.0265 4.96534981742
0.0055 -0.0255 4.96318512366
0.0055 -0.0245 4.96017066588
0.0055 -0.0235 4.9594727221
0.0055 -0.0225 4.96722966219
0.0055 -0.0215 4.98764331088
0.0055 -0.0205 5.01159778461
0.0055 -0.0195 5.01533887481
0.0055 -0.0185 4.98336480081
0.0055 -0.0175 4.92397110438
0.0055 -0.0165 4.85389566051
0.0055 -0.0155 4.78075981519
0.0055 -0.0145 4.70111888072
0.0055 -0.0135 4.61477635757
0.0055 -0.0125 4.53167236384
0.0055 -0.0115 4.46331954118
0.0055 -0.0105 4.4142915066
0.0055 -0.0095 4.38232719098
0.0055 -0.0085 4.36400919696
0.0055 -0.0075 4.35756019041
0.0055 -0.0065 4.36401221495
0.0055 -0.0055 4.38374755866
0.0055 -0.0045 4.40940454662
0.0055 -0.0035 4.42295943008
0.0055 -0.0025 4.40722512976
0.0055 -0.0015 4.36449146712
0.0055 -0.0005 4.31138607884
0.0055 0.0005 4.25998135848
0.0055 0.0015 4.21438828187
0.0055 0.0025 4.17486570174
0.0055 0.0035 4.14021805418
0.0055 0.0045 4.1090398086
0.0055 0.0055 4.08017145744
0.0055 0.0065 4.05262895001
0.0055 0.0075 4.02539058427
0.0055 0.0085 3.99739625313
0.0055 0.0095 3.96767557474
0.0055 0.0105 3.9355267685
0.0055 0.0115 3.90057549521
0.0055 0.0125 3.86271905274
0.0055 0.0135 3.82201422676
0.0055 0.0145 3.77858157057
0.0055 0.0155 3.73255208647
0.0055 0.0165 3.68405814827
0.0055 0.0175 3.63325608403
0.0055 0.0185 3.58036330882
0.0055 0.0195 3.52569157544
0.0055 0.0205 3.46965678765
0.0055 0.0215 3.4127555691
0.0055 0.0225 3.35551593568
0.0055 0.0235 3.29844618673
0.0055 0.0245 3.24201440755
0.0055 0.0255 3.18669588876
0.0055 0.0265 3.13312450408
0.0055 0.0275 3.08234148719
0.0055 0.0285 3.03603429734
0.0055 0.0295 2.99659638607
0.0055 0.0305 2.96699804929
0.0055 0.0315 2.95064770173
0.0065 -0.0315 4.85996320488
0.0065 -0.0305 4.87762402621
0.0065 -0.0295 4.90354557382
0.0065 -0.0285 4.92778189571
0.0065 -0.0275 4.94390131784
0.0065 -0.0265 4.95071920885
0.0065 -0.0255 4.95171077686
0.0065 -0.0245 4.95112629533
0.0065 -0.0235 4.95407208969
0.0065 -0.0225 4.9719307733
0.0065 -0.0215 5.01796567728
0.0065 -0.0205 5.08651790019
0.0065 -0.0195 5.14423521118
0.0065 -0.0185 5.15696338765
0.0065 -0.0175 5.11664459235
0.0065 -0.0165 5.0357900727
0.0065 -0.0155 4.92902563884
0.0065 -0.0145 4.8050963243
0.0065 -0.0135 4.67527211307
0.0065 -0.0125 4.55934279861
0.0065 -0.0115 4.4712370193
0.0065 -0.0105 4.41078854605
0.0065 -0.0095 4.37181055486
0.0065 -0.0085 4.34762650236
0.0065 -0.0075 4.33314486936
0.0065 -0.0065 4.32625785185
0.0065 -0.0055 4.32766809642
0.0065 -0.0045 4.33588421698
0.0065 -0.0035 4.33987886842
0.0065 -0.0025 4.32372770237
0.0065 -0.0015 4.28588062484
0.0065 -0.0005 4.24054476562
0.0065 0.0005 4.19666772007
0.0065 0.0015 4.15628055758
0.0065 0.0025 4.12065686152
0.0065 0.0035 4.08937250852
0.0065 0.0045 4.06179123967
0.0065 0.0055 4.03694141486
0.0065 0.0065 4.01387148358
0.0065 0.0075 3.99129904016
0.0065 0.0085 3.96765956016
0.0065 0.0095 3.94159977814
0.0065 0.0105 3.91223598597
0.0065 0.0115 3.87917974753
0.0065 0.0125 3.84236347034
0.0065 0.0135 3.80186679771
0.0065 0.0145 3.75780784992
0.0065 0.0155 3.71030984003
0.0065 0.0165 3.65952266022
0.0065 0.0175 3.60567333362
0.0065 0.0185 3.54912690063
0.0065 0.0195 3.4904240622
0.0065 0.0205 3.43026471405
0.0065 0.0215 3.36943320735
0.0065 0.0225 3.30869794251
0.0065 0.0235 3.24873903809
0.0065 0.0245 3.19014970778
0.0065 0.0255 3.13353184592
0.0065 0.0265 3.0796676476
0.0065 0.0275 3.02969675958
0.0065 0.0285 2.98520268438
0.0065 0.0295 2.94817991786
0.0065 0.0305 2.92095656592
0.0065 0.0315 2.9061527989
0.0075 -0.0315 4.82594404262
0.0075 -0.0305 4.84219056441
0.0075 -0.0295 4.86755389611
0.0075 -0.0285 4.89387299788
0.0075 -0.0275 4.9150839329
0.0075 -0.0265 4.92844633112
0.0075 -0.0255 4.93538482363
0.0075 -0.0245 4.93969640413
0.0075 -0.0235 4.94715954617
0.0075 -0.0225 4.97197290173
0.0075 -0.0215 5.03300137244
0.0075 -0.0205 5.12662257683
0.0075 -0.0195 5.21366258678
0.0075 -0.0185 5.2502745829
0.0075 -0.0175 5.22158523192
0.0075 -0.0165 5.13891121038
0.0075 -0.0155 5.02017326708
0.0075 -0.0145 4.88105008144
0.0075 -0.0135 4.73565906652
0.0075 -0.0125 4.60213807479
0.0075 -0.0115 4.49658336093
0.0075 -0.0105 4.42212594147
0.0075 -0.0095 4.37338480985
0.0075 -0.0085 4.34278016736
0.0075 -0.0075 4.32299340141
0.0075 -0.0065 4.30884917394
0.0075 -0.0055 4.29841711902
0.0075 -0.0045 4.29090305658
0.0075 -0.0035 4.28186166763
0.0075 -0.0025 4.26117447503
0.0075 -0.0015 4.22453906813
0.0075 -0.0005 4.18243180904
0.0075 0.0005 4.1438115109
0.0075 0.0015 4.10846049816
0.0075 0.0025 4.07614474295
0.0075 0.0035 4.04720968398
0.0075 0.0045 4.02179491832
0.0075 0.0055 3.99989242181
0.0075 0.0065 3.98033367342
0.0075 0.0075 3.96132385988
0.0075 0.0085 3.94089367598
0.0075 0.0095 3.91736569736
0.0075 0.0105 3.88981842399
0.0075 0.0115 3.85788271099
0.0075 0.0125 3.82146867995
0.0075 0.0135 3.78057943988
0.0075 0.0145 3.73524601206
0.0075 0.0155 3.68554468353
0.0075 0.0165 3.6316487502
0.0075 0.0175 3.57391845111
0.0075 0.0185 3.51298485481
0.0075 0.0195 3.44976012892
0.0075 0.0205 3.38533980256
0.0075 0.0215 3.32083191121
0.0075 0.0225 3.25720338198
0.0075 0.0235 3.19521968284
0.0075 0.0245 3.13549939497
0.0075 0.0255 3.07865454594
0.0075 0.0265 3.02545401091
0.0075 0.0275 2.97694010846
0.0075 0.0285 2.93446359093
0.0075 0.0295 2.89965843478
0.0075 0.0305 2.87440369556
0.0075 0.0315 2.86081188903
0.0085 -0.0315 4.78960361678
0.0085 -0.0305 4.80325084058
0.0085 -0.0295 4.82562522195
0.0085 -0.0285 4.85081238985
0.0085 -0.0275 4.87415423538
0.0085 -0.0265 4.89350864886
0.0085 -0.0255 4.90866939069
0.0085 -0.0245 4.9208122185
0.0085 -0.0235 4.93380736244
0.0085 -0.0225 4.96114189001
0.0085 -0.0215 5.02321729428
0.0085 -0.0205 5.12011845206
0.0085 -0.0195 5.21424426036
0.0085 -0.0185 5.25948080376
0.0085 -0.0175 5.24022398192
0.0085 -0.0165 5.16874087596
0.0085 -0.0155 5.06157338797
0.0085 -0.0145 4.93181145541
0.0085 -0.0135 4.78984001265
0.0085 -0.0125 4.64975219091
0.0085 -0.0115 4.52947799588
0.0085 -0.0105 4.43860379604
0.0085 -0.0095 4.37679820138
0.0085 -0.0085 4.33773850895
0.0085 -0.0075 4.31239115559
0.0085 -0.0065 4.29336025394
0.0085 -0.0055 4.27681773152
0.0085 -0.0045 4.2608294864
0.0085 -0.0035 4.24276380408
0.0085 -0.0025 4.21743267698
0.0085 -0.0015 4.18081832633
0.0085 -0.0005 4.13846585645
0.0085 0.0005 4.10073533847
0.0085 0.0015 4.06890331632
0.0085 0.0025 4.03989424918
0.0085 0.0035 4.01348851139
0.0085 0.0045 3.99015949224
0.0085 0.0055 3.9706561073
0.0085 0.0065 3.95380093501
0.0085 0.0075 3.93701104214
0.0085 0.0085 3.91818986261
0.0085 0.0095 3.89576016719
0.0085 0.0105 3.86890565085
0.0085 0.0115 3.83724934853
0.0085 0.0125 3.80053386325
0.0085 0.0135 3.75852790891
0.0085 0.0145 3.71108495652
0.0085 0.0155 3.65819798318
0.0085 0.0165 3.60011123141
0.0085 0.0175 3.53746945531
0.0085 0.0185 3.47138603088
0.0085 0.0195 3.40333464737
0.0085 0.0205 3.33487714693
0.0085 0.0215 3.26738005798
0.0085 0.0225 3.20186154847
0.0085 0.0235 3.13900671048
0.0085 0.0245 3.07930496834
0.0085 0.0255 3.0232315723
0.0085 0.0265 2.97140309642
0.0085 0.0275 2.92467010271
0.0085 0.0285 2.88414932358
0.0085 0.0295 2.85121774021
0.0085 0.0305 2.8274895871
0.0085 0.0315 2.81479370984
0.0095 -0.0315 4.75128088186
0.0095 -0.0305 4.76156291142
0.0095 -0.0295 4.77911533848
0.0095 -0.0285 4.80025209544
0.0095 -0.0275 4.82238048733
0.0095 -0.0265 4.84492671164
0.0095 -0.0255 4.86728871964
0.0095 -0.0245 4.88726061637
0.0095 -0.0235 4.90375064934
0.0095 -0.0225 4.92592456548
0.0095 -0.0215 4.97376829565
0.0095 -0.0205 5.05724028501
0.0095 -0.0195 5.15041602863
0.0095 -0.0185 5.20679300864
0.0095 -0.0175 5.20624948207
0.0095 -0.0165 5.15793550575
0.0095 -0.0155 5.07263836411
0.0095 -0.0145 4.95818699272
0.0095 -0.0135 4.82438707345
0.0095 -0.0125 4.6856276408
0.0095 -0.0115 4.55883944038
0.0095 -0.0105 4.45588960185
0.0095 -0.0095 4.38110665179
0.0095 -0.0085 4.33131465297
0.0095 -0.0075 4.29840068937
0.0095 -0.0065 4.27416648857
0.0095 -0.0055 4.25323257845
0.0095 -0.0045 4.23267814131
0.0095 -0.0035 4.21054419853
0.0095 -0.0025 4.18384013512
0.0095 -0.0015 4.14907627858
0.0095 -0.0005 4.10756860756
0.0095 0.0005 4.06817913331
0.0095 0.0015 4.03659794467
0.0095 0.0025 4.0102455127
0.0095 0.0035 3.98681912142
0.0095 0.0045 3.96647553327
0.0095 0.0055 3.94941267824
0.0095 0.0065 3.93423556844
0.0095 0.0075 3.91831244819
0.0095 0.0085 3.89962375441
0.0095 0.0095 3.87699395046
0.0095 0.0105 3.84983426009
0.0095 0.0115 3.81768171018
0.0095 0.0125 3.77991012874
0.0095 0.0135 3.73591986995
0.0095 0.0145 3.68526464918
0.0095 0.0155 3.62782836718
0.0095 0.0165 3.56409535059
0.0095 0.0175 3.49532491194
0.0095 0.0185 3.42345834047
0.0095 0.0195 3.35068952778
0.0095 0.0205 3.27896293545
0.0095 0.0215 3.20967171221
0.0095 0.0225 3.14362756753
0.0095 0.0235 3.08122240086
0.0095 0.0245 3.02266121937
0.0095 0.0255 2.96817409816
0.0095 0.0265 2.9181639566
0.0095 0.0275 2.87328802288
0.0095 0.0285 2.83449049907
0.0095 0.0295 2.80300552482
0.0095 0.0305 2.78033928743
0.0095 0.0315 2.76822568065
0.0105 -0.0315 4.71147241006
0.0105 -0.0305 4.71796506157
0.0105 -0.0295 4.72979632422
0.0105 -0.0285 4.74551182889
0.0105 -0.0275 4.76473070257
0.0105 -0.0265 4.78736809246
0.0105 -0.0255 4.81235932767
0.0105 -0.0245 4.83536897018
0.0105 -0.0235 4.85057268827
0.0105 -0.0225 4.86313184897
0.0105 -0.0215 4.89309557465
0.0105 -0.0205 4.95700975224
0.0105 -0.0195 5.04289738201
0.0105 -0.0185 5.11167515725
0.0105 -0.0175 5.13565265715
0.0105 -0.0165 5.11297486574
0.0105 -0.0155 5.04882755117
0.0105 -0.0145 4.95028335241
0.0105 -0.0135 4.8285753409
0.0105 -0.0125 4.69812788815
0.0105 -0.0115 4.57358359937
0.0105 -0.0105 4.46660589449
0.0105 -0.0095 4.38315242449
0.0105 -0.0085 4.32293436612
0.0105 -0.0075 4.28115545247
0.0105 -0.0065 4.25090775239
0.0105 -0.0055 4.22587799088
0.0105 -0.0045 4.20234084661
0.0105 -0.0035 4.17891282181
0.0105 -0.0025 4.1536247584
0.0105 -0.0015 4.12287498451
0.0105 -0.0005 4.08527279108
0.0105 0.0005 4.04590442015
0.0105 0.0015 4.01247252657
0.0105 0.0025 3.98683549603
0.0105 0.0035 3.96624877796
0.0105 0.0045 3.94901764744
0.0105 0.0055 3.93414676495
0.0105 0.0065 3.91975964789
0.0105 0.0075 3.90370000637
0.0105 0.0085 3.88428584123
0.0105 0.0095 3.86076694037
0.0105 0.0105 3.83268916194
0.0105 0.0115 3.79931447631
0.0105 0.0125 3.75968713975
0.0105 0.0135 3.71263815301
0.0105 0.0145 3.65721909936
0.0105 0.0155 3.59329705146
0.0105 0.0165 3.52203415764
0.0105 0.0175 3.44594393371
0.0105 0.0185 3.36816481718
0.0105 0.0195 3.29152997312
0.0105 0.0205 3.21800627365
0.0105 0.0215 3.14861080744
0.0105 0.0225 3.08364110633
0.0105 0.0235 3.02301029329
0.0105 0.0245 2.96654725663
0.0105 0.0255 2.91420774127
0.0105 0.0265 2.86620094527
0.0105 0.0275 2.82305342603
0.0105 0.0285 2.78563083887
0.0105 0.0295 2.75513458567
0.0105 0.0305 2.73308318124
0.0105 0.0315 2.72125935192
0.0115 -0.0315 4.67077590544
0.0115 -0.0305 4.67342361723
0.0115 -0.0295 4.67960165189
0.0115 -0.0285 4.6902103586
0.0115 -0.0275 4.70642511983
0.0115 -0.0265 4.72744783304
0.0115 -0.0255 4.75059366694
0.0115 -0.0245 4.77102986513
0.0115 -0.0235 4.78264637329
0.0115 -0.0225 4.78999788969
0.0115 -0.0215 4.80992400118
0.0115 -0.0205 4.85571624369
0.0115 -0.0195 4.92535391702
0.0115 -0.0185 4.99468244145
0.0115 -0.0175 5.03465976133
0.0115 -0.0165 5.03203201857
0.0115 -0.0155 4.98629036586
0.0115 -0.0145 4.90467894045
0.0115 -0.0135 4.79887706868
0.0115 -0.0125 4.68227782052
0.0115 -0.0115 4.56716343022
0.0115 -0.0105 4.46346840756
0.0115 -0.0095 4.37730028899
0.0115 -0.0085 4.31047298593
0.0115 -0.0075 4.26120063506
0.0115 -0.0065 4.22495558125
0.0115 -0.0055 4.19611138344
0.0115 -0.0045 4.1708901368
0.0115 -0.0035 4.14750406634
0.0115 -0.0025 4.12416425835
0.0115 -0.0015 4.09762347418
0.0115 -0.0005 4.06548412744
0.0115 0.0005 4.03005670163
0.0115 0.0015 3.99698724308
0.0115 0.0025 3.97074980396
0.0115 0.0035 3.95129364797
0.0115 0.0045 3.9358067721
0.0115 0.0055 3.92197477257
0.0115 0.0065 3.90791015089
0.0115 0.0075 3.89142602612
0.0115 0.0085 3.87087009408
0.0115 0.0095 3.84607635924
0.0115 0.0105 3.81676454792
0.0115 0.0115 3.78176501975
0.0115 0.0125 3.7394416448
0.0115 0.0135 3.68780498287
0.0115 0.0145 3.62534639093
0.0115 0.0155 3.55224447803
0.0115 0.0165 3.47141953917
0.0115 0.0175 3.3874634491
0.0115 0.0185 3.30471743272
0.0115 0.0195 3.22610352255
0.0115 0.0205 3.15297046487
0.0115 0.0215 3.08549700153
0.0115 0.0225 3.02322669368
0.0115 0.0235 2.96551487407
0.0115 0.0245 2.91182168039
0.0115 0.0255 2.86188260673
0.0115 0.0265 2.81579839291
0.0115 0.0275 2.7740697238
0.0115 0.0285 2.73759493169
0.0115 0.0295 2.70764703886
0.0115 0.0305 2.68585180534
0.0115 0.0315 2.67413007517
0.0125 -0.0315 4.62960589632
0.0125 -0.0305 4.62895123773
0.0125 -0.0295 4.63051585343
0.0125 -0.0285 4.63728682608
0.0125 -0.0275 4.65072231469
0.0125 -0.0265 4.66924174583
0.0125 -0.0255 4.68890589239
0.0125 -0.0245 4.70524531759
0.0125 -0.0235 4.7152277483
0.0125 -0.0225 4.72345899499
0.0125 -0.0215 4.73976357485
0.0125 -0.0205 4.77127933583
0.0125 -0.0195 4.82139002727
0.0125 -0.0185 4.87776675357
0.0125 -0.0175 4.91679378712
0.0125 -0.0165 4.92223693076
0.0125 -0.0155 4.88960334307
0.0125 -0.0145 4.8243371103
0.0125 -0.0135 4.73637827968
0.0125 -0.0125 4.63680994052
0.0125 -0.0115 4.53573769008
0.0125 -0.0105 4.44113268183
0.0125 -0.0095 4.35848687821
0.0125 -0.0085 4.29061482364
0.0125 -0.0075 4.2376743042
0.0125 -0.0065 4.19761857103
0.0125 -0.0055 4.1664837708
0.0125 -0.0045 4.14066059978
0.0125 -0.0035 4.11758447706
0.0125 -0.0025 4.09502327027
0.0125 -0.0015 4.07107254777
0.0125 -0.0005 4.04408941655
0.0125 0.0005 4.0150290797
0.0125 0.0015 3.98707803028
0.0125 0.0025 3.96266665099
0.0125 0.0035 3.94293106074
0.0125 0.0045 3.92696386534
0.0125 0.0055 3.91254223057
0.0125 0.0065 3.89784172579
0.0125 0.0075 3.88065425748
0.0125 0.0085 3.85901456895
0.0125 0.0095 3.83241426865
0.0125 0.0105 3.8006586521
0.0125 0.0115 3.76315878241
0.0125 0.0125 3.71729280014
0.0125 0.0135 3.65893810832
0.0125 0.0145 3.58602202294
0.0125 0.0155 3.50066034713
0.0125 0.0165 3.40912871997
0.0125 0.0175 3.31839324039
0.0125 0.0185 3.23321289079
0.0125 0.0195 3.15557154788
0.0125 0.0205 3.08549213255
0.0125 0.0215 3.02199534709
0.0125 0.0225 2.96381553366
0.0125 0.0235 2.9098091447
0.0125 0.0245 2.859167745
0.0125 0.0255 2.81152904753
0.0125 0.0265 2.76701890193
0.0125 0.0275 2.72624365229
0.0125 0.0285 2.69024920954
0.0125 0.0295 2.66046943932
0.0125 0.0305 2.63870692299
0.0125 0.0315 2.62703959866
0.0135 -0.0315 4.58833766825
0.0135 -0.0305 4.58552605907
0.0135 -0.0295 4.58432341746
0.0135 -0.0285 4.5889310225
0.0135 -0.0275 4.60003901262
0.0135 -0.0265 4.61530127067
0.0135 -0.0255 4.63108344787
0.0135 -0.0245 4.64436456219
0.0135 -0.0235 4.6548588727
0.0135 -0.0225 4.66560418616
0.0135 -0.0215 4.68064299172
0.0135 -0.0205 4.70258014978
0.0135 -0.0195 4.73421618293
0.0135 -0.0185 4.76933510264
0.0135 -0.0175 4.79315071532
0.0135 -0.0165 4.79404663175
0.0135 -0.0155 4.76724854011
0.0135 -0.0145 4.71533064827
0.0135 -0.0135 4.64489460711
0.0135 -0.0125 4.56377246127
0.0135 -0.0115 4.47940368116
0.0135 -0.0105 4.39794705936
0.0135 -0.0095 4.32399428546
0.0135 -0.0085 4.26049955746
0.0135 -0.0075 4.20873592393
0.0135 -0.0065 4.16838629938
0.0135 -0.0055 4.13727483672
0.0135 -0.0045 4.11191724061
0.0135 -0.0035 4.08907808323
0.0135 -0.0025 4.0665625516
0.0135 -0.0015 4.04370188434
0.0135 -0.0005 4.02053276145
0.0135 0.0005 3.99792759179
0.0135 0.0015 3.97798392831
0.0135 0.0025 3.96077837562
0.0135 0.0035 3.94395518749
0.0135 0.0045 3.92672498226
0.0135 0.0055 3.90941359172
0.0135 0.0065 3.89164126155
0.0135 0.0075 3.87221072256
0.0135 0.0085 3.84875775925
0.0135 0.0095 3.8193392724
0.0135 0.0105 3.78359275233
0.0135 0.0115 3.74167306039
0.0135 0.0125 3.68976866486
0.0135 0.0135 3.62059843993
0.0135 0.0145 3.53288956587
0.0135 0.0155 3.43354053594
0.0135 0.0165 3.33268925606
0.0135 0.0175 3.23875364689
0.0135 0.0185 3.15526181874
0.0135 0.0195 3.08218283186
0.0135 0.0205 3.01779725207
0.0135 0.0215 2.95997899323
0.0135 0.0225 2.90679861812
0.0135 0.0235 2.85677363745
0.0135 0.0245 2.80899654372
0.0135 0.0255 2.76318083299
0.0135 0.0265 2.71964544824
0.0135 0.0275 2.67924709353
0.0135 0.0285 2.64328029177
0.0135 0.0295 2.61338991604
0.0135 0.0305 2.59155483673
0.0135 0.0315 2.57993329674
0.0145 -0.0315 4.54754464608
0.0145 -0.0305 4.54413457962
0.0145 -0.0295 4.54215407976
0.0145 -0.0285 4.54575206058
0.0145 -0.0275 4.55496968013
0.0145 -0.0265 4.56691854458
0.0145 -0.0255 4.57833468443
0.0145 -0.0245 4.58825762359
0.0145 -0.0235 4.59845598618
0.0145 -0.0225 4.61055223996
0.0145 -0.0215 4.62512129346
0.0145 -0.0205 4.64092657586
0.0145 -0.0195 4.65597236585
0.0145 -0.0185 4.66643876266
0.0145 -0.0175 4.66750786225
0.0145 -0.0165 4.65546774715
0.0145 -0.0155 4.62793054464
0.0145 -0.0145 4.5853473158
0.0145 -0.0135 4.53052414189
0.0145 -0.0125 4.46757007386
0.0145 -0.0115 4.40097793991
0.0145 -0.0105 4.33498848466
0.0145 -0.0095 4.27319062071
0.0145 -0.0085 4.21832200343
0.0145 -0.0075 4.17213336568
0.0145 -0.0065 4.13510241863
0.0145 -0.0055 4.10611897353
0.0145 -0.0045 4.08238101305
0.0145 -0.0035 4.06052965616
0.0145 -0.0025 4.03862733884
0.0145 -0.0015 4.01689557924
0.0145 -0.0005 3.99690225099
0.0145 0.0005 3.97992304301
0.0145 0.0015 3.96757895623
0.0145 0.0025 3.9608543989
0.0145 0.0035 3.95469776565
0.0145 0.0045 3.94204048087
0.0145 0.0055 3.92150755798
0.0145 0.0065 3.8962655968
0.0145 0.0075 3.86920630713
0.0145 0.0085 3.83971837683
0.0145 0.0095 3.80510281103
0.0145 0.0105 3.76366650987
0.0145 0.0115 3.71441889729
0.0145 0.0125 3.65154842953
0.0145 0.0135 3.56521771498
0.0145 0.0145 3.45890948763
0.0145 0.0155 3.34737028524
0.0145 0.0165 3.24250187514
0.0145 0.0175 3.151247786
0.0145 0.0185 3.07429439383
0.0145 0.0195 3.00910684488
0.0145 0.0205 2.95242931188
0.0145 0.0215 2.90129520827
0.0145 0.0225 2.85333341723
0.0145 0.0235 2.8069392372
0.0145 0.0245 2.76132346574
0.0145 0.0255 2.71648839299
0.0145 0.0265 2.67313584769
0.0145 0.0275 2.63250687085
0.0145 0.0285 2.59620398257
0.0145 0.0295 2.56606436781
0.0145 0.0305 2.54414190741
0.0145 0.0315 2.53254494945
0.0155 -0.0315 4.50767623311
0.0155 -0.0305 4.50529336821
0.0155 -0.0295 4.50429962775
0.0155 -0.0285 4.5074017554
0.0155 -0.0275 4.51442123277
0.0155 -0.0265 4.52286803437
0.0155 -0.0255 4.52912871078
0.0155 -0.0245 4.53335503669
0.0155 -0.0235 4.54023765449
0.0155 -0.0225 4.55166641903
0.0155 -0.0215 4.56460725392
0.0155 -0.0205 4.57311120978
0.0155 -0.0195 4.57088533114
0.0155 -0.0185 4.55685416186
0.0155 -0.0175 4.53498905313
0.0155 -0.0165 4.5084507916
0.0155 -0.0155 4.47755622185
0.0155 -0.0145 4.44150302867
0.0155 -0.0135 4.39997938229
0.0155 -0.0125 4.35374984007
0.0155 -0.0115 4.30456151165
0.0155 -0.0105 4.25476755905
0.0155 -0.0095 4.20690452101
0.0155 -0.0085 4.16330839919
0.0155 -0.0075 4.12574077799
0.0155 -0.0065 4.09495078774
0.0155 -0.0055 4.07026284923
0.0155 -0.0045 4.04963971027
0.0155 -0.0035 4.03043126211
0.0155 -0.0025 4.01097133898
0.0155 -0.0015 3.9921548164
0.0155 -0.0005 3.97581990615
0.0155 0.0005 3.96325032788
0.0155 0.0015 3.95688699738
0.0155 0.0025 3.96032934593
0.0155 0.0035 3.97022134791
0.0155 0.0045 3.9725096482
0.0155 0.0055 3.95568437871
0.0155 0.0065 3.92014292689
0.0155 0.0075 3.87466973843
0.0155 0.0085 3.82806012486
0.0155 0.0095 3.78211594413
0.0155 0.0105 3.7323943879
0.0155 0.0115 3.6719925771
0.0155 0.0125 3.59155244163
0.0155 0.0135 3.48338635413
0.0155 0.0145 3.36080025815
0.0155 0.0155 3.24465864189
0.0155 0.0165 3.14401531256
0.0155 0.0175 3.06179482219
0.0155 0.0185 2.99521935523
0.0155 0.0195 2.93996831916
0.0155 0.0205 2.89191199742
0.0155 0.0215 2.84749017119
0.0155 0.0225 2.80411743967
0.0155 0.0235 2.76030410967
0.0155 0.0245 2.71563345864
0.0155 0.0255 2.6706499096
0.0155 0.0265 2.62662097134
0.0155 0.0275 2.58524854506
0.0155 0.0285 2.54841933004
0.0155 0.0295 2.51806181391
0.0155 0.0305 2.49615129781
0.0155 0.0315 2.48462307207
0.0165 -0.0315 4.46879099817
0.0165 -0.0305 4.46838885155
0.0165 -0.0295 4.46932524407
0.0165 -0.0285 4.47231767922
0.0165 -0.0275 4.47696264084
0.0165 -0.0265 4.48134407146
0.0165 -0.0255 4.48096442997
0.0165 -0.0245 4.47604146765
0.0165 -0.0235 4.47547313385
0.0165 -0.0225 4.48294362475
0.0165 -0.0215 4.48996062365
0.0165 -0.0205 4.48501790898
0.0165 -0.0195 4.46275867869
0.0165 -0.0185 4.4276201598
0.0165 -0.0175 4.3885919496
0.0165 -0.0165 4.35202147457
0.0165 -0.0155 4.31945943446
0.0165 -0.0145 4.28930780453