% Model:              Benchmark260518.mph
% Version:            COMSOL 6.2.0.339
% Date:               May 20 2026, 09:54
% Dimension:          2
% Nodes:              4096
% Expressions:        1
% Description:        压力
% Length unit:        m
% x                       y                        p (Pa)
5.0E-4                    -0.0315                  3.9477392662199042
5.0E-4                    -0.0305                  3.965692838176521
5.0E-4                    -0.0295                  3.990043420117754
5.0E-4                    -0.0285                  4.016468457382482
5.0E-4                    -0.0275                  4.044011536296343
5.0E-4                    -0.0265                  4.072322033161376
5.0E-4                    -0.0255                  4.101208983616888
5.0E-4                    -0.0245                  4.130601189684728
5.0E-4                    -0.0235                  4.160396422976689
5.0E-4                    -0.0225                  4.190477233563642
5.0E-4                    -0.0215                  4.220778974370972
5.0E-4                    -0.0205                  4.2512415409794855
5.0E-4                    -0.0195                  4.281830057984384
5.0E-4                    -0.0185                  4.312564706560702
5.0E-4                    -0.0175                  4.343500422094652
5.0E-4                    -0.0165                  4.374667074061797
5.0E-4                    -0.0155                  4.406022363312413
5.0E-4                    -0.0145                  4.437598442166436
5.0E-4                    -0.0135                  4.469544612529799
5.0E-4                    -0.0125                  4.5019620894803145
5.0E-4                    -0.0115                  4.534941082465264
5.0E-4                    -0.0105                  4.568685472555381
5.0E-4                    -0.0095                  4.603545536282567
5.0E-4                    -0.0085                  4.640033051157193
5.0E-4                    -0.0075                  4.678219327656901
5.0E-4                    -0.0065                  4.716718734964554
5.0E-4                    -0.0055                  4.753146600142603
5.0E-4                    -0.0045                  4.783848106952271
5.0E-4                    -0.0035                  4.805415328388119
5.0E-4                    -0.0025                  4.817928293889483
5.0E-4                    -0.0015                  4.823696103934597
5.0E-4                    -5.0E-4                  4.825075090943635
5.0E-4                    5.0E-4                   4.824318260832228
5.0E-4                    0.0015                   4.82365977546568
5.0E-4                    0.0025                   4.824633241857221
5.0E-4                    0.0035                   4.827319575226296
5.0E-4                    0.0045                   4.830198978272166
5.0E-4                    0.0055                   4.830850531607416
5.0E-4                    0.0065                   4.827352800763412
5.0E-4                    0.0075                   4.819426034038685
5.0E-4                    0.0085                   4.808521507901075
5.0E-4                    0.0095                   4.796521584163875
5.0E-4                    0.0105                   4.784049874308981
5.0E-4                    0.0115                   4.786415602391564
5.0E-4                    0.0125                   4.831382227797534
5.0E-4                    0.0135                   4.900627770383803
5.0E-4                    0.0145                   4.951690366109631
5.0E-4                    0.0155                   4.97927860064848
5.0E-4                    0.0165                   4.993627281501651
5.0E-4                    0.0175                   5.0007679105698415
5.0E-4                    0.0185                   5.0035585291270746
5.0E-4                    0.0195                   5.001044611176062
5.0E-4                    0.0205                   4.988150527946547
5.0E-4                    0.0215                   4.962849849432776
5.0E-4                    0.0225                   4.928470244628671
5.0E-4                    0.0235                   4.888001538851613
5.0E-4                    0.0245                   4.844536059024724
5.0E-4                    0.0255                   4.800607963837906
5.0E-4                    0.0265                   4.756827492075718
5.0E-4                    0.0275                   4.713237977576661
5.0E-4                    0.0285                   4.670395514218872
5.0E-4                    0.0295                   4.629096976693567
5.0E-4                    0.0305                   4.590948800848251
5.0E-4                    0.0315                   4.562913656570049
0.0015                    -0.0315                  3.9296875447805433
0.0015                    -0.0305                  3.9477387488866715
0.0015                    -0.0295                  3.9739833297796334
0.0015                    -0.0285                  4.002659295848091
0.0015                    -0.0275                  4.032146751018415
0.0015                    -0.0265                  4.062055560211978
0.0015                    -0.0255                  4.092262221051907
0.0015                    -0.0245                  4.1227088694358045
0.0015                    -0.0235                  4.153346730543349
0.0015                    -0.0225                  4.184112707246301
0.0015                    -0.0215                  4.21495344021684
0.0015                    -0.0205                  4.245840649151765
0.0015                    -0.0195                  4.276765426826863
0.0015                    -0.0185                  4.307743367681069
0.0015                    -0.0175                  4.3387979787495015
0.0015                    -0.0165                  4.369931194736434
0.0015                    -0.0155                  4.4011278869311585
0.0015                    -0.0145                  4.432395369527047
0.0015                    -0.0135                  4.463790829289536
0.0015                    -0.0125                  4.495400417066364
0.0015                    -0.0115                  4.52733347567262
0.0015                    -0.0105                  4.559790417092229
0.0015                    -0.0095                  4.593141736279904
0.0015                    -0.0085                  4.627914220851436
0.0015                    -0.0075                  4.664580087544694
0.0015                    -0.0065                  4.7028982872393135
0.0015                    -0.0055                  4.741251498914872
0.0015                    -0.0045                  4.77553006304002
0.0015                    -0.0035                  4.800798579239254
0.0015                    -0.0025                  4.816046931794025
0.0015                    -0.0015                  4.823251302999696
0.0015                    -5.0E-4                  4.8244506415682675
0.0015                    5.0E-4                   4.822314499116719
0.0015                    0.0015                   4.819989408735757
0.0015                    0.0025                   4.819760204072497
0.0015                    0.0035                   4.822051308126581
0.0015                    0.0045                   4.825377363323138
0.0015                    0.0055                   4.827145789906319
0.0015                    0.0065                   4.8250591348011325
0.0015                    0.0075                   4.818522139046486
0.0015                    0.0085                   4.809079396639794
0.0015                    0.0095                   4.799612656611123
0.0015                    0.0105                   4.795296037281879
0.0015                    0.0115                   4.803162421079303
0.0015                    0.0125                   4.850648202198757
0.0015                    0.0135                   4.917114146418541
0.0015                    0.0145                   4.957510473581949
0.0015                    0.0155                   4.976916494074229
0.0015                    0.0165                   4.985612043721101
0.0015                    0.0175                   4.990190098952516
0.0015                    0.0185                   4.992739005570785
0.0015                    0.0195                   4.992196134234922
0.0015                    0.0205                   4.984468112846481
0.0015                    0.0215                   4.964065078520713
0.0015                    0.0225                   4.930699055237822
0.0015                    0.0235                   4.888675752743195
0.0015                    0.0245                   4.84207068885436
0.0015                    0.0255                   4.794109134137355
0.0015                    0.0265                   4.746074623587087
0.0015                    0.0275                   4.6983050893509795
0.0015                    0.0285                   4.65111245400043
0.0015                    0.0295                   4.605262028668247
0.0015                    0.0305                   4.563444931531592
0.0015                    0.0315                   4.5348699386856115
0.0025                    -0.0315                  3.9050225031631527
0.0025                    -0.0305                  3.9214974083254717
0.0025                    -0.0295                  3.947984738276129
0.0025                    -0.0285                  3.978630671866772
0.0025                    -0.0275                  4.010601190237892
0.0025                    -0.0265                  4.042919914903721
0.0025                    -0.0255                  4.075292263822895
0.0025                    -0.0245                  4.1076073115045615
0.0025                    -0.0235                  4.139804679852593
0.0025                    -0.0225                  4.171845510522725
0.0025                    -0.0215                  4.203706568123715
0.0025                    -0.0205                  4.235390509691086
0.0025                    -0.0195                  4.2669224010984355
0.0025                    -0.0185                  4.298326424914338
0.0025                    -0.0175                  4.329605620107967
0.0025                    -0.0165                  4.360736807518497
0.0025                    -0.0155                  4.39168356526725
0.0025                    -0.0145                  4.42240916746579
0.0025                    -0.0135                  4.45289446861559
0.0025                    -0.0125                  4.483168011147136
0.0025                    -0.0115                  4.513326498920224
0.0025                    -0.0105                  4.543564001955597
0.0025                    -0.0095                  4.574220358973744
0.0025                    -0.0085                  4.605813910893512
0.0025                    -0.0075                  4.63906793751733
0.0025                    -0.0065                  4.674738369634285
0.0025                    -0.0055                  4.712395827783503
0.0025                    -0.0045                  4.7495688369978835
0.0025                    -0.0035                  4.7814626356156325
0.0025                    -0.0025                  4.803426579573143
0.0025                    -0.0015                  4.813684222156997
0.0025                    -5.0E-4                  4.813801002353262
0.0025                    5.0E-4                   4.80891155693621
0.0025                    0.0015                   4.804521789903935
0.0025                    0.0025                   4.803627529372191
0.0025                    0.0035                   4.80682252304508
0.0025                    0.0045                   4.8127905547831995
0.0025                    0.0055                   4.819053975494262
0.0025                    0.0065                   4.823012879609741
0.0025                    0.0075                   4.823523389149234
0.0025                    0.0085                   4.822203624077162
0.0025                    0.0095                   4.823881089006941
0.0025                    0.0105                   4.835963403508693
0.0025                    0.0115                   4.867351916281755
0.0025                    0.0125                   4.914044249640892
0.0025                    0.0135                   4.952622310855648
0.0025                    0.0145                   4.971241905242165
0.0025                    0.0155                   4.977374377706883
0.0025                    0.0165                   4.979386115847589
0.0025                    0.0175                   4.981362449037054
0.0025                    0.0185                   4.983174987147924
0.0025                    0.0195                   4.983078301692093
0.0025                    0.0205                   4.977119718912199
0.0025                    0.0215                   4.959539486754637
0.0025                    0.0225                   4.927581072391473
0.0025                    0.0235                   4.8838794695638175
0.0025                    0.0245                   4.833237639032792
0.0025                    0.0255                   4.779621572037419
0.0025                    0.0265                   4.725194510438131
0.0025                    0.0275                   4.6709224156754985
0.0025                    0.0285                   4.617535891814203
0.0025                    0.0295                   4.566746587150778
0.0025                    0.0305                   4.523228795462241
0.0025                    0.0315                   4.496427364267195
0.0035                    -0.0315                  3.8781378040951315
0.0035                    -0.0305                  3.892702523433338
0.0035                    -0.0295                  3.9178394247003414
0.0035                    -0.0285                  3.948889055091173
0.0035                    -0.0275                  3.9825923344507106
0.0035                    -0.0265                  4.01722141391131
0.0035                    -0.0255                  4.052008637003383
0.0035                    -0.0245                  4.086612606282192
0.0035                    -0.0235                  4.120854708097708
0.0035                    -0.0225                  4.154635496488617
0.0035                    -0.0215                  4.187914400026851
0.0035                    -0.0205                  4.220702034335939
0.0035                    -0.0195                  4.253045733541876
0.0035                    -0.0185                  4.284996627384052
0.0035                    -0.0175                  4.316573460635254
0.0035                    -0.0165                  4.347745281774855
0.0035                    -0.0155                  4.378436488607301
0.0035                    -0.0145                  4.408549578737204
0.0035                    -0.0135                  4.437997630893092
0.0035                    -0.0125                  4.466741511809478
0.0035                    -0.0115                  4.494825255389907
0.0035                    -0.0105                  4.5224031664276065
0.0035                    -0.0095                  4.549770747973254
0.0035                    -0.0085                  4.577420094247904
0.0035                    -0.0075                  4.606098487100956
0.0035                    -0.0065                  4.636847449705744
0.0035                    -0.0055                  4.670459468464109
0.0035                    -0.0045                  4.707417806230023
0.0035                    -0.0035                  4.744291851250728
0.0035                    -0.0025                  4.772696511892384
0.0035                    -0.0015                  4.785992624840074
0.0035                    -5.0E-4                  4.78564609810485
0.0035                    5.0E-4                   4.779667513750642
0.0035                    0.0015                   4.775334472865191
0.0035                    0.0025                   4.77620458768722
0.0035                    0.0035                   4.782856247550283
0.0035                    0.0045                   4.79421601864615
0.0035                    0.0055                   4.808521799008874
0.0035                    0.0065                   4.8236541623124936
0.0035                    0.0075                   4.838326859453878
0.0035                    0.0085                   4.853740995668391
0.0035                    0.0095                   4.8742665893363295
0.0035                    0.0105                   4.904534909889001
0.0035                    0.0115                   4.942464851998491
0.0035                    0.0125                   4.975252988219187
0.0035                    0.0135                   4.989638606726527
0.0035                    0.0145                   4.986872592216242
0.0035                    0.0155                   4.9786638614893395
0.0035                    0.0165                   4.973725361567904
0.0035                    0.0175                   4.973010310504996
0.0035                    0.0185                   4.973545741127911
0.0035                    0.0195                   4.972434712348502
0.0035                    0.0205                   4.965426872393855
0.0035                    0.0215                   4.947213525140334
0.0035                    0.0225                   4.914868771284095
0.0035                    0.0235                   4.869612374927458
0.0035                    0.0245                   4.815498049461443
0.0035                    0.0255                   4.756612436323715
0.0035                    0.0265                   4.6958228153909864
0.0035                    0.0275                   4.635042758851988
0.0035                    0.0285                   4.576174564790183
0.0035                    0.0295                   4.522379849892692
0.0035                    0.0305                   4.479226449829355
0.0035                    0.0315                   4.454462292924168
0.0045                    -0.0315                  3.8500799262802
0.0045                    -0.0305                  3.86299031947575
0.0045                    -0.0295                  3.886310654116686
0.0045                    -0.0285                  3.916576269035938
0.0045                    -0.0275                  3.9508599634320998
0.0045                    -0.0265                  3.987103564468293
0.0045                    -0.0255                  4.024054662802686
0.0045                    -0.0245                  4.0610056873884774
0.0045                    -0.0235                  4.097539212855196
0.0045                    -0.0225                  4.133394604920573
0.0045                    -0.0215                  4.168424832613157
0.0045                    -0.0205                  4.202584072620788
0.0045                    -0.0195                  4.235910383546782
0.0045                    -0.0185                  4.268488163596851
0.0045                    -0.0175                  4.300390565962663
0.0045                    -0.0165                  4.331623658776223
0.0045                    -0.0155                  4.362104193156993
0.0045                    -0.0145                  4.391682955286223
0.0045                    -0.0135                  4.420196347274741
0.0045                    -0.0125                  4.447521854413118
0.0045                    -0.0115                  4.473626230895639
0.0045                    -0.0105                  4.498610718497423
0.0045                    -0.0095                  4.522771725732628
0.0045                    -0.0085                  4.546668101076268
0.0045                    -0.0075                  4.571200857220504
0.0045                    -0.0065                  4.597511059987366
0.0045                    -0.0055                  4.626835205886132
0.0045                    -0.0045                  4.660534868827261
0.0045                    -0.0035                  4.69656130117771
0.0045                    -0.0025                  4.726767886946635
0.0045                    -0.0015                  4.742500635409742
0.0045                    -5.0E-4                  4.744711536051604
0.0045                    5.0E-4                   4.7426608668447034
0.0045                    0.0015                   4.743602220736421
0.0045                    0.0025                   4.750052774544144
0.0045                    0.0035                   4.762099391193761
0.0045                    0.0045                   4.7793520721563585
0.0045                    0.0055                   4.80139098107829
0.0045                    0.0065                   4.8272817681133375
0.0045                    0.0075                   4.856066953124381
0.0045                    0.0085                   4.888165045766045
0.0045                    0.0095                   4.925177264875413
0.0045                    0.0105                   4.966315206950208
0.0045                    0.0115                   5.003450966173976
0.0045                    0.0125                   5.023148295743288
0.0045                    0.0135                   5.019036075280058
0.0045                    0.0145                   4.99925510311125
0.0045                    0.0155                   4.978941643003953
0.0045                    0.0165                   4.967525036764062
0.0045                    0.0175                   4.9636557406055655
0.0045                    0.0185                   4.961844460777552
0.0045                    0.0195                   4.958064482192389
0.0045                    0.0205                   4.947794373751115
0.0045                    0.0215                   4.926554265422023
0.0045                    0.0225                   4.8922088152729515
0.0045                    0.0235                   4.845304254140909
0.0045                    0.0245                   4.788618561271961
0.0045                    0.0255                   4.725687340460468
0.0045                    0.0265                   4.659843878735626
0.0045                    0.0275                   4.59405091872731
0.0045                    0.0285                   4.531490887538287
0.0045                    0.0295                   4.476297961221077
0.0045                    0.0305                   4.433911457657528
0.0045                    0.0315                   4.410545611028992
0.0055                    -0.0315                  3.8210732543683075
0.0055                    -0.0305                  3.8327241173107236
0.0055                    -0.0295                  3.8543091206727587
0.0055                    -0.0285                  3.88327939976857
0.0055                    -0.0275                  3.9172441323249307
0.0055                    -0.0265                  3.9542394789138027
0.0055                    -0.0255                  3.992784872795288
0.0055                    -0.0245                  4.0318440244001845
0.0055                    -0.0235                  4.070698333213165
0.0055                    -0.0225                  4.108835595691186
0.0055                    -0.0215                  4.145903378721394
0.0055                    -0.0205                  4.181704877080277
0.0055                    -0.0195                  4.216199033686852
0.0055                    -0.0185                  4.249475740442721
0.0055                    -0.0175                  4.281689302244783
0.0055                    -0.0165                  4.312958763512173
0.0055                    -0.0155                  4.343279579723891
0.0055                    -0.0145                  4.372503640859493
0.0055                    -0.0135                  4.400394555498602
0.0055                    -0.0125                  4.426714136220024
0.0055                    -0.0115                  4.451315188088019
0.0055                    -0.0105                  4.474243836591968
0.0055                    -0.0095                  4.495859402370002
0.0055                    -0.0085                  4.516968319821694
0.0055                    -0.0075                  4.538788592078028
0.0055                    -0.0065                  4.562433745108727
0.0055                    -0.0055                  4.588815416400459
0.0055                    -0.0045                  4.618163168938971
0.0055                    -0.0035                  4.649617538206726
0.0055                    -0.0025                  4.678055513754883
0.0055                    -0.0015                  4.696099780341794
0.0055                    -5.0E-4                  4.704853246212814
0.0055                    5.0E-4                   4.711999660002421
0.0055                    0.0015                   4.721952553627406
0.0055                    0.0025                   4.735276328801374
0.0055                    0.0035                   4.752251017614709
0.0055                    0.0045                   4.773863106455044
0.0055                    0.0055                   4.800784475670451
0.0055                    0.0065                   4.8325389904276435
0.0055                    0.0075                   4.868320580144028
0.0055                    0.0085                   4.908352409745864
0.0055                    0.0095                   4.952653737427297
0.0055                    0.0105                   4.99740076970768
0.0055                    0.0115                   5.032463754885143
0.0055                    0.0125                   5.045325598128225
0.0055                    0.0135                   5.03194875751565
0.0055                    0.0145                   5.0025612654299625
0.0055                    0.0155                   4.974418346446092
0.0055                    0.0165                   4.9578095728626455
0.0055                    0.0175                   4.949943238934904
0.0055                    0.0185                   4.944020292987716
0.0055                    0.0195                   4.935848819470263
0.0055                    0.0205                   4.921446196365518
0.0055                    0.0215                   4.89712875097409
0.0055                    0.0225                   4.860844904100958
0.0055                    0.0235                   4.812472860178541
0.0055                    0.0245                   4.753882422774858
0.0055                    0.0255                   4.688201280306183
0.0055                    0.0265                   4.619041821150935
0.0055                    0.0275                   4.5501455979883145
0.0055                    0.0285                   4.485525469093032
0.0055                    0.0295                   4.429695310505652
0.0055                    0.0305                   4.387797104263568
0.0055                    0.0315                   4.365165451477548
0.0065                    -0.0315                  3.7912842615957274
0.0065                    -0.0305                  3.801984456042245
0.0065                    -0.0295                  3.8220874977251866
0.0065                    -0.0285                  3.8496478960067426
0.0065                    -0.0275                  3.8827765530066856
0.0065                    -0.0265                  3.9197915747661307
0.0065                    -0.0255                  3.9592505054584612
0.0065                    -0.0245                  3.999965560676104
0.0065                    -0.0235                  4.040970127198319
0.0065                    -0.0225                  4.081468596232284
0.0065                    -0.0215                  4.1208219075148405
0.0065                    -0.0205                  4.158576415604759
0.0065                    -0.0195                  4.194503046717598
0.0065                    -0.0185                  4.228613647577536
0.0065                    -0.0175                  4.261124373017553
0.0065                    -0.0165                  4.292343764739483
0.0065                    -0.0155                  4.32249969800411
0.0065                    -0.0145                  4.35158576214815
0.0065                    -0.0135                  4.3793368208443475
0.0065                    -0.0125                  4.405347918440347
0.0065                    -0.0115                  4.429258549243539
0.0065                    -0.0105                  4.450992922371137
0.0065                    -0.0095                  4.471023445460409
0.0065                    -0.0085                  4.4904696608299925
0.0065                    -0.0075                  4.51061352342678
0.0065                    -0.0065                  4.532400691874574
0.0065                    -0.0055                  4.556148945961981
0.0065                    -0.0045                  4.58171584993864
0.0065                    -0.0035                  4.609324844807641
0.0065                    -0.0025                  4.635849516467893
0.0065                    -0.0015                  4.656799581541379
0.0065                    -5.0E-4                  4.6737971926723905
0.0065                    5.0E-4                   4.690702473773573
0.0065                    0.0015                   4.708562429423173
0.0065                    0.0025                   4.7273719707341595
0.0065                    0.0035                   4.74826919264874
0.0065                    0.0045                   4.7734750156396455
0.0065                    0.0055                   4.803868695043013
0.0065                    0.0065                   4.838014453928187
0.0065                    0.0075                   4.875018091164259
0.0065                    0.0085                   4.9155647032604195
0.0065                    0.0095                   4.959001319348824
0.0065                    0.0105                   5.000591446946339
0.0065                    0.0115                   5.030875230536527
0.0065                    0.0125                   5.039013688425074