% Model:              Benchmark260518细网格.mph
% Version:            COMSOL 6.2.0.339
% Date:               May 26 2026, 03:47
% Dimension:          2
% Nodes:              4096
% Expressions:        1
% Description:        压力
% Length unit:        m
% x                       y                        p (Pa)
5.0E-4                    -0.0315                  4.250885358993046
5.0E-4                    -0.0305                  4.292625266443699
5.0E-4                    -0.0295                  4.342773458379804
5.0E-4                    -0.0285                  4.396318454480213
5.0E-4                    -0.0275                  4.45220400810297
5.0E-4                    -0.0265                  4.510481153161351
5.0E-4                    -0.0255                  4.570932708736542
5.0E-4                    -0.0245                  4.633690469801333
5.0E-4                    -0.0235                  4.699060859355596
5.0E-4                    -0.0225                  4.7670704550596525
5.0E-4                    -0.0215                  4.838795621266931
5.0E-4                    -0.0205                  4.914426981960725
5.0E-4                    -0.0195                  4.995494584536922
5.0E-4                    -0.0185                  5.083340449010764
5.0E-4                    -0.0175                  5.179567863130972
5.0E-4                    -0.0165                  5.287167878863113
5.0E-4                    -0.0155                  5.406306491013503
5.0E-4                    -0.0145                  5.532493547873599
5.0E-4                    -0.0135                  5.638819259609908
5.0E-4                    -0.0125                  5.699046944435955
5.0E-4                    -0.0115                  5.723709655753721
5.0E-4                    -0.0105                  5.732588203816067
5.0E-4                    -0.0095                  5.726790204899321
5.0E-4                    -0.0085                  5.7109059497023855
5.0E-4                    -0.0075                  5.682744714138906
5.0E-4                    -0.0065                  5.66583650575023
5.0E-4                    -0.0055                  5.681060819495506
5.0E-4                    -0.0045                  5.659374658272778
5.0E-4                    -0.0035                  5.497022149570678
5.0E-4                    -0.0025                  5.107258325696831
5.0E-4                    -0.0015                  4.5880920461020125
5.0E-4                    -5.0E-4                  4.138794962741674
5.0E-4                    5.0E-4                   3.880269794619118
5.0E-4                    0.0015                   3.801881540584398
5.0E-4                    0.0025                   3.8590363821869973
5.0E-4                    0.0035                   3.952589261661585
5.0E-4                    0.0045                   3.995553846601472
5.0E-4                    0.0055                   4.013544709063994
5.0E-4                    0.0065                   4.027359608777539
5.0E-4                    0.0075                   4.239879667326054
5.0E-4                    0.0085                   4.455785721330274
5.0E-4                    0.0095                   4.5516213872862865
5.0E-4                    0.0105                   4.568055285537765
5.0E-4                    0.0115                   4.579529889640692
5.0E-4                    0.0125                   4.585023524669609
5.0E-4                    0.0135                   4.589643756755931
5.0E-4                    0.0145                   4.5987701946119595
5.0E-4                    0.0155                   4.618252964937458
5.0E-4                    0.0165                   4.644914598206445
5.0E-4                    0.0175                   4.673614616087814
5.0E-4                    0.0185                   4.701571292891593
5.0E-4                    0.0195                   4.72869919740948
5.0E-4                    0.0205                   4.755254892312247
5.0E-4                    0.0215                   4.78150280692071
5.0E-4                    0.0225                   4.80737442646406
5.0E-4                    0.0235                   4.832606855009074
5.0E-4                    0.0245                   4.857142674487977
5.0E-4                    0.0255                   4.880793928881852
5.0E-4                    0.0265                   4.903605012384638
5.0E-4                    0.0275                   4.92550845850724
5.0E-4                    0.0285                   4.946399718569193
5.0E-4                    0.0295                   4.966248355509566
5.0E-4                    0.0305                   4.984437522375842
5.0E-4                    0.0315                   4.999359083660422
0.0015                    -0.0315                  4.208422702427297
0.0015                    -0.0305                  4.249728756304396
0.0015                    -0.0295                  4.3041059533974675
0.0015                    -0.0285                  4.361048468852134
0.0015                    -0.0275                  4.418729598447527
0.0015                    -0.0265                  4.477272454341481
0.0015                    -0.0255                  4.5367310626608655
0.0015                    -0.0245                  4.597191858546247
0.0015                    -0.0235                  4.658717843302195
0.0015                    -0.0225                  4.721215786746382
0.0015                    -0.0215                  4.785009805598574
0.0015                    -0.0205                  4.850312128874913
0.0015                    -0.0195                  4.918309225719796
0.0015                    -0.0185                  4.991206331435259
0.0015                    -0.0175                  5.072670802707373
0.0015                    -0.0165                  5.171373859037168
0.0015                    -0.0155                  5.293662426414004
0.0015                    -0.0145                  5.444683389219105
0.0015                    -0.0135                  5.588487642174276
0.0015                    -0.0125                  5.676638702380324
0.0015                    -0.0115                  5.717102231192301
0.0015                    -0.0105                  5.739790709136526
0.0015                    -0.0095                  5.734634219315058
0.0015                    -0.0085                  5.691498885394736
0.0015                    -0.0075                  5.6028894276395445
0.0015                    -0.0065                  5.52091377909538
0.0015                    -0.0055                  5.488005224996147
0.0015                    -0.0045                  5.4526673694142165
0.0015                    -0.0035                  5.2972035996855675
0.0015                    -0.0025                  4.894205254703655
0.0015                    -0.0015                  4.376455712292068
0.0015                    -5.0E-4                  3.9701172627658825
0.0015                    5.0E-4                   3.7483649527202987
0.0015                    0.0015                   3.6645917593785944
0.0015                    0.0025                   3.7338553785077564
0.0015                    0.0035                   3.8874574237981587
0.0015                    0.0045                   4.007230856868373
0.0015                    0.0055                   4.0699233639817916
0.0015                    0.0065                   4.096436103962082
0.0015                    0.0075                   4.250557359018337
0.0015                    0.0085                   4.465896798459443
0.0015                    0.0095                   4.576385962143925
0.0015                    0.0105                   4.573085577985398
0.0015                    0.0115                   4.5800671250162335
0.0015                    0.0125                   4.585998492967503
0.0015                    0.0135                   4.593305089097526
0.0015                    0.0145                   4.606281083642659
0.0015                    0.0155                   4.628143548364956
0.0015                    0.0165                   4.655759765794462
0.0015                    0.0175                   4.684770456835163
0.0015                    0.0185                   4.713040912538257
0.0015                    0.0195                   4.740550860439634
0.0015                    0.0205                   4.7675715252803155
0.0015                    0.0215                   4.794314194901634
0.0015                    0.0225                   4.820635809049291
0.0015                    0.0235                   4.846184308018931
0.0015                    0.0245                   4.870865379547014
0.0015                    0.0255                   4.894494392129294
0.0015                    0.0265                   4.91721766688768
0.0015                    0.0275                   4.9390952856007315
0.0015                    0.0285                   4.960227742715822
0.0015                    0.0295                   4.980732510686157
0.0015                    0.0305                   4.999974257675324
0.0015                    0.0315                   5.014515809535424
0.0025                    -0.0315                  4.156240993031164
0.0025                    -0.0305                  4.191635763059938
0.0025                    -0.0295                  4.244494647157457
0.0025                    -0.0285                  4.303051017572042
0.0025                    -0.0275                  4.361935343206317
0.0025                    -0.0265                  4.420148667941597
0.0025                    -0.0255                  4.477600958521776
0.0025                    -0.0245                  4.534146049348541
0.0025                    -0.0235                  4.589387308417637
0.0025                    -0.0225                  4.643035541534016
0.0025                    -0.0215                  4.6942567452757284
0.0025                    -0.0205                  4.7432830466977105
0.0025                    -0.0195                  4.790660302271316
0.0025                    -0.0185                  4.839409583256391
0.0025                    -0.0175                  4.895148834793749
0.0025                    -0.0165                  4.97044632303278
0.0025                    -0.0155                  5.075034387642008
0.0025                    -0.0145                  5.221241654621425
0.0025                    -0.0135                  5.389092709281298
0.0025                    -0.0125                  5.539923398300335
0.0025                    -0.0115                  5.640984112952368
0.0025                    -0.0105                  5.7152224266436775
0.0025                    -0.0095                  5.685746676216485
0.0025                    -0.0085                  5.508922427592673
0.0025                    -0.0075                  5.250628144762084
0.0025                    -0.0065                  5.033276195054162
0.0025                    -0.0055                  4.919769446227622
0.0025                    -0.0045                  4.887890835023049
0.0025                    -0.0035                  4.818912137532211
0.0025                    -0.0025                  4.557619048958008
0.0025                    -0.0015                  4.167861606018173
0.0025                    -5.0E-4                  3.8437235691579765
0.0025                    5.0E-4                   3.662213219298942
0.0025                    0.0015                   3.5601016693650203
0.0025                    0.0025                   3.564750739932079
0.0025                    0.0035                   3.7308692203537075
0.0025                    0.0045                   3.958359590368186
0.0025                    0.0055                   4.077354612802122
0.0025                    0.0065                   4.11013716713834
0.0025                    0.0075                   4.2709860789834035
0.0025                    0.0085                   4.48155949402964
0.0025                    0.0095                   4.5773157752605185
0.0025                    0.0105                   4.576863543516267
0.0025                    0.0115                   4.583507375902143
0.0025                    0.0125                   4.58955739356944
0.0025                    0.0135                   4.601401769213391
0.0025                    0.0145                   4.622355809777317
0.0025                    0.0155                   4.650263573431372
0.0025                    0.0165                   4.679444283877298
0.0025                    0.0175                   4.707538030558364
0.0025                    0.0185                   4.734819250180257
0.0025                    0.0195                   4.762172877854041
0.0025                    0.0205                   4.789850108666486
0.0025                    0.0215                   4.817518444123879
0.0025                    0.0225                   4.844614603703078
0.0025                    0.0235                   4.870566876677319
0.0025                    0.0245                   4.895305567612593
0.0025                    0.0255                   4.918650591590365
0.0025                    0.0265                   4.940904686271157
0.0025                    0.0275                   4.962281815599689
0.0025                    0.0285                   4.9830384989638485
0.0025                    0.0295                   5.0032012776700245
0.0025                    0.0305                   5.021132680681344
0.0025                    0.0315                   5.033111836311939
0.0035                    -0.0315                  4.099787822133567
0.0035                    -0.0305                  4.129553531172079
0.0035                    -0.0295                  4.176659653339015
0.0035                    -0.0285                  4.2323098390845235
0.0035                    -0.0275                  4.289578790145461
0.0035                    -0.0265                  4.345843857535346
0.0035                    -0.0255                  4.40005462123154
0.0035                    -0.0245                  4.451529430273515
0.0035                    -0.0235                  4.499235943865334
0.0035                    -0.0225                  4.54262435940614
0.0035                    -0.0215                  4.579614948387103
0.0035                    -0.0205                  4.610415728811308
0.0035                    -0.0195                  4.634643095078819
0.0035                    -0.0185                  4.655233868008084
0.0035                    -0.0175                  4.677723699581896
0.0035                    -0.0165                  4.713183379025561
0.0035                    -0.0155                  4.770259466641718
0.0035                    -0.0145                  4.860296723327719
0.0035                    -0.0135                  4.979708481710711
0.0035                    -0.0125                  5.126050251364935
0.0035                    -0.0115                  5.29072957977111
0.0035                    -0.0105                  5.43979301872578
0.0035                    -0.0095                  5.360025542564102
0.0035                    -0.0085                  5.03130623475538
0.0035                    -0.0075                  4.607502956839968
0.0035                    -0.0065                  4.268505048157822
0.0035                    -0.0055                  4.099281314950078
0.0035                    -0.0045                  4.091180978026255
0.0035                    -0.0035                  4.140999549769523
0.0035                    -0.0025                  4.11248874309174
0.0035                    -0.0015                  3.9520427990269376
0.0035                    -5.0E-4                  3.7565498641302204
0.0035                    5.0E-4                   3.6262790562147
0.0035                    0.0015                   3.5483690481861414
0.0035                    0.0025                   3.54805059124069
0.0035                    0.0035                   3.6795659782631995
0.0035                    0.0045                   3.893353840962588
0.0035                    0.0055                   4.0110125113020985
0.0035                    0.0065                   4.074447592523231
0.0035                    0.0075                   4.296481170061851
0.0035                    0.0085                   4.51102642372022
0.0035                    0.0095                   4.58913288118246
0.0035                    0.0105                   4.588932770150998
0.0035                    0.0115                   4.593036792063998
0.0035                    0.0125                   4.596694162637106
0.0035                    0.0135                   4.614057588091906
0.0035                    0.0145                   4.646195233196559
0.0035                    0.0155                   4.681950659385339
0.0035                    0.0165                   4.7135261202186545
0.0035                    0.0175                   4.741246900453369
0.0035                    0.0185                   4.766529941870731
0.0035                    0.0195                   4.793244608153152
0.0035                    0.0205                   4.822014883102283
0.0035                    0.0215                   4.8510080533422215
0.0035                    0.0225                   4.879024295172397
0.0035                    0.0235                   4.905265249417496
0.0035                    0.0245                   4.929711281948386
0.0035                    0.0255                   4.952171590010671
0.0035                    0.0265                   4.973143201871174
0.0035                    0.0275                   4.992940411497874
0.0035                    0.0285                   5.011778097858495
0.0035                    0.0295                   5.029437768961754
0.0035                    0.0305                   5.044021833091831
0.0035                    0.0315                   5.053173705617175
0.0045                    -0.0315                  4.041250370957834
0.0045                    -0.0305                  4.066145879480694
0.0045                    -0.0295                  4.1067875962910065
0.0045                    -0.0285                  4.156827537253254
0.0045                    -0.0275                  4.209765072324149
0.0045                    -0.0265                  4.262217365925411
0.0045                    -0.0255                  4.312007497373915
0.0045                    -0.0245                  4.357739556610498
0.0045                    -0.0235                  4.397671129682781
0.0045                    -0.0225                  4.430950393258085
0.0045                    -0.0215                  4.454363554875057
0.0045                    -0.0205                  4.467990289674888
0.0045                    -0.0195                  4.470305849707079
0.0045                    -0.0185                  4.463229437916697
0.0045                    -0.0175                  4.4506445994729225
0.0045                    -0.0165                  4.4395264490379045
0.0045                    -0.0155                  4.437397806132315
0.0045                    -0.0145                  4.453780733051804
0.0045                    -0.0135                  4.4910737045835925
0.0045                    -0.0125                  4.562661833680291
0.0045                    -0.0115                  4.702617763323264
0.0045                    -0.0105                  4.873145253350385
0.0045                    -0.0095                  4.784490690600348
0.0045                    -0.0085                  4.405932896838445
0.0045                    -0.0075                  3.9390367726701085
0.0045                    -0.0065                  3.63399915387025
0.0045                    -0.0055                  3.533296100929328
0.0045                    -0.0045                  3.5365809255201865
0.0045                    -0.0035                  3.589202714185363
0.0045                    -0.0025                  3.6686078812268175
0.0045                    -0.0015                  3.7174211361451777
0.0045                    -5.0E-4                  3.6745235844279662
0.0045                    5.0E-4                   3.6360205383752335
0.0045                    0.0015                   3.623253020034015
0.0045                    0.0025                   3.6666774129082853
0.0045                    0.0035                   3.7798870938309825
0.0045                    0.0045                   3.9192954612560116
0.0045                    0.0055                   3.9937475671998044
0.0045                    0.0065                   4.080189023314416
0.0045                    0.0075                   4.37587739247474
0.0045                    0.0085                   4.571747319477305
0.0045                    0.0095                   4.614631268000564
0.0045                    0.0105                   4.61365241086046
0.0045                    0.0115                   4.613924057877013
0.0045                    0.0125                   4.615994133197302
0.0045                    0.0135                   4.640051165625703
0.0045                    0.0145                   4.683184836775626
0.0045                    0.0155                   4.724460218978556
0.0045                    0.0165                   4.75622523667079
0.0045                    0.0175                   4.782241922827019
0.0045                    0.0185                   4.805826959106863
0.0045                    0.0195                   4.832564341550627
0.0045                    0.0205                   4.862798916095668
0.0045                    0.0215                   4.893161130794013
0.0045                    0.0225                   4.9220520481059244
0.0045                    0.0235                   4.948328413183918
0.0045                    0.0245                   4.9719815274609065
0.0045                    0.0255                   4.992800626139322
0.0045                    0.0265                   5.011506064593365
0.0045                    0.0275                   5.028450304658491
0.0045                    0.0285                   5.04376217529487
0.0045                    0.0295                   5.057289676078194
0.0045                    0.0305                   5.067682607915236
0.0045                    0.0315                   5.073887742242945
0.0055                    -0.0315                  3.9811914831823447
0.0055                    -0.0305                  4.001854567322518
0.0055                    -0.0295                  4.0361847998571365
0.0055                    -0.0285                  4.079368608743538
0.0055                    -0.0275                  4.1258821876676794
0.0055                    -0.0265                  4.1725243654967334
0.0055                    -0.0255                  4.216565914475458
0.0055                    -0.0245                  4.256036925191774
0.0055                    -0.0235                  4.288594707693223
0.0055                    -0.0225                  4.313087489708867
0.0055                    -0.0215                  4.325460207429871
0.0055                    -0.0205                  4.325493479593826
0.0055                    -0.0195                  4.31049755794571
0.0055                    -0.0185                  4.281090164084021
0.0055                    -0.0175                  4.239582970177315
0.0055                    -0.0165                  4.190797804740479
0.0055                    -0.0155                  4.14399466232126
0.0055                    -0.0145                  4.112759772032378
0.0055                    -0.0135                  4.105949702478153
0.0055                    -0.0125                  4.13125494925646
0.0055                    -0.0115                  4.205596205159472
0.0055                    -0.0105                  4.306363356348101
0.0055                    -0.0095                  4.219214050426898
0.0055                    -0.0085                  3.905297961998711
0.0055                    -0.0075                  3.5981895492891085
0.0055                    -0.0065                  3.4814761776097067
0.0055                    -0.0055                  3.467151531458526
0.0055                    -0.0045                  3.4626389459732487
0.0055                    -0.0035                  3.462152038170811
0.0055                    -0.0025                  3.4819730714504358
0.0055                    -0.0015                  3.5290770753147216
0.0055                    -5.0E-4                  3.613316877272638
0.0055                    5.0E-4                   3.6808298985488355
0.0055                    0.0015                   3.757187701154556
0.0055                    0.0025                   3.8552360654103133
0.0055                    0.0035                   3.957310432634997
0.0055                    0.0045                   4.029025968685122
0.0055                    0.0055                   4.067337211851477
0.0055                    0.0065                   4.22754283606762
0.0055                    0.0075                   4.633836797642242
0.0055                    0.0085                   4.713150376541057
0.0055                    0.0095                   4.65396060111602
0.0055                    0.0105                   4.648738808099743
0.0055                    0.0115                   4.648499907361524
0.0055                    0.0125                   4.655090032701786
0.0055                    0.0135                   4.688190514191766
0.0055                    0.0145                   4.741174383918046
0.0055                    0.0155                   4.784469940734844
0.0055                    0.0165                   4.811832741651151
0.0055                    0.0175                   4.8323891979502225
0.0055                    0.0185                   4.855161170350252
0.0055                    0.0195                   4.882573201139918
0.0055                    0.0205                   4.913942010574459
0.0055                    0.0215                   4.945669700671446
0.0055                    0.0225                   4.975352827199419
0.0055                    0.0235                   5.0011752853837015
0.0055                    0.0245                   5.023233373083133
0.0055                    0.0255                   5.041321347533312
0.0055                    0.0265                   5.056389366864579
0.0055                    0.0275                   5.068803871431131
0.0055                    0.0285                   5.078800760705224
0.0055                    0.0295                   5.086695022062528
0.0055                    0.0305                   5.0920525614357794
0.0055                    0.0315                   5.094973456250268
0.0065                    -0.0315                  3.9200864654930565
0.0065                    -0.0305                  3.9369589115835106
0.0065                    -0.0295                  3.965304561822583
0.0065                    -0.0285                  4.001414596111163
0.0065                    -0.0275                  4.04073011196647
0.0065                    -0.0265                  4.08049507056296
0.0065                    -0.0255                  4.117969563176556
0.0065                    -0.0245                  4.150964637768108
0.0065                    -0.0235                  4.176841289167062
0.0065                    -0.0225                  4.1942534936144975
0.0065                    -0.0215                  4.198729400132964
0.0065                    -0.0205                  4.189701557418745
0.0065                    -0.0195                  4.163726036730479
0.0065                    -0.0185                  4.1209285500420485
0.0065                    -0.0175                  4.064040778050617
0.0065                    -0.0165                  4.00045910869861
0.0065                    -0.0155                  3.9437361624043015
0.0065                    -0.0145                  3.9094073188357994
0.0065                    -0.0135                  3.900860962003712
0.0065                    -0.0125                  3.9201445387000557
0.0065                    -0.0115                  3.9542230026752687
0.0065                    -0.0105                  3.9728713456791986
0.0065                    -0.0095                  3.863441017303512
0.0065                    -0.0085                  3.6456966429018873
0.0065                    -0.0075                  3.503450131815069
0.0065                    -0.0065                  3.475932667599279
0.0065                    -0.0055                  3.4727959029161917
0.0065                    -0.0045                  3.465969745564418
0.0065                    -0.0035                  3.4586750088589016
0.0065                    -0.0025                  3.4620868912489744
0.0065                    -0.0015                  3.4988516531415295
0.0065                    -5.0E-4                  3.598059772236968
0.0065                    5.0E-4                   3.7742094719663877
0.0065                    0.0015                   3.92646178733542
0.0065                    0.0025                   4.0275708443602
0.0065                    0.0035                   4.10277495223249
0.0065                    0.0045                   4.142587027964347
0.0065                    0.0055                   4.239326838041638
0.0065                    0.0065                   4.7051460483251475
0.0065                    0.0075                   5.259055090937897
0.0065                    0.0085                   5.011110637986346
0.0065                    0.0095                   4.704740825333176
0.0065                    0.0105                   4.684532181385125
0.0065                    0.0115                   4.683613548401758
0.0065                    0.0125                   4.696408314508617