% Model:              Benchmark260518.mph
% Version:            COMSOL 6.2.0.339
% Date:               May 20 2026, 13:08
% Dimension:          2
% Nodes:              4096
% Expressions:        1
% Description:        压力
% Length unit:        m
% x                       y                        p (Pa)
5.0E-4                    -0.0315                  3.874885300375364
5.0E-4                    -0.0305                  3.8928136131426854
5.0E-4                    -0.0295                  3.917225687545194
5.0E-4                    -0.0285                  3.943773201760668
5.0E-4                    -0.0275                  3.9715188135516715
5.0E-4                    -0.0265                  4.000119739519681
5.0E-4                    -0.0255                  4.029350006773557
5.0E-4                    -0.0245                  4.059090186175421
5.0E-4                    -0.0235                  4.089270801925428
5.0E-4                    -0.0225                  4.119848441102266
5.0E-4                    -0.0215                  4.150810012635467
5.0E-4                    -0.0205                  4.182173749712978
5.0E-4                    -0.0195                  4.213970705179266
5.0E-4                    -0.0185                  4.246237515308528
5.0E-4                    -0.0175                  4.279026470728152
5.0E-4                    -0.0165                  4.3123940710397495
5.0E-4                    -0.0155                  4.346376398390744
5.0E-4                    -0.0145                  4.380986388890738
5.0E-4                    -0.0135                  4.416189610273337
5.0E-4                    -0.0125                  4.451879989656762
5.0E-4                    -0.0115                  4.4878587354801365
5.0E-4                    -0.0105                  4.52381223007096
5.0E-4                    -0.0095                  4.559336445349343
5.0E-4                    -0.0085                  4.5940108718933335
5.0E-4                    -0.0075                  4.627446043394041
5.0E-4                    -0.0065                  4.659328361620776
5.0E-4                    -0.0055                  4.689454519778368
5.0E-4                    -0.0045                  4.7175675801311625
5.0E-4                    -0.0035                  4.743003727746791
5.0E-4                    -0.0025                  4.764698326721366
5.0E-4                    -0.0015                  4.78177315647172
5.0E-4                    -5.0E-4                  4.793834822550694
5.0E-4                    5.0E-4                   4.800834561769588
5.0E-4                    0.0015                   4.803257976037351
5.0E-4                    0.0025                   4.802573180248986
5.0E-4                    0.0035                   4.800404435414782
5.0E-4                    0.0045                   4.7969839218029655
5.0E-4                    0.0055                   4.795965617535554
5.0E-4                    0.0065                   4.811440551682065
5.0E-4                    0.0075                   4.856308772621629
5.0E-4                    0.0085                   4.897934301385709
5.0E-4                    0.0095                   4.907796267016519
5.0E-4                    0.0105                   4.907485558416449
5.0E-4                    0.0115                   4.90826917449486
5.0E-4                    0.0125                   4.904438330683046
5.0E-4                    0.0135                   4.892223068181178
5.0E-4                    0.0145                   4.868757256149572
5.0E-4                    0.0155                   4.83474028089287
5.0E-4                    0.0165                   4.793697901961566
5.0E-4                    0.0175                   4.74881457437625
5.0E-4                    0.0185                   4.702680610067892
5.0E-4                    0.0195                   4.6562024281405865
5.0E-4                    0.0205                   4.609634740775203
5.0E-4                    0.0215                   4.5632439073450355
5.0E-4                    0.0225                   4.517220114061096
5.0E-4                    0.0235                   4.47169897790827
5.0E-4                    0.0245                   4.42676964306581
5.0E-4                    0.0255                   4.382513455730791
5.0E-4                    0.0265                   4.339053918034016
5.0E-4                    0.0275                   4.29656771394716
5.0E-4                    0.0285                   4.255367422858615
5.0E-4                    0.0295                   4.215934934178011
5.0E-4                    0.0305                   4.179638250835703
5.0E-4                    0.0315                   4.153050254257077
0.0015                    -0.0315                  3.856859637908215
0.0015                    -0.0305                  3.8748342550332198
0.0015                    -0.0295                  3.9010209303831473
0.0015                    -0.0285                  3.929654318672325
0.0015                    -0.0275                  3.9591229342789944
0.0015                    -0.0265                  3.9890371675346783
0.0015                    -0.0255                  4.019257668554384
0.0015                    -0.0245                  4.049712338888691
0.0015                    -0.0235                  4.080366538511309
0.0015                    -0.0225                  4.111208279225921
0.0015                    -0.0215                  4.1422465684217755
0.0015                    -0.0205                  4.173515769362469
0.0015                    -0.0195                  4.205073934236159
0.0015                    -0.0185                  4.237002242245397
0.0015                    -0.0175                  4.269408278281773
0.0015                    -0.0165                  4.302428985594731
0.0015                    -0.0155                  4.336222704742607
0.0015                    -0.0145                  4.370953641310764
0.0015                    -0.0135                  4.4067639663886915
0.0015                    -0.0125                  4.443719923709173
0.0015                    -0.0115                  4.481743431055946
0.0015                    -0.0105                  4.520549739352099
0.0015                    -0.0095                  4.559634368113082
0.0015                    -0.0085                  4.598334027995697
0.0015                    -0.0075                  4.635938343666027
0.0015                    -0.0065                  4.671795193534309
0.0015                    -0.0055                  4.705278518612895
0.0015                    -0.0045                  4.73557282359484
0.0015                    -0.0035                  4.761576998844876
0.0015                    -0.0025                  4.782219219668797
0.0015                    -0.0015                  4.796851901631523
0.0015                    -5.0E-4                  4.8054514760131
0.0015                    5.0E-4                   4.808593016719
0.0015                    0.0015                   4.8077513873030835
0.0015                    0.0025                   4.8051662146561345
0.0015                    0.0035                   4.8019977969427545
0.0015                    0.0045                   4.798461087947201
0.0015                    0.0055                   4.7939356615068345
0.0015                    0.0065                   4.810495310816954
0.0015                    0.0075                   4.860946436549935
0.0015                    0.0085                   4.904593691446407
0.0015                    0.0095                   4.91504510077215
0.0015                    0.0105                   4.913125472501954
0.0015                    0.0115                   4.91212909879916
0.0015                    0.0125                   4.907906648477726
0.0015                    0.0135                   4.897264578803699
0.0015                    0.0145                   4.875288384767562
0.0015                    0.0155                   4.841093928652093
0.0015                    0.0165                   4.7980072287949005
0.0015                    0.0175                   4.749953376754449
0.0015                    0.0185                   4.700392300131986
0.0015                    0.0195                   4.650949533670941
0.0015                    0.0205                   4.602123553143164
0.0015                    0.0215                   4.554035629777385
0.0015                    0.0225                   4.506692530253607
0.0015                    0.0235                   4.460029587147375
0.0015                    0.0245                   4.413955365518236
0.0015                    0.0255                   4.368393699464596
0.0015                    0.0265                   4.323312039987357
0.0015                    0.0275                   4.2787472974507
0.0015                    0.0285                   4.234851818575817
0.0015                    0.0295                   4.192165937031644
0.0015                    0.0305                   4.153110693817684
0.0015                    0.0315                   4.1263888390180625
0.0025                    -0.0315                  3.832140256076152
0.0025                    -0.0305                  3.8484740028227615
0.0025                    -0.0295                  3.874737517605701
0.0025                    -0.0285                  3.9050700592516105
0.0025                    -0.0275                  3.9366297842541496
0.0025                    -0.0265                  3.9684351961904727
0.0025                    -0.0255                  4.000197891164881
0.0025                    -0.0245                  4.0318285305935815
0.0025                    -0.0235                  4.063300014356047
0.0025                    -0.0225                  4.09461712463546
0.0025                    -0.0215                  4.125810546000986
0.0025                    -0.0205                  4.156939869279805
0.0025                    -0.0195                  4.188102414705067
0.0025                    -0.0185                  4.219442346920431
0.0025                    -0.0175                  4.2511607364340644
0.0025                    -0.0165                  4.283527237258827
0.0025                    -0.0155                  4.31688826932206
0.0025                    -0.0145                  4.3516569995282985
0.0025                    -0.0135                  4.388273352428646
0.0025                    -0.0125                  4.42711988039955
0.0025                    -0.0115                  4.468389809924462
0.0025                    -0.0105                  4.511937118981365
0.0025                    -0.0095                  4.557163364232196
0.0025                    -0.0085                  4.603009618101079
0.0025                    -0.0075                  4.648077950335426
0.0025                    -0.0065                  4.69079447157476
0.0025                    -0.0055                  4.729509143107446
0.0025                    -0.0045                  4.762568473146696
0.0025                    -0.0035                  4.7885444813172455
0.0025                    -0.0025                  4.806710682899261
0.0025                    -0.0015                  4.817240901103197
0.0025                    -5.0E-4                  4.820924601491228
0.0025                    5.0E-4                   4.819275889809683
0.0025                    0.0015                   4.814889319963431
0.0025                    0.0025                   4.8103248196805
0.0025                    0.0035                   4.806255332325961
0.0025                    0.0045                   4.802706075876924
0.0025                    0.0055                   4.802231858952594
0.0025                    0.0065                   4.826188315226737
0.0025                    0.0075                   4.876723893689999
0.0025                    0.0085                   4.916251827999837
0.0025                    0.0095                   4.926134784408077
0.0025                    0.0105                   4.922069099478945
0.0025                    0.0115                   4.917569516407847
0.0025                    0.0125                   4.911724492264625
0.0025                    0.0135                   4.900885766658344
0.0025                    0.0145                   4.879343444341515
0.0025                    0.0155                   4.844541423593748
0.0025                    0.0165                   4.798742924954654
0.0025                    0.0175                   4.74661464270085
0.0025                    0.0185                   4.6924743879037365
0.0025                    0.0195                   4.638793536368238
0.0025                    0.0205                   4.586515576475005
0.0025                    0.0215                   4.5357500155304935
0.0025                    0.0225                   4.4862538281623205
0.0025                    0.0235                   4.43767006836704
0.0025                    0.0245                   4.3896395311163685
0.0025                    0.0255                   4.341864039135267
0.0025                    0.0265                   4.294148932952209
0.0025                    0.0275                   4.246463192514652
0.0025                    0.0285                   4.199141339895024
0.0025                    0.0295                   4.1536203613119875
0.0025                    0.0305                   4.1142191035242845
0.0025                    0.0315                   4.089844311696433
0.0035                    -0.0315                  3.8051026371761703
0.0035                    -0.0305                  3.8194761659036525
0.0035                    -0.0295                  3.8441983714964736
0.0035                    -0.0285                  3.874592509932707
0.0035                    -0.0275                  3.907368178287147
0.0035                    -0.0265                  3.9407876314707493
0.0035                    -0.0255                  3.9741094181712873
0.0035                    -0.0245                  4.007048620664888
0.0035                    -0.0235                  4.039498502529044
0.0035                    -0.0225                  4.071430913030046
0.0035                    -0.0215                  4.1028690403622186
0.0035                    -0.0205                  4.133885768608426
0.0035                    -0.0195                  4.164613458840345
0.0035                    -0.0185                  4.195259438016825
0.0035                    -0.0175                  4.22612416618329
0.0035                    -0.0165                  4.257621296719573
0.0035                    -0.0155                  4.290295350375383
0.0035                    -0.0145                  4.3248233512450796
0.0035                    -0.0135                  4.36197856651212
0.0035                    -0.0125                  4.402533362383944
0.0035                    -0.0115                  4.447083143275516
0.0035                    -0.0105                  4.4957977930574655
0.0035                    -0.0095                  4.548151348079995
0.0035                    -0.0085                  4.602722952806032
0.0035                    -0.0075                  4.657161181849906
0.0035                    -0.0065                  4.708374870493014
0.0035                    -0.0055                  4.753068998311017
0.0035                    -0.0045                  4.788555368815114
0.0035                    -0.0035                  4.813490809381211
0.0035                    -0.0025                  4.828343586216004
0.0035                    -0.0015                  4.8348538130552425
0.0035                    -5.0E-4                  4.834714888428592
0.0035                    5.0E-4                   4.829918639169765
0.0035                    0.0015                   4.823331805465578
0.0035                    0.0025                   4.817330765290377
0.0035                    0.0035                   4.812618925189053
0.0035                    0.0045                   4.80953378575892
0.0035                    0.0055                   4.8125905094965775
0.0035                    0.0065                   4.841471864990879
0.0035                    0.0075                   4.889974274778912
0.0035                    0.0085                   4.922807659444549
0.0035                    0.0095                   4.9306428555393875
0.0035                    0.0105                   4.926884107004829
0.0035                    0.0115                   4.921237504669344
0.0035                    0.0125                   4.913635261742766
0.0035                    0.0135                   4.9004174830333245
0.0035                    0.0145                   4.876262044086118
0.0035                    0.0155                   4.838750672666553
0.0035                    0.0165                   4.7897224998247845
0.0035                    0.0175                   4.733883365651487
0.0035                    0.0185                   4.675786706513062
0.0035                    0.0195                   4.61834641849181
0.0035                    0.0205                   4.562813410519052
0.0035                    0.0215                   4.509337845890863
0.0035                    0.0225                   4.457502382539377
0.0035                    0.0235                   4.406697748115652
0.0035                    0.0245                   4.356337684128561
0.0035                    0.0255                   4.305975056646254
0.0035                    0.0265                   4.255395120108377
0.0035                    0.0275                   4.204781690808659
0.0035                    0.0285                   4.155130714884606
0.0035                    0.0295                   4.1090495157319005
0.0035                    0.0305                   4.071614172834036
0.0035                    0.0315                   4.0500163844179795
0.0045                    -0.0315                  3.776817672679647
0.0045                    -0.0305                  3.7894896421499986
0.0045                    -0.0295                  3.812194547242698
0.0045                    -0.0285                  3.8414096366008943
0.0045                    -0.0275                  3.874160766877061
0.0045                    -0.0265                  3.908373416826512
0.0045                    -0.0255                  3.942832490195669
0.0045                    -0.0245                  3.9769184931739527
0.0045                    -0.0235                  4.01033497402741
0.0045                    -0.0225                  4.0429497952215385
0.0045                    -0.0215                  4.074731146037584
0.0045                    -0.0205                  4.105732389518119
0.0045                    -0.0195                  4.136098587026883
0.0045                    -0.0185                  4.166082986552929
0.0045                    -0.0175                  4.196068177599345
0.0045                    -0.0165                  4.226589269709675
0.0045                    -0.0155                  4.258355669418046
0.0045                    -0.0145                  4.292262147276999
0.0045                    -0.0135                  4.329368930701375
0.0045                    -0.0125                  4.370820265804992
0.0045                    -0.0115                  4.417665515834222
0.0045                    -0.0105                  4.470553166218984
0.0045                    -0.0095                  4.5293038819318445
0.0045                    -0.0085                  4.592426919032288
0.0045                    -0.0075                  4.656722267902988
0.0045                    -0.0065                  4.717269135186883
0.0045                    -0.0055                  4.768416677364419
0.0045                    -0.0045                  4.806208963334334
0.0045                    -0.0035                  4.829878327985861
0.0045                    -0.0025                  4.842020447597836
0.0045                    -0.0015                  4.846410360492209
0.0045                    -5.0E-4                  4.8450644502108196
0.0045                    5.0E-4                   4.839384508100453
0.0045                    0.0015                   4.831742319926559
0.0045                    0.0025                   4.824514061088112
0.0045                    0.0035                   4.8193912305828865
0.0045                    0.0045                   4.817787966401962
0.0045                    0.0055                   4.828094312175111
0.0045                    0.0065                   4.859631291171317
0.0045                    0.0075                   4.897913788361268
0.0045                    0.0085                   4.920353422428526
0.0045                    0.0095                   4.9260849340193
0.0045                    0.0105                   4.924600293436769
0.0045                    0.0115                   4.919811660500033
0.0045                    0.0125                   4.91053900942966
0.0045                    0.0135                   4.892947440246455
0.0045                    0.0145                   4.863226939806327
0.0045                    0.0155                   4.820691410996162
0.0045                    0.0165                   4.7678977429807725
0.0045                    0.0175                   4.709203305526385
0.0045                    0.0185                   4.648678093836628
0.0045                    0.0195                   4.589011611566586
0.0045                    0.0205                   4.531393322142579
0.0045                    0.0215                   4.475920144571067
0.0045                    0.0225                   4.422081252326616
0.0045                    0.0235                   4.369153372151545
0.0045                    0.0245                   4.3164732127301395
0.0045                    0.0255                   4.263618046012973
0.0045                    0.0265                   4.210574858033159
0.0045                    0.0275                   4.158000875889168
0.0045                    0.0285                   4.107624826731759
0.0045                    0.0295                   4.06262709354397
0.0045                    0.0305                   4.0276996661100695
0.0045                    0.0315                   4.008339008644144
0.0055                    -0.0315                  3.7476583895066593
0.0055                    -0.0305                  3.7589292207054714
0.0055                    -0.0295                  3.779641242028241
0.0055                    -0.0285                  3.807115555296866
0.0055                    -0.0275                  3.8388855238309674
0.0055                    -0.0265                  3.872957177039703
0.0055                    -0.0255                  3.907881502426206
0.0055                    -0.0245                  3.9427279361218144
0.0055                    -0.0235                  3.97694956017315
0.0055                    -0.0225                  4.010243504202015
0.0055                    -0.0215                  4.0424674068334046
0.0055                    -0.0205                  4.0736088516842885
0.0055                    -0.0195                  4.10378592782516
0.0055                    -0.0185                  4.133262128466424
0.0055                    -0.0175                  4.162466124824904
0.0055                    -0.0165                  4.1920115007772285
0.0055                    -0.0155                  4.222714418716851
0.0055                    -0.0145                  4.255606598062406
0.0055                    -0.0135                  4.2919324324387595
0.0055                    -0.0125                  4.333101921606499
0.0055                    -0.0115                  4.38055401284489
0.0055                    -0.0105                  4.4354696845601795
0.0055                    -0.0095                  4.498273485706836
0.0055                    -0.0085                  4.567908119758441
0.0055                    -0.0075                  4.640950791932355
0.0055                    -0.0065                  4.711013905738804
0.0055                    -0.0055                  4.769844196989643
0.0055                    -0.0045                  4.811818421397557
0.0055                    -0.0035                  4.8364295357148555
0.0055                    -0.0025                  4.848308870242838
0.0055                    -0.0015                  4.853119944065783
0.0055                    -5.0E-4                  4.852675539566784
0.0055                    5.0E-4                   4.847287355469732
0.0055                    0.0015                   4.83888515679055
0.0055                    0.0025                   4.830950813655548
0.0055                    0.0035                   4.8272133688682795
0.0055                    0.0045                   4.831770546309111
0.0055                    0.0055                   4.850908077999517
0.0055                    0.0065                   4.878404006407143
0.0055                    0.0075                   4.900055690004688
0.0055                    0.0085                   4.9107215410301785
0.0055                    0.0095                   4.9142770024873235
0.0055                    0.0105                   4.914975999545994
0.0055                    0.0115                   4.910883589061467
0.0055                    0.0125                   4.898672698411237
0.0055                    0.0135                   4.874642527122227
0.0055                    0.0145                   4.837410601272276
0.0055                    0.0155                   4.788722562685749
0.0055                    0.0165                   4.732279349616206
0.0055                    0.0175                   4.672010072390673
0.0055                    0.0185                   4.610986049522679
0.0055                    0.0195                   4.5510582210641175
0.0055                    0.0205                   4.49295108830862
0.0055                    0.0215                   4.436572882294018
0.0055                    0.0225                   4.3813796179227165
0.0055                    0.0235                   4.326700230879864
0.0055                    0.0245                   4.271996592720086
0.0055                    0.0255                   4.217078665192199
0.0055                    0.0265                   4.162318462930045
0.0055                    0.0275                   4.108886234757736
0.0055                    0.0285                   4.058939519215251
0.0055                    0.0295                   4.0156324855118015
0.0055                    0.0305                   3.9829783716269898
0.0055                    0.0315                   3.9652960221849085
0.0065                    -0.0315                  3.7178185051078954
0.0065                    -0.0305                  3.7279118466660206
0.0065                    -0.0295                  3.7467692917147244
0.0065                    -0.0285                  3.772312392991887
0.0065                    -0.0275                  3.8025425194254567
0.0065                    -0.0265                  3.8357212110506547
0.0065                    -0.0255                  3.8704098761475105
0.0065                    -0.0245                  3.9055146304868473
0.0065                    -0.0235                  3.9402708418212895
0.0065                    -0.0225                  3.974178341061532
0.0065                    -0.0215                  4.006938468901929
0.0065                    -0.0205                  4.03842237865139
0.0065                    -0.0195                  4.068669021471702
0.0065                    -0.0185                  4.097899393407949
0.0065                    -0.0175                  4.12653469039859
0.0065                    -0.0165                  4.155210405529241
0.0065                    -0.0155                  4.184783331605691
0.0065                    -0.0145                  4.216333664885672
0.0065                    -0.0135                  4.251165262908124
0.0065                    -0.0125                  4.29079236715503
0.0065                    -0.0115                  4.336869634511856
0.0065                    -0.0105                  4.390997256010406
0.0065                    -0.0095                  4.454297444916465
0.0065                    -0.0085                  4.526628431730306
0.0065                    -0.0075                  4.60535472306775
0.0065                    -0.0065                  4.6839418725683215
0.0065                    -0.0055                  4.752437234224583
0.0065                    -0.0045                  4.8031031263374775
0.0065                    -0.0035                  4.833851048056994
0.0065                    -0.0025                  4.84964916646277
0.0065                    -0.0015                  4.857427515669519
0.0065                    -5.0E-4                  4.858890628948114
0.0065                    5.0E-4                   4.854134307481411
0.0065                    0.0015                   4.84605965388727
0.0065                    0.0025                   4.840780929653115
0.0065                    0.0035                   4.844855680171165
0.0065                    0.0045                   4.86166017266305
0.0065                    0.0055                   4.884602793005959
0.0065                    0.0065                   4.898033365303456
0.0065                    0.0075                   4.89988774067012
0.0065                    0.0085                   4.8993684981264884
0.0065                    0.0095                   4.900212218401236
0.0065                    0.0105                   4.900079652724133
0.0065                    0.0115                   4.893137777434791
0.0065                    0.0125                   4.874635305960123