% Model:              Benchmark260518.mph
% Version:            COMSOL 6.2.0.339
% Date:               May 20 2026, 11:58
% Dimension:          2
% Nodes:              4096
% Expressions:        1
% Description:        压力
% Length unit:        m
% x                       y                        p (Pa)
% mirrored_by_python_y_to_minus_y, coord_match_decimals=12
0.0005 -0.0315 4.66527552155
0.0005 -0.0305 4.68624620789
0.0005 -0.0295 4.71484494605
0.0005 -0.0285 4.74600743907
0.0005 -0.0275 4.77842783488
0.0005 -0.0265 4.81160166056
0.0005 -0.0255 4.84540305039
0.0005 -0.0245 4.87966045053
0.0005 -0.0235 4.91326713126
0.0005 -0.0225 4.94424036399
0.0005 -0.0215 4.97076934758
0.0005 -0.0205 4.99105228018
0.0005 -0.0195 5.00212594106
0.0005 -0.0185 5.00507595396
0.0005 -0.0175 5.00474566748
0.0005 -0.0165 5.00225051206
0.0005 -0.0155 4.99203839467
0.0005 -0.0145 4.96249969892
0.0005 -0.0135 4.89690190189
0.0005 -0.0125 4.80464658462
0.0005 -0.0115 4.74655102912
0.0005 -0.0105 4.74381789892
0.0005 -0.0095 4.75795373723
0.0005 -0.0085 4.77116944941
0.0005 -0.0075 4.78384582386
0.0005 -0.0065 4.79524616679
0.0005 -0.0055 4.80395489991
0.0005 -0.0045 4.80876331296
0.0005 -0.0035 4.80911167782
0.0005 -0.0025 4.80538093289
0.0005 -0.0015 4.79873998657
0.0005 -0.0005 4.79080551112
0.0005 0.0005 4.78328530908
0.0005 0.0015 4.77763550338
0.0005 0.0025 4.77476271586
0.0005 0.0035 4.77485115361
0.0005 0.0045 4.77734800644
0.0005 0.0055 4.78115318872
0.0005 0.0065 4.78502186327
0.0005 0.0075 4.78795407504
0.0005 0.0085 4.78925400738
0.0005 0.0095 4.78812135276
0.0005 0.0105 4.78313246795
0.0005 0.0115 4.77120270916
0.0005 0.0125 4.74848232625
0.0005 0.0135 4.71539122148
0.0005 0.0145 4.67549838957
0.0005 0.0155 4.63206682394
0.0005 0.0165 4.5876718827
0.0005 0.0175 4.54310452639
0.0005 0.0185 4.49835533433
0.0005 0.0195 4.45335236236
0.0005 0.0205 4.40820402843
0.0005 0.0215 4.36325078107
0.0005 0.0225 4.31868334943
0.0005 0.0235 4.27452598924
0.0005 0.0245 4.23085864123
0.0005 0.0255 4.18781719749
0.0005 0.0265 4.14555735096
0.0005 0.0275 4.10422105992
0.0005 0.0285 4.06398891701
0.0005 0.0295 4.02536029972
0.0005 0.0305 3.989941417
0.0005 0.0315 3.96406568119
0.0015 -0.0315 4.64430662646
0.0015 -0.0305 4.66569197952
0.0015 -0.0295 4.69692410049
0.0015 -0.0285 4.73128341199
0.0015 -0.0275 4.76677189389
0.0015 -0.0265 4.80281322743
0.0015 -0.0255 4.8391666019
0.0015 -0.0245 4.87540777771
0.0015 -0.0235 4.9103465763
0.0015 -0.0225 4.94174256052
0.0015 -0.0215 4.96732490643
0.0015 -0.0205 4.98395442958
0.0015 -0.0195 4.99141731832
0.0015 -0.0185 4.99444565046
0.0015 -0.0175 4.99789101214
0.0015 -0.0165 5.00344736746
0.0015 -0.0155 5.0053322906
0.0015 -0.0145 4.98848802588
0.0015 -0.0135 4.93472926503
0.0015 -0.0125 4.83992575812
0.0015 -0.0115 4.77073601443
0.0015 -0.0105 4.75753134874
0.0015 -0.0095 4.76164544249
0.0015 -0.0085 4.77210223971
0.0015 -0.0075 4.78361240232
0.0015 -0.0065 4.79420248126
0.0015 -0.0055 4.80217818671
0.0015 -0.0045 4.80624968257
0.0015 -0.0035 4.8058852884
0.0015 -0.0025 4.80156078961
0.0015 -0.0015 4.79449412913
0.0015 -0.0005 4.78631330266
0.0015 0.0005 4.77873109563
0.0015 0.0015 4.7732219629
0.0015 0.0025 4.77072901451
0.0015 0.0035 4.77149561635
0.0015 0.0045 4.7750238073
0.0015 0.0055 4.78012363945
0.0015 0.0065 4.78517972819
0.0015 0.0075 4.78880276145
0.0015 0.0085 4.79015432642
0.0015 0.0095 4.78856595061
0.0015 0.0105 4.78331904322
0.0015 0.0115 4.77226068392
0.0015 0.0125 4.7509791299
0.0015 0.0135 4.71876828958
0.0015 0.0145 4.67882639429
0.0015 0.0155 4.6343183249
0.0015 0.0165 4.58815336687
0.0015 0.0175 4.54165191454
0.0015 0.0185 4.4950937482
0.0015 0.0195 4.44846868044
0.0015 0.0205 4.40185272421
0.0015 0.0215 4.35541619769
0.0015 0.0225 4.3093158682
0.0015 0.0235 4.26365443092
0.0015 0.0245 4.2185108623
0.0015 0.0255 4.17394716006
0.0015 0.0265 4.12997318276
0.0015 0.0275 4.08655037797
0.0015 0.0285 4.04374349784
0.0015 0.0295 4.00214357371
0.0015 0.0305 3.96417769401
0.0015 0.0315 3.93817150342
0.0025 -0.0315 4.61539303573
0.0025 -0.0305 4.63562684705
0.0025 -0.0295 4.66815315082
0.0025 -0.0285 4.70601104333
0.0025 -0.0275 4.7457258869
0.0025 -0.0265 4.78591215989
0.0025 -0.0255 4.82581135628
0.0025 -0.0245 4.86448998413
0.0025 -0.0235 4.90045858805
0.0025 -0.0225 4.93154687036
0.0025 -0.0215 4.95579910238
0.0025 -0.0205 4.97176392239
0.0025 -0.0195 4.98055058413
0.0025 -0.0185 4.98642371098
0.0025 -0.0175 4.99524500559
0.0025 -0.0165 5.01066511164
0.0025 -0.0155 5.02734483234
0.0025 -0.0145 5.0293892128
0.0025 -0.0135 4.99949703372
0.0025 -0.0125 4.93236559431
0.0025 -0.0115 4.85511675708
0.0025 -0.0105 4.80612658399
0.0025 -0.0095 4.78866817231
0.0025 -0.0085 4.78712168591
0.0025 -0.0075 4.7920115749
0.0025 -0.0065 4.79816738065
0.0025 -0.0055 4.80269223537
0.0025 -0.0045 4.8037495719
0.0025 -0.0035 4.80079015262
0.0025 -0.0025 4.79439280866
0.0025 -0.0015 4.78576307071
0.0025 -0.0005 4.77639114256
0.0025 0.0005 4.76775313853
0.0025 0.0015 4.76115547517
0.0025 0.0025 4.7576973771
0.0025 0.0035 4.75811368699
0.0025 0.0045 4.76237989072
0.0025 0.0055 4.76960529559
0.0025 0.0065 4.77809455474
0.0025 0.0075 4.78527244478
0.0025 0.0085 4.78847960384
0.0025 0.0095 4.78627875152
0.0025 0.0105 4.77895353709
0.0025 0.0115 4.76662144196
0.0025 0.0125 4.74653156861
0.0025 0.0135 4.71681592829
0.0025 0.0145 4.67853014017
0.0025 0.0155 4.63399509118
0.0025 0.0165 4.58620423332
0.0025 0.0175 4.5371382017
0.0025 0.0185 4.48771301054
0.0025 0.0195 4.4382389432
0.0025 0.0205 4.38884948754
0.0025 0.0215 4.33967727806
0.0025 0.0225 4.29089635288
0.0025 0.0235 4.24267516565
0.0025 0.0245 4.19509133213
0.0025 0.0255 4.14808084077
0.0025 0.0265 4.10145668892
0.0025 0.0275 4.0550548219
0.0025 0.0285 4.00907388348
0.0025 0.0295 3.96484166512
0.0025 0.0305 3.92648976913
0.0025 0.0315 3.90258659686
0.0035 -0.0315 4.58331949433
0.0035 -0.0305 4.60242647804
0.0035 -0.0295 4.63495540006
0.0035 -0.0285 4.67502103295
0.0035 -0.0275 4.71835117238
0.0035 -0.0265 4.76232834717
0.0035 -0.0255 4.80524853488
0.0035 -0.0245 4.84551686784
0.0035 -0.0235 4.88135420424
0.0035 -0.0225 4.91161640031
0.0035 -0.0215 4.93592393069
0.0035 -0.0205 4.95437933682
0.0035 -0.0195 4.9677842143
0.0035 -0.0185 4.9789611129
0.0035 -0.0175 4.99507617247
0.0035 -0.0165 5.02150315209
0.0035 -0.0155 5.0526317469
0.0035 -0.0145 5.0719485868
0.0035 -0.0135 5.06152999499
0.0035 -0.0125 5.01484641114
0.0035 -0.0115 4.94682720904
0.0035 -0.0105 4.88492770806
0.0035 -0.0095 4.84429109885
0.0035 -0.0085 4.82302958736
0.0035 -0.0075 4.81378957674
0.0035 -0.0065 4.81009541409
0.0035 -0.0055 4.80755562843
0.0035 -0.0045 4.8033715811
0.0035 -0.0035 4.79634713795
0.0035 -0.0025 4.78676693419
0.0035 -0.0015 4.77570559093
0.0035 -0.0005 4.76436154706
0.0035 0.0005 4.75373021018
0.0035 0.0015 4.74470289402
0.0035 0.0025 4.73836179336
0.0035 0.0035 4.73602285656
0.0035 0.0045 4.73877379342
0.0035 0.0055 4.74674596305
0.0035 0.0065 4.75833531467
0.0035 0.0075 4.77012171129
0.0035 0.0085 4.77743555411
0.0035 0.0095 4.77630342211
0.0035 0.0105 4.76684100733
0.0035 0.0115 4.75198773039
0.0035 0.0125 4.73227457692
0.0035 0.0135 4.70553151233
0.0035 0.0145 4.6703968644
0.0035 0.0155 4.62754817155
0.0035 0.0165 4.57923280318
0.0035 0.0175 4.52796227155
0.0035 0.0185 4.47535271618
0.0035 0.0195 4.42228873699
0.0035 0.0205 4.36924081155
0.0035 0.0215 4.31654088423
0.0035 0.0225 4.26450477406
0.0035 0.0235 4.21336197228
0.0035 0.0245 4.16312097525
0.0035 0.0255 4.11352568557
0.0035 0.0265 4.06421333661
0.0035 0.0275 4.01507345474
0.0035 0.0285 3.96682155172
0.0035 0.0295 3.9218574917
0.0035 0.0305 3.88505894603
0.0035 0.0315 3.86350293273
0.0045 -0.0315 4.54928108373
0.0045 -0.0305 4.56783618497
0.0045 -0.0295 4.6003170572
0.0045 -0.0285 4.6415845414
0.0045 -0.0275 4.68722716676
0.0045 -0.0265 4.73369853839
0.0045 -0.0255 4.77823054943
0.0045 -0.0245 4.81866678714
0.0045 -0.0235 4.85353414331
0.0045 -0.0225 4.88333293847
0.0045 -0.0215 4.90897444012
0.0045 -0.0205 4.9310338727
0.0045 -0.0195 4.94988198788
0.0045 -0.0185 4.96736871719
0.0045 -0.0175 4.99126742104
0.0045 -0.0165 5.02765424545
0.0045 -0.0155 5.06975136643
0.0045 -0.0145 5.09950302639
0.0045 -0.0135 5.10001200119
0.0045 -0.0125 5.06689136669
0.0045 -0.0115 5.01067863911
0.0045 -0.0105 4.94968187605
0.0045 -0.0095 4.89778083316
0.0045 -0.0085 4.86015961867
0.0045 -0.0075 4.83639374776
0.0045 -0.0065 4.82263902323
0.0045 -0.0055 4.8136734657
0.0045 -0.0045 4.80509132891
0.0045 -0.0035 4.79464387185
0.0045 -0.0025 4.78237806066
0.0045 -0.0015 4.76930825904
0.0045 -0.0005 4.75627129195
0.0045 0.0005 4.74377921811
0.0045 0.0015 4.73225535819
0.0045 0.0025 4.72238972869
0.0045 0.0035 4.71543228253
0.0045 0.0045 4.71323483391
0.0045 0.0055 4.71758448507
0.0045 0.0065 4.72845207059
0.0045 0.0075 4.74247600711
0.0045 0.0085 4.75348251195
0.0045 0.0095 4.75508312495
0.0045 0.0105 4.74575517512
0.0045 0.0115 4.72976815761
0.0045 0.0125 4.71057382714
0.0045 0.0135 4.68643216528
0.0045 0.0145 4.65458766165
0.0045 0.0155 4.61422500615
0.0045 0.0165 4.56625528166
0.0045 0.0175 4.51317422765
0.0045 0.0185 4.45728295141
0.0045 0.0195 4.40020942819
0.0045 0.0205 4.34302550751
0.0045 0.0215 4.28654398074
0.0045 0.0225 4.23135401733
0.0045 0.0235 4.17768281233
0.0045 0.0245 4.12528374083
0.0045 0.0255 4.07358528761
0.0045 0.0265 4.02210610845
0.0045 0.0275 3.97100919499
0.0045 0.0285 3.92169101316
0.0045 0.0295 3.87719864318
0.0045 0.0305 3.84220265335
0.0045 0.0315 3.82242681454
0.0055 -0.0315 4.51364895904
0.0055 -0.0305 4.53223821467
0.0055 -0.0295 4.56510242283
0.0055 -0.0285 4.60726730314
0.0055 -0.0275 4.65414682631
0.0055 -0.0265 4.70161440809
0.0055 -0.0255 4.74616067199
0.0055 -0.0245 4.78526694513
0.0055 -0.0235 4.8186830376
0.0055 -0.0225 4.84809752033
0.0055 -0.0215 4.87510345001
0.0055 -0.0205 4.90005087429
0.0055 -0.0195 4.92218111657
0.0055 -0.0185 4.94365224202
0.0055 -0.0175 4.97291751794
0.0055 -0.0165 5.01621952447
0.0055 -0.0155 5.06534900671
0.0055 -0.0145 5.09994778752
0.0055 -0.0135 5.10424474755
0.0055 -0.0125 5.07793142232
0.0055 -0.0115 5.03131960086
0.0055 -0.0105 4.97624575909
0.0055 -0.0095 4.92240567389
0.0055 -0.0085 4.87754802112
0.0055 -0.0075 4.84617905218
0.0055 -0.0065 4.82759370471
0.0055 -0.0055 4.81637369513
0.0055 -0.0045 4.80638707782
0.0055 -0.0035 4.79459665332
0.0055 -0.0025 4.78116831594
0.0055 -0.0015 4.76720849399
0.0055 -0.0005 4.75336024353
0.0055 0.0005 4.73981920234
0.0055 0.0015 4.72666532459
0.0055 0.0025 4.7141925195
0.0055 0.0035 4.70316163207
0.0055 0.0045 4.69505859579
0.0055 0.0055 4.69238338609
0.0055 0.0065 4.69748662699
0.0055 0.0075 4.7091455944
0.0055 0.0085 4.72099133492
0.0055 0.0095 4.72508467665
0.0055 0.0105 4.71797878976
0.0055 0.0115 4.7031394776
0.0055 0.0125 4.68488940661
0.0055 0.0135 4.66276236652
0.0055 0.0145 4.63380152535
0.0055 0.0155 4.59559081253
0.0055 0.0165 4.54777492965
0.0055 0.0175 4.49259334137
0.0055 0.0185 4.43300836335
0.0055 0.0195 4.37146654015
0.0055 0.0205 4.31000015216
0.0055 0.0215 4.25015412652
0.0055 0.0225 4.19276394892
0.0055 0.0235 4.1377182345
0.0055 0.0245 4.08416038727
0.0055 0.0255 4.03108999869
0.0055 0.0265 3.97804251258
0.0055 0.0275 3.92564213614
0.0055 0.0285 3.8758818983
0.0055 0.0295 3.83204584018
0.0055 0.0305 3.79842306803
0.0055 0.0315 3.77982875285
0.0065 -0.0315 4.47641563628
0.0065 -0.0305 4.49558836622
0.0065 -0.0295 4.5294011362
0.0065 -0.0285 4.57260149316
0.0065 -0.0275 4.6201803394
0.0065 -0.0265 4.66747628931
0.0065 -0.0255 4.71063783206
0.0065 -0.0245 4.74745047938
0.0065 -0.0235 4.7790012168
0.0065 -0.0225 4.8074323395
0.0065 -0.0215 4.83435074387
0.0065 -0.0205 4.85958542268
0.0065 -0.0195 4.88154014941
0.0065 -0.0185 4.90394806735
0.0065 -0.0175 4.93630939591
0.0065 -0.0165 4.98356464878
0.0065 -0.0155 5.03647936236
0.0065 -0.0145 5.07433660585
0.0065 -0.0135 5.08177264809
0.0065 -0.0125 5.06091784903
0.0065 -0.0115 5.02238753251
0.0065 -0.0105 4.97421351506
0.0065 -0.0095 4.92317171875
0.0065 -0.0085 4.87728795679
0.0065 -0.0075 4.84334364722
0.0065 -0.0065 4.823125291
0.0065 -0.0055 4.81203119284
0.0065 -0.0045 4.80311111565
0.0065 -0.0035 4.79233334203
0.0065 -0.0025 4.77943072945
0.0065 -0.0015 4.7655961571
0.0065 -0.0005 4.75163414065
0.0065 0.0005 4.73766315184
0.0065 0.0015 4.7235893715
0.0065 0.0025 4.70951549846
0.0065 0.0035 4.69598997233
0.0065 0.0045 4.68413092173
0.0065 0.0055 4.67580672969
0.0065 0.0065 4.67357845724
0.0065 0.0075 4.67889053085
0.0065 0.0085 4.6882210033
0.0065 0.0095 4.6933434862
0.0065 0.0105 4.68863711863
0.0065 0.0115 4.67590836647
0.0065 0.0125 4.65908671213
0.0065 0.0135 4.63867682862
0.0065 0.0145 4.61165589546
0.0065 0.0155 4.57418668482
0.0065 0.0165 4.52527069106
0.0065 0.0175 4.46680081412
0.0065 0.0185 4.40224860112
0.0065 0.0195 4.33549804675
0.0065 0.0205 4.27000892767
0.0065 0.0215 4.20819401664
0.0065 0.0225 4.15053048438
0.0065 0.0235 4.09578436706
0.0065 0.0245 4.0421061083
0.0065 0.0255 3.98812880492
0.0065 0.0265 3.93369456316
0.0065 0.0275 3.88009446024
0.0065 0.0285 3.82986818624
0.0065 0.0295 3.78641836123
0.0065 0.0305 3.75370159471
0.0065 0.0315 3.73587377178
0.0075 -0.0315 4.43745556911
0.0075 -0.0305 4.45768783386
0.0075 -0.0295 4.49305856304
0.0075 -0.0285 4.53767913958
0.0075 -0.0275 4.58587094548
0.0075 -0.0265 4.63238755224
0.0075 -0.0255 4.67316933062
0.0075 -0.0245 4.70712108818
0.0075 -0.0235 4.73617127257
0.0075 -0.0225 4.76283669773
0.0075 -0.0215 4.78808458051
0.0075 -0.0205 4.81096975209
0.0075 -0.0195 4.83136768997
0.0075 -0.0185 4.85458139762
0.0075 -0.0175 4.88889900578
0.0075 -0.0165 4.93664169423
0.0075 -0.0155 4.98942095001
0.0075 -0.0145 5.02963132019
0.0075 -0.0135 5.04296815937
0.0075 -0.0125 5.02991332693
0.0075 -0.0115 4.99851108967
0.0075 -0.0105 4.95532420665
0.0075 -0.0095 4.90673890923
0.0075 -0.0085 4.86053343424
0.0075 -0.0075 4.82424907234
0.0075 -0.0065 4.80208818409
0.0075 -0.0055 4.79147476218
0.0075 -0.0045 4.78535063481
0.0075 -0.0035 4.77814422589
0.0075 -0.0025 4.76837470026
0.0075 -0.0015 4.75705630527
0.0075 -0.0005 4.74490558625
0.0075 0.0005 4.73192761547
0.0075 0.0015 4.71796716812
0.0075 0.0025 4.70309942791
0.0075 0.0035 4.68806214628
0.0075 0.0045 4.67438956363
0.0075 0.0055 4.6635161905
0.0075 0.0065 4.65684302125
0.0075 0.0075 4.65632733883
0.0075 0.0085 4.661607213
0.0075 0.0095 4.66659001522
0.0075 0.0105 4.66396866922
0.0075 0.0115 4.65318425308
0.0075 0.0125 4.6378933516
0.0075 0.0135 4.61862300071
0.0075 0.0145 4.59142082397
0.0075 0.0155 4.55176724488
0.0075 0.0165 4.49932378869
0.0075 0.0175 4.43583333076
0.0075 0.0185 4.36460782833
0.0075 0.0195 4.29193707694
0.0075 0.0205 4.22371545037
0.0075 0.0215 4.16255386936
0.0075 0.0225 4.10711906259
0.0075 0.0235 4.0541817784
0.0075 0.0245 4.00080051867
0.0075 0.0255 3.94563741337
0.0075 0.0265 3.88936067469
0.0075 0.0275 3.83419154828
0.0075 0.0285 3.78322834876
0.0075 0.0295 3.73992958586
0.0075 0.0305 3.70788927514
0.0075 0.0315 3.69066408325
0.0085 -0.0315 4.39658736256
0.0085 -0.0305 4.41831493202
0.0085 -0.0295 4.45585250806
0.0085 -0.0285 4.50239856244
0.0085 -0.0275 4.55140476734
0.0085 -0.0265 4.59696460993
0.0085 -0.0255 4.63510949004
0.0085 -0.0245 4.66597335081
0.0085 -0.0235 4.69197030839
0.0085 -0.0225 4.71580578199
0.0085 -0.0215 4.73821266091
0.0085 -0.0205 4.75832171519
0.0085 -0.0195 4.7781960559
0.0085 -0.0185 4.80267419449
0.0085 -0.0175 4.83642826179
0.0085 -0.0165 4.88081026965
0.0085 -0.0155 4.92921726443
0.0085 -0.0145 4.96775189388
0.0085 -0.0135 4.98451792772
0.0085 -0.0125 4.97690741813
0.0085 -0.0115 4.94891042663
0.0085 -0.0105 4.90581293091
0.0085 -0.0095 4.85437958706
0.0085 -0.0085 4.80355993356
0.0085 -0.0075 4.76314938103
0.0085 -0.0065 4.73907794317
0.0085 -0.0055 4.72933278165
0.0085 -0.0045 4.72734918919
0.0085 -0.0035 4.72784042193
0.0085 -0.0025 4.72788661355
0.0085 -0.0015 4.72594833274
0.0085 -0.0005 4.72128953854
0.0085 0.0005 4.71366166092
0.0085 0.0015 4.70308272831
0.0085 0.0025 4.69000271493
0.0085 0.0035 4.67566251292
0.0085 0.0045 4.66213173191
0.0085 0.0055 4.65103859405
0.0085 0.0065 4.64318282487
0.0085 0.0075 4.63997300728
0.0085 0.0085 4.64263252817
0.0085 0.0095 4.6481730171
0.0085 0.0105 4.64887056663
0.0085 0.0115 4.64064440994
0.0085 0.0125 4.62590062256
0.0085 0.0135 4.60560081375
0.0085 0.0145 4.57521979382
0.0085 0.0155 4.52969335809
0.0085 0.0165 4.46974640311
0.0085 0.0175 4.39816938992
0.0085 0.0185 4.31877877202
0.0085 0.0195 4.24121356326
0.0085 0.0205 4.17366542573
0.0085 0.0215 4.11639885874
0.0085 0.0225 4.06510369879
0.0085 0.0235 4.01438557423
0.0085 0.0245 3.96053862253
0.0085 0.0255 3.90309575694
0.0085 0.0265 3.84414467187
0.0085 0.0275 3.78700131945
0.0085 0.0285 3.73522405039
0.0085 0.0295 3.69214948191
0.0085 0.0305 3.66087431981
0.0085 0.0315 3.64429784737
0.0095 -0.0315 4.35349465441
0.0095 -0.0305 4.37720456884
0.0095 -0.0295 4.41755893385
0.0095 -0.0285 4.46653976531
0.0095 -0.0275 4.51664519369
0.0095 -0.0265 4.5613160366
0.0095 -0.0255 4.5970743889
0.0095 -0.0245 4.62480216602
0.0095 -0.0235 4.64770512268
0.0095 -0.0225 4.66835661031
0.0095 -0.0215 4.6872885183
0.0095 -0.0205 4.70504965581
0.0095 -0.0195 4.72459233905
0.0095 -0.0185 4.74929344927
0.0095 -0.0175 4.78069471113
0.0095 -0.0165 4.8187392915
0.0095 -0.0155 4.8575610257
0.0095 -0.0145 4.88690898587
0.0095 -0.0135 4.89825482044
0.0095 -0.0125 4.88730205295
0.0095 -0.0115 4.85468284698
0.0095 -0.0105 4.80409485684
0.0095 -0.0095 4.74229622437
0.0095 -0.0085 4.67995826495
0.0095 -0.0075 4.63049647175
0.0095 -0.0065 4.60283892194
0.0095 -0.0055 4.59504222057
0.0095 -0.0045 4.60164508257
0.0095 -0.0035 4.61834323117
0.0095 -0.0025 4.6385171853
0.0095 -0.0015 4.65598243471
0.0095 -0.0005 4.66773826596
0.0095 0.0005 4.67309679983
0.0095 0.0015 4.67231053611
0.0095 0.0025 4.66631090083
0.0095 0.0035 4.65683854966
0.0095 0.0045 4.64628540317
0.0095 0.0055 4.63704740054
0.0095 0.0065 4.63035924054
0.0095 0.0075 4.6270918114
0.0095 0.0085 4.62937554259
0.0095 0.0095 4.63731242648
0.0095 0.0105 4.64416355005
0.0095 0.0115 4.64165411811
0.0095 0.0125 4.62770435715
0.0095 0.0135 4.60278819062
0.0095 0.0145 4.56389010781
0.0095 0.0155 4.50735174763
0.0095 0.0165 4.43471808907
0.0095 0.0175 4.35094563472
0.0095 0.0185 4.26337313911
0.0095 0.0195 4.18463050911
0.0095 0.0205 4.12249740199
0.0095 0.0215 4.072285815
0.0095 0.0225 4.02556287743
0.0095 0.0235 3.97573445816
0.0095 0.0245 3.91965154814
0.0095 0.0255 3.85860401066
0.0095 0.0265 3.79642256
0.0095 0.0275 3.737410636
0.0095 0.0285 3.68524391267
0.0095 0.0295 3.64283977835
0.0095 0.0305 3.61263886636
0.0095 0.0315 3.59683564811
0.0105 -0.0315 4.30771854288
0.0105 -0.0305 4.33393323748
0.0105 -0.0295 4.37785102018
0.0105 -0.0285 4.4298224168
0.0105 -0.0275 4.48119194833
0.0105 -0.0265 4.52512383976
0.0105 -0.0255 4.55900551203
0.0105 -0.0245 4.58389810111
0.0105 -0.0235 4.60360137554
0.0105 -0.0225 4.62112717356
0.0105 -0.0215 4.63701905928
0.0105 -0.0205 4.65288377447
0.0105 -0.0195 4.67105831576
0.0105 -0.0185 4.6938799397
0.0105 -0.0175 4.72148668265
0.0105 -0.0165 4.75031013181
0.0105 -0.0155 4.77406391834
0.0105 -0.0145 4.7861410677
0.0105 -0.0135 4.78117468667
0.0105 -0.0125 4.75555398184
0.0105 -0.0115 4.70877190063
0.0105 -0.0105 4.64389917505
0.0105 -0.0095 4.56787092673
0.0105 -0.0085 4.49195598928
0.0105 -0.0075 4.43136226675
0.0105 -0.0065 4.39887843904
0.0105 -0.0055 4.39435744137
0.0105 -0.0045 4.41388592569
0.0105 -0.0035 4.45273336153
0.0105 -0.0025 4.49917543856
0.0105 -0.0015 4.54320644911
0.0105 -0.0005 4.57963110764
0.0105 0.0005 4.60644315337
0.0105 0.0015 4.62340650312
0.0105 0.0025 4.63126177482
0.0105 0.0035 4.63172275103
0.0105 0.0045 4.62753430896
0.0105 0.0055 4.62225000457
0.0105 0.0065 4.6181407104
0.0105 0.0075 4.61621666013
0.0105 0.0085 4.61947214809
0.0105 0.0095 4.63091482097
0.0105 0.0105 4.64594909242
0.0105 0.0115 4.65287726996
0.0105 0.0125 4.64265309787
0.0105 0.0135 4.61104024148
0.0105 0.0145 4.55589689488
0.0105 0.0155 4.47922936091
0.0105 0.0165 4.38827465432
0.0105 0.0175 4.29246897067
0.0105 0.0185 4.20230195805
0.0105 0.0195 4.12862947726
0.0105 0.0205 4.07439263668
0.0105 0.0215 4.03069243108
0.0105 0.0225 3.98621614261
0.0105 0.0235 3.93465612252
0.0105 0.0245 3.87467386775
0.0105 0.0255 3.80944663603
0.0105 0.0265 3.74454639746
0.0105 0.0275 3.68469970452
0.0105 0.0285 3.63314720466
0.0105 0.0295 3.59209006093
0.0105 0.0305 3.56327081012
0.0105 0.0315 3.54831288757
0.0115 -0.0315 4.25868377022
0.0115 -0.0305 4.28781689545
0.0115 -0.0295 4.33602705811
0.0115 -0.0285 4.39172496053
0.0115 -0.0275 4.44466399062
0.0115 -0.0265 4.48788051616
0.0115 -0.0255 4.51986527678
0.0115 -0.0245 4.54252068758
0.0115 -0.0235 4.55959551136
0.0115 -0.0225 4.5741238307
0.0115 -0.0215 4.58753767408
0.0115 -0.0205 4.60202070447
0.0115 -0.0195 4.61874864153
0.0115 -0.0185 4.6380469234
0.0115 -0.0175 4.6586849446
0.0115 -0.0165 4.67449330239
0.0115 -0.0155 4.67851347395
0.0115 -0.0145 4.66675920814
0.0115 -0.0135 4.63660145777
0.0115 -0.0125 4.58708265241
0.0115 -0.0115 4.51928733601
0.0115 -0.0105 4.43728663354
0.0115 -0.0095 4.34913560328
0.0115 -0.0085 4.26691106776
0.0115 -0.0075 4.2053875902
0.0115 -0.0065 4.17523215439
0.0115 -0.0055 4.17491075673
0.0115 -0.0045 4.20273841479
0.0115 -0.0035 4.25712857992
0.0115 -0.0025 4.32646239196
0.0115 -0.0015 4.39809353663
0.0115 -0.0005 4.46349104673
0.0115 0.0005 4.51791647949
0.0115 0.0015 4.55927052861
0.0115 0.0025 4.58699403641
0.0115 0.0035 4.60198837599
0.0115 0.0045 4.60720973098
0.0115 0.0055 4.60737540243
0.0115 0.0065 4.60638912352
0.0115 0.0075 4.60634430304
0.0115 0.0085 4.61096069222
0.0115 0.0095 4.62550528176
0.0115 0.0105 4.64748031914
0.0115 0.0115 4.66333273512
0.0115 0.0125 4.65827588192
0.0115 0.0135 4.62190066565
0.0115 0.0145 4.54815269506
0.0115 0.0155 4.44292854256
0.0115 0.0165 4.32725141974
0.0115 0.0175 4.22243179195
0.0115 0.0185 4.13856660993
0.0115 0.0195 4.07623836774
0.0115 0.0205 4.02947661852
0.0115 0.0215 3.9883910699
0.0115 0.0225 3.94206069063
0.0115 0.0235 3.88582076185
0.0115 0.0245 3.82134730142
0.0115 0.0255 3.75318348547
0.0115 0.0265 3.68767420886
0.0115 0.0275 3.62900631316
0.0115 0.0285 3.5794354802
0.0115 0.0295 3.54034204537
0.0115 0.0305 3.51295798955
0.0115 0.0315 3.49867687641
0.0125 -0.0315 4.20575059365
0.0125 -0.0305 4.23790794634
0.0125 -0.0295 4.29078979465
0.0125 -0.0285 4.35100841065
0.0125 -0.0275 4.40642092571
0.0125 -0.0265 4.44945647489
0.0125 -0.0255 4.47929079859
0.0125 -0.0245 4.49976079676
0.0125 -0.0235 4.51508619468
0.0125 -0.0225 4.52734353791
0.0125 -0.0215 4.53856711902
0.0125 -0.0205 4.55154307477
0.0125 -0.0195 4.5671273723
0.0125 -0.0185 4.58271945224
0.0125 -0.0175 4.59311393124
0.0125 -0.0165 4.59108125209
0.0125 -0.0155 4.57094735365
0.0125 -0.0145 4.53102894014
0.0125 -0.0135 4.47173472678
0.0125 -0.0125 4.39506711971
0.0125 -0.0115 4.30465337971
0.0125 -0.0105 4.20679160891
0.0125 -0.0095 4.11170191097
0.0125 -0.0085 4.03297841759
0.0125 -0.0075 3.98279730848
0.0125 -0.0065 3.96342648832
0.0125 -0.0055 3.96807369069
0.0125 -0.0045 3.99788754888
0.0125 -0.0035 4.05813078509
0.0125 -0.0025 4.14271859963
0.0125 -0.0015 4.23851027366
0.0125 -0.0005 4.33292559206
0.0125 0.0005 4.41731982239
0.0125 0.0015 4.48647056027
0.0125 0.0025 4.53744794991
0.0125 0.0035 4.56959315727
0.0125 0.0045 4.58577815423
0.0125 0.0055 4.59194864442
0.0125 0.0065 4.59416265713
0.0125 0.0075 4.59622035259
0.0125 0.0085 4.60215950873
0.0125 0.0095 4.61789919163
0.0125 0.0105 4.64214790025
0.0125 0.0115 4.66134454745
0.0125 0.0125 4.65917984186
0.0125 0.0135 4.62180571275
0.0125 0.0145 4.53332558702
0.0125 0.0155 4.39820285156
0.0125 0.0165 4.25568143241
0.0125 0.0175 4.14303110805
0.0125 0.0185 4.06813947673
0.0125 0.0195 4.01838496948
0.0125 0.0205 3.9783403173
0.0125 0.0215 3.93706166794
0.0125 0.0225 3.88588927601
0.0125 0.0235 3.82402157009
0.0125 0.0245 3.75668333369
0.0125 0.0255 3.68907602474
0.0125 0.0265 3.62649908434
0.0125 0.0275 3.57152482517
0.0125 0.0285 3.52518410979
0.0125 0.0295 3.48826531495
0.0125 0.0305 3.46192945055
0.0125 0.0315 3.44788480681
0.0135 -0.0315 4.14830106283
0.0135 -0.0305 4.18308378626
0.0135 -0.0295 4.24033469518
0.0135 -0.0285 4.30542944462
0.0135 -0.0275 4.36476540641
0.0135 -0.0265 4.40980744838
0.0135 -0.0255 4.43902573559
0.0135 -0.0245 4.45748704646
0.0135 -0.0235 4.47102196976
0.0135 -0.0225 4.48147082024
0.0135 -0.0215 4.49060434403
0.0135 -0.0205 4.50122351619
0.0135 -0.0195 4.51422436898
0.0135 -0.0185 4.52447580688
0.0135 -0.0175 4.52199626524
0.0135 -0.0165 4.49866328199
0.0135 -0.0155 4.4515665667
0.0135 -0.0145 4.38208282645
0.0135 -0.0135 4.29402191708
0.0135 -0.0125 4.19221485512
0.0135 -0.0115 4.08249950099
0.0135 -0.0105 3.97310600468
0.0135 -0.0095 3.87604008907
0.0135 -0.0085 3.80531141013
0.0135 -0.0075 3.7694571137
0.0135 -0.0065 3.7625295086
0.0135 -0.0055 3.77330339018
0.0135 -0.0045 3.80549299588
0.0135 -0.0035 3.86927948666
0.0135 -0.0025 3.96440012894
0.0135 -0.0015 4.08013250928
0.0135 -0.0005 4.20132098863
0.0135 0.0005 4.31504847661
0.0135 0.0015 4.41211469469
0.0135 0.0025 4.48654890795
0.0135 0.0035 4.53584697052
0.0135 0.0045 4.56273974444
0.0135 0.0055 4.574606442
0.0135 0.0065 4.57989407325
0.0135 0.0075 4.58410469454
0.0135 0.0085 4.59106367816
0.0135 0.0095 4.60561494023
0.0135 0.0105 4.62662764834
0.0135 0.0115 4.64313924716
0.0135 0.0125 4.64157233872
0.0135 0.0135 4.60364762905
0.0135 0.0145 4.5026732824
0.0135 0.0155 4.34342040591
0.0135 0.0165 4.17935959147
0.0135 0.0175 4.06068191952
0.0135 0.0185 3.9919792739
0.0135 0.0195 3.94911654588
0.0135 0.0205 3.91206695519
0.0135 0.0215 3.86855015392
0.0135 0.0225 3.81239195124
0.0135 0.0235 3.74751454262
0.0135 0.0245 3.68163763033
0.0135 0.0255 3.61944914162
0.0135 0.0265 3.56355445756
0.0135 0.0275 3.51430960777
0.0135 0.0285 3.4717183245
0.0135 0.0295 3.43648144853
0.0135 0.0305 3.41036184136
0.0135 0.0315 3.39598027973
0.0145 -0.0315 4.0858901117
0.0145 -0.0305 4.12219601761
0.0145 -0.0295 4.1826359943
0.0145 -0.0285 4.25227420031
0.0145 -0.0275 4.31677884605
0.0145 -0.0265 4.36661003416
0.0145 -0.0255 4.39836282179
0.0145 -0.0245 4.41667274732
0.0145 -0.0235 4.4291652838
0.0145 -0.0225 4.43843204182
0.0145 -0.0215 4.44550340923
0.0145 -0.0205 4.45278202242
0.0145 -0.0195 4.46048982506
0.0145 -0.0185 4.4612890665
0.0145 -0.0175 4.4426196045
0.0145 -0.0165 4.39596892376
0.0145 -0.0155 4.3211727377
0.0145 -0.0145 4.22352453137
0.0145 -0.0135 4.11026626165
0.0145 -0.0125 3.98861337284
0.0145 -0.0115 3.8658898841
0.0145 -0.0105 3.7510782881
0.0145 -0.0095 3.65597798761
0.0145 -0.0085 3.59301722094
0.0145 -0.0075 3.56821028017
0.0145 -0.0065 3.57136064933
0.0145 -0.0055 3.58886464019
0.0145 -0.0045 3.6259403807
0.0145 -0.0035 3.69508504729
0.0145 -0.0025 3.80007615696
0.0145 -0.0015 3.93335638834
0.0145 -0.0005 4.07877345251
0.0145 0.0005 4.21971036816
0.0145 0.0015 4.3425825991
0.0145 0.0025 4.43794874927
0.0145 0.0035 4.50172497249
0.0145 0.0045 4.53725325346
0.0145 0.0055 4.55380155637
0.0145 0.0065 4.56189704771
0.0145 0.0075 4.56814305572
0.0145 0.0085 4.57571031196
0.0145 0.0095 4.58765593674
0.0145 0.0105 4.60273415502
0.0145 0.0115 4.61415673386
0.0145 0.0125 4.61144307442
0.0145 0.0135 4.56923113216
0.0145 0.0145 4.45650804396
0.0145 0.0155 4.28323921101
0.0145 0.0165 4.10741884041
0.0145 0.0175 3.9846442208
0.0145 0.0185 3.9171210082
0.0145 0.0195 3.87320536088
0.0145 0.0205 3.83214574475
0.0145 0.0215 3.78396023211
0.0145 0.0225 3.72520941836
0.0145 0.0235 3.66203919613
0.0145 0.0245 3.60283745076
0.0145 0.0255 3.54990879077
0.0145 0.0265 3.50264696596
0.0145 0.0275 3.45961286494
0.0145 0.0285 3.42004296863
0.0145 0.0295 3.38526402504
0.0145 0.0305 3.35823335562
0.0145 0.0315 3.34285637433
0.0155 -0.0315 4.0184889419
0.0155 -0.0305 4.05440425251
0.0155 -0.0295 4.11591707066
0.0155 -0.0285 4.18924939973
0.0155 -0.0275 4.25974502135
0.0155 -0.0265 4.31638402003
0.0155 -0.0255 4.35392411606
0.0155 -0.0245 4.37586574419
0.0155 -0.0235 4.39062303336
0.0155 -0.0225 4.40069668963
0.0155 -0.0215 4.40572164376
0.0155 -0.0205 4.40851157866
0.0155 -0.0195 4.40834538279
0.0155 -0.0185 4.39500523314
0.0155 -0.0175 4.35550193673
0.0155 -0.0165 4.2833633109
0.0155 -0.0155 4.18174398176
0.0155 -0.0145 4.05964744028
0.0155 -0.0135 3.92685475842
0.0155 -0.0125 3.79198168924
0.0155 -0.0115 3.66303290845
0.0155 -0.0105 3.54894768376
0.0155 -0.0095 3.45989351087
0.0155 -0.0085 3.4052624184
0.0155 -0.0075 3.38822658332
0.0155 -0.0065 3.3972574933
0.0155 -0.0055 3.41925198819
0.0155 -0.0045 3.46099005756
0.0155 -0.0035 3.53686252776
0.0155 -0.0025 3.65308907078
0.0155 -0.0015 3.80372800956
0.0155 -0.0005 3.97168641036
0.0155 0.0005 4.13729598484
0.0155 0.0015 4.28278846696
0.0155 0.0025 4.394991305
0.0155 0.0035 4.46870894196
0.0155 0.0045 4.50920260231
0.0155 0.0055 4.52865184753
0.0155 0.0065 4.5391509497
0.0155 0.0075 4.54725406508
0.0155 0.0085 4.55538580974
0.0155 0.0095 4.5652041717
0.0155 0.0105 4.57558243163
0.0155 0.0115 4.58273819069
0.0155 0.0125 4.5765369431
0.0155 0.0135 4.52719835465
0.0155 0.0145 4.40558139656
0.0155 0.0155 4.22696940144
0.0155 0.0165 4.04784718488
0.0155 0.0175 3.92021404002
0.0155 0.0185 3.84702344769
0.0155 0.0195 3.79776067495
0.0155 0.0205 3.75008182363
0.0155 0.0215 3.69669356321
0.0155 0.0225 3.63822261973
0.0155 0.0235 3.58010411227
0.0155 0.0245 3.52951089133
0.0155 0.0255 3.48658162152
0.0155 0.0265 3.44723050948
0.0155 0.0275 3.40867172892
0.0155 0.0285 3.37025685236
0.0155 0.0295 3.33433993654
0.0155 0.0305 3.30517335471
0.0155 0.0315 3.28812437105
0.0165 -0.0315 3.9468398831
0.0165 -0.0305 3.97987903774
0.0165 -0.0295 4.0397319432
0.0165 -0.0285 4.11541837093
0.0165 -0.0275 4.19273957091
0.0165 -0.0265 4.25809328326
0.0165 -0.0255 4.30426949992
0.0165 -0.0245 4.3346703396
0.0165 -0.0235 4.35694666459
0.0165 -0.0225 4.3705738407
0.0165 -0.0215 4.37306247173
0.0165 -0.0205 4.36931486023
0.0165 -0.0195 4.35832891509
0.0165 -0.0185 4.32646446257
0.0165 -0.0175 4.26194534518
0.0165 -0.0165 4.16314889788
0.0165 -0.0155 4.03729867702
0.0165 -0.0145 3.89623117289
0.0165 -0.0135 3.75045782467