% Model:              Benchmark260518.mph
% Version:            COMSOL 6.2.0.339
% Date:               May 20 2026, 04:00
% Dimension:          2
% Nodes:              4096
% Expressions:        1
% Description:        压力
% Length unit:        m
% x                       y                        p (Pa)
5.0E-4                    -0.0315                  3.647608832441829
5.0E-4                    -0.0305                  3.670617265284298
5.0E-4                    -0.0295                  3.7019253152091456
5.0E-4                    -0.0285                  3.7359502469242636
5.0E-4                    -0.0275                  3.7714377202068072
5.0E-4                    -0.0265                  3.8079441616504353
5.0E-4                    -0.0255                  3.8452080154008095
5.0E-4                    -0.0245                  3.8830593630009296
5.0E-4                    -0.0235                  3.92135085415992
5.0E-4                    -0.0225                  3.9599668844630984
5.0E-4                    -0.0215                  3.99882600700537
5.0E-4                    -0.0205                  4.037868063571768
5.0E-4                    -0.0195                  4.077038418618685
5.0E-4                    -0.0185                  4.11628718567801
5.0E-4                    -0.0175                  4.1555689851083475
5.0E-4                    -0.0165                  4.194851380405413
5.0E-4                    -0.0155                  4.234120118767769
5.0E-4                    -0.0145                  4.273386864403108
5.0E-4                    -0.0135                  4.3126997869135595
5.0E-4                    -0.0125                  4.352143274615534
5.0E-4                    -0.0115                  4.391853552359974
5.0E-4                    -0.0105                  4.43201932632919
5.0E-4                    -0.0095                  4.472858224128007
5.0E-4                    -0.0085                  4.514650288694572
5.0E-4                    -0.0075                  4.557854926635624
5.0E-4                    -0.0065                  4.602720595733928
5.0E-4                    -0.0055                  4.647916501142717
5.0E-4                    -0.0045                  4.690474163685212
5.0E-4                    -0.0035                  4.727375156590581
5.0E-4                    -0.0025                  4.754840439268316
5.0E-4                    -0.0015                  4.771302800932617
5.0E-4                    -5.0E-4                  4.779324199929987
5.0E-4                    5.0E-4                   4.781738262556966
5.0E-4                    0.0015                   4.781110861071921
5.0E-4                    0.0025                   4.780556956074783
5.0E-4                    0.0035                   4.782812089374607
5.0E-4                    0.0045                   4.787982423114218
5.0E-4                    0.0055                   4.79218105028481
5.0E-4                    0.0065                   4.788838775702886
5.0E-4                    0.0075                   4.7732384931209335
5.0E-4                    0.0085                   4.74689852822971
5.0E-4                    0.0095                   4.71785650217132
5.0E-4                    0.0105                   4.6959752491516085
5.0E-4                    0.0115                   4.6850708088227995
5.0E-4                    0.0125                   4.682178409750331
5.0E-4                    0.0135                   4.687873153518778
5.0E-4                    0.0145                   4.727610115002311
5.0E-4                    0.0155                   4.818688761623616
5.0E-4                    0.0165                   4.899326628921245
5.0E-4                    0.0175                   4.924673485450597
5.0E-4                    0.0185                   4.929254093847441
5.0E-4                    0.0195                   4.933420126290238
5.0E-4                    0.0205                   4.93431580948487
5.0E-4                    0.0215                   4.930977850157501
5.0E-4                    0.0225                   4.921868114295702
5.0E-4                    0.0235                   4.906910330927027
5.0E-4                    0.0245                   4.887697297597925
5.0E-4                    0.0255                   4.865657883244708
5.0E-4                    0.0265                   4.842000149734295
5.0E-4                    0.0275                   4.817615570765889
5.0E-4                    0.0285                   4.7932628306894
5.0E-4                    0.0295                   4.769751953303414
5.0E-4                    0.0305                   4.748317268396091
5.0E-4                    0.0315                   4.732724344131488
0.0015                    -0.0315                  3.6244288363718278
0.0015                    -0.0305                  3.6476275467679597
0.0015                    -0.0295                  3.6814021865684423
0.0015                    -0.0285                  3.7183770791433606
0.0015                    -0.0275                  3.7564845105180544
0.0015                    -0.0265                  3.795211714411838
0.0015                    -0.0255                  3.8343819275783035
0.0015                    -0.0245                  3.8738915568364467
0.0015                    -0.0235                  3.913652402370463
0.0015                    -0.0225                  3.953582752905467
0.0015                    -0.0215                  3.993612359061705
0.0015                    -0.0205                  4.033679645678836
0.0015                    -0.0195                  4.07372356408535
0.0015                    -0.0185                  4.113679226864443
0.0015                    -0.0175                  4.15348038489809
0.0015                    -0.0165                  4.1930648147117715
0.0015                    -0.0155                  4.232382276781263
0.0015                    -0.0145                  4.271404313277544
0.0015                    -0.0135                  4.31013738788232
0.0015                    -0.0125                  4.348643273785587
0.0015                    -0.0115                  4.387062044898579
0.0015                    -0.0105                  4.425629974212366
0.0015                    -0.0095                  4.464696394475542
0.0015                    -0.0085                  4.504761858214275
0.0015                    -0.0075                  4.546442590845253
0.0015                    -0.0065                  4.590159308015501
0.0015                    -0.0055                  4.635342208965688
0.0015                    -0.0045                  4.679561439345562
0.0015                    -0.0035                  4.719449589401549
0.0015                    -0.0025                  4.749787649359376
0.0015                    -0.0015                  4.768609961351167
0.0015                    -5.0E-4                  4.778483468632925
0.0015                    5.0E-4                   4.780908559784269
0.0015                    0.0015                   4.778211556535036
0.0015                    0.0025                   4.774539853696474
0.0015                    0.0035                   4.773839566196564
0.0015                    0.0045                   4.777067142372367
0.0015                    0.0055                   4.7808762170128185
0.0015                    0.0065                   4.778547422797497
0.0015                    0.0075                   4.76424931021616
0.0015                    0.0085                   4.738288795640001
0.0015                    0.0095                   4.708999328962373
0.0015                    0.0105                   4.68795514678394
0.0015                    0.0115                   4.679766184293911
0.0015                    0.0125                   4.680439100954268
0.0015                    0.0135                   4.682119050379953
0.0015                    0.0145                   4.732481121487991
0.0015                    0.0155                   4.837469108415652
0.0015                    0.0165                   4.912513239223096
0.0015                    0.0175                   4.932743407572801
0.0015                    0.0185                   4.933959657286723
0.0015                    0.0195                   4.936293436571206
0.0015                    0.0205                   4.937146870887712
0.0015                    0.0215                   4.9351908753597415
0.0015                    0.0225                   4.927671679169117
0.0015                    0.0235                   4.913262675074746
0.0015                    0.0245                   4.89295357249235
0.0015                    0.0255                   4.868408439545459
0.0015                    0.0265                   4.841418729273731
0.0015                    0.0275                   4.813346637331515
0.0015                    0.0285                   4.785241485692447
0.0015                    0.0295                   4.75814450188444
0.0015                    0.0305                   4.733861117613408
0.0015                    0.0315                   4.717465635115842
0.0025                    -0.0315                  3.5924776727032848
0.0025                    -0.0305                  3.6138400235584003
0.0025                    -0.0295                  3.6481250708531987
0.0025                    -0.0285                  3.6878684909442656
0.0025                    -0.0275                  3.729467608842599
0.0025                    -0.0265                  3.7716612506072003
0.0025                    -0.0255                  3.814059264444199
0.0025                    -0.0245                  3.8565195167248403
0.0025                    -0.0235                  3.898963855275902
0.0025                    -0.0225                  3.9413268071738803
0.0025                    -0.0215                  3.983541794427582
0.0025                    -0.0205                  4.025537166912195
0.0025                    -0.0195                  4.067232190005075
0.0025                    -0.0185                  4.10853316917244
0.0025                    -0.0175                  4.14933395554593
0.0025                    -0.0165                  4.189521247407373
0.0025                    -0.0155                  4.2289836547668616
0.0025                    -0.0145                  4.267624592213201
0.0025                    -0.0135                  4.305382872753826
0.0025                    -0.0125                  4.342267456945445
0.0025                    -0.0115                  4.378406029220387
0.0025                    -0.0105                  4.414101816395042
0.0025                    -0.0095                  4.449882879215217
0.0025                    -0.0085                  4.4864864461953795
0.0025                    -0.0075                  4.5247365752707065
0.0025                    -0.0065                  4.565278715576538
0.0025                    -0.0055                  4.60809794441268
0.0025                    -0.0045                  4.651685272908299
0.0025                    -0.0035                  4.693361709020098
0.0025                    -0.0025                  4.728417870935055
0.0025                    -0.0015                  4.753355134643263
0.0025                    -5.0E-4                  4.766755225299012
0.0025                    5.0E-4                   4.767709144613891
0.0025                    0.0015                   4.760296356602315
0.0025                    0.0025                   4.751790233467523
0.0025                    0.0035                   4.747405717775355
0.0025                    0.0045                   4.748611866978344
0.0025                    0.0055                   4.753001655147999
0.0025                    0.0065                   4.754777259248405
0.0025                    0.0075                   4.747253800157301
0.0025                    0.0085                   4.728065763662987
0.0025                    0.0095                   4.703345369724092
0.0025                    0.0105                   4.68417372605209
0.0025                    0.0115                   4.677798666234079
0.0025                    0.0125                   4.684956843492453
0.0025                    0.0135                   4.714515994916401
0.0025                    0.0145                   4.792831223779764
0.0025                    0.0155                   4.884429666521247
0.0025                    0.0165                   4.931418442405043
0.0025                    0.0175                   4.941423737528012
0.0025                    0.0185                   4.940901863145591
0.0025                    0.0195                   4.941547241859071
0.0025                    0.0205                   4.941886145834981
0.0025                    0.0215                   4.940615120089166
0.0025                    0.0225                   4.934528412055347
0.0025                    0.0235                   4.92080468835419
0.0025                    0.0245                   4.899025995148991
0.0025                    0.0255                   4.870814181969407
0.0025                    0.0265                   4.838706243309216
0.0025                    0.0275                   4.804929714420478
0.0025                    0.0285                   4.7712550409479615
0.0025                    0.0295                   4.739522862940743
0.0025                    0.0305                   4.71278148816833
0.0025                    0.0315                   4.696423101512763
0.0035                    -0.0315                  3.557219762053752
0.0035                    -0.0305                  3.5764684777584366
0.0035                    -0.0295                  3.609439834159964
0.0035                    -0.0285                  3.6501976466302004
0.0035                    -0.0275                  3.6945853553468515
0.0035                    -0.0265                  3.7403650207199703
0.0035                    -0.0255                  3.78654735317012
0.0035                    -0.0245                  3.8327142034914203
0.0035                    -0.0235                  3.8786633673269884
0.0035                    -0.0225                  3.9242687014210054
0.0035                    -0.0215                  3.9694266478190836
0.0035                    -0.0205                  4.014033891868739
0.0035                    -0.0195                  4.05797588697261
0.0035                    -0.0185                  4.101119287781987
0.0035                    -0.0175                  4.143308422307274
0.0035                    -0.0165                  4.184368830453213
0.0035                    -0.0155                  4.2241179288063595
0.0035                    -0.0145                  4.262382178536105
0.0035                    -0.0135                  4.299022781281121
0.0035                    -0.0125                  4.33397680076616
0.0035                    -0.0115                  4.367327235372208
0.0035                    -0.0105                  4.39940101762417
0.0035                    -0.0095                  4.430845366512912
0.0035                    -0.0085                  4.462606484630648
0.0035                    -0.0075                  4.495724506676589
0.0035                    -0.0065                  4.531028498071775
0.0035                    -0.0055                  4.568739431211238
0.0035                    -0.0045                  4.6084576197713245
0.0035                    -0.0035                  4.649084095905433
0.0035                    -0.0025                  4.687643022464172
0.0035                    -0.0015                  4.718518447469963
0.0035                    -5.0E-4                  4.734746973826866
0.0035                    5.0E-4                   4.734161934480047
0.0035                    0.0015                   4.723419166308675
0.0035                    0.0025                   4.7119694447576315
0.0035                    0.0035                   4.705873721285563
0.0035                    0.0045                   4.70691907057693
0.0035                    0.0055                   4.713594330063587
0.0035                    0.0065                   4.7224504812903465
0.0035                    0.0075                   4.7285963251637675
0.0035                    0.0085                   4.727489822057882
0.0035                    0.0095                   4.7196461977043285
0.0035                    0.0105                   4.7124660194178
0.0035                    0.0115                   4.717933416871394
0.0035                    0.0125                   4.746367369507802
0.0035                    0.0135                   4.8083085619630195
0.0035                    0.0145                   4.890364731712644
0.0035                    0.0155                   4.941908947711235
0.0035                    0.0165                   4.950324123019428
0.0035                    0.0175                   4.94737920340804
0.0035                    0.0185                   4.947164851165278
0.0035                    0.0195                   4.947855307488874
0.0035                    0.0205                   4.94790742717642
0.0035                    0.0215                   4.946486915932902
0.0035                    0.0225                   4.940443764393448
0.0035                    0.0235                   4.926244008916422
0.0035                    0.0245                   4.902343370153181
0.0035                    0.0255                   4.87000072894704
0.0035                    0.0265                   4.832329673130713
0.0035                    0.0275                   4.792513888528046
0.0035                    0.0285                   4.753338251465563
0.0035                    0.0295                   4.717708614454877
0.0035                    0.0305                   4.689361030608061
0.0035                    0.0315                   4.672984349531728
0.0045                    -0.0315                  3.5199389622553747
0.0045                    -0.0305                  3.5375417163794793
0.0045                    -0.0295                  3.568863157179382
0.0045                    -0.0285                  3.6094079377392916
0.0045                    -0.0275                  3.6554139246862314
0.0045                    -0.0265                  3.704182259385355
0.0045                    -0.0255                  3.754080375284218
0.0045                    -0.0245                  3.804221434917718
0.0045                    -0.0235                  3.854119222658664
0.0045                    -0.0225                  3.9034775741898904
0.0045                    -0.0215                  3.9520874630980947
0.0045                    -0.0205                  3.999775909791367
0.0045                    -0.0195                  4.0463765132362415
0.0045                    -0.0185                  4.091710070818948
0.0045                    -0.0175                  4.13557225562686
0.0045                    -0.0165                  4.177730570396153
0.0045                    -0.0155                  4.21793459578258
0.0045                    -0.0145                  4.255937791555154
0.0045                    -0.0135                  4.291527867616918
0.0045                    -0.0125                  4.324569787407048
0.0045                    -0.0115                  4.355076279812463
0.0045                    -0.0105                  4.383325930012685
0.0045                    -0.0095                  4.410004000622617
0.0045                    -0.0085                  4.436232959031932
0.0045                    -0.0075                  4.463402685413358
0.0045                    -0.0065                  4.492589622009726
0.0045                    -0.0055                  4.5243960372942205
0.0045                    -0.0045                  4.559088851928225
0.0045                    -0.0035                  4.596505343936635
0.0045                    -0.0025                  4.6345506701524695
0.0045                    -0.0015                  4.667320948320514
0.0045                    -5.0E-4                  4.685753875528453
0.0045                    5.0E-4                   4.6866953162965475
0.0045                    0.0015                   4.678022019768659
0.0045                    0.0025                   4.669840339223752
0.0045                    0.0035                   4.6674802506209465
0.0045                    0.0045                   4.671750351746244
0.0045                    0.0055                   4.681864601356814
0.0045                    0.0065                   4.697383268091932
0.0045                    0.0075                   4.717469193044444
0.0045                    0.0085                   4.740116780134126
0.0045                    0.0095                   4.763585562416399
0.0045                    0.0105                   4.790230869712991
0.0045                    0.0115                   4.82957879016206
0.0045                    0.0125                   4.89048357432606
0.0045                    0.0135                   4.965852270873494
0.0045                    0.0145                   5.016510050456057
0.0045                    0.0155                   5.008146339945453
0.0045                    0.0165                   4.970828396547149
0.0045                    0.0175                   4.952331222473414
0.0045                    0.0185                   4.95275880696761
0.0045                    0.0195                   4.954780396779839
0.0045                    0.0205                   4.954632276414255
0.0045                    0.0215                   4.952064127859365
0.0045                    0.0225                   4.944322026490295
0.0045                    0.0235                   4.927854007026476
0.0045                    0.0245                   4.900759775945595
0.0045                    0.0255                   4.8640655639491195
0.0045                    0.0265                   4.821254158848948
0.0045                    0.0275                   4.776253694352243
0.0045                    0.0285                   4.732713644624974
0.0045                    0.0295                   4.694217694269962
0.0045                    0.0305                   4.664579638297145
0.0045                    0.0315                   4.647924852272676
0.0055                    -0.0315                  3.4810496210806026
0.0055                    -0.0305                  3.497570820068092
0.0055                    -0.0295                  3.5275678479767505
0.0055                    -0.0285                  3.567553977245317
0.0055                    -0.0275                  3.6143689791471414
0.0055                    -0.0265                  3.6653625660844127
0.0055                    -0.0255                  3.7185406222161053
0.0055                    -0.0245                  3.772551201842977
0.0055                    -0.0235                  3.826521987647429
0.0055                    -0.0225                  3.8798810455693484
0.0055                    -0.0215                  3.9322328634852326
0.0055                    -0.0205                  3.983283077376929
0.0055                    -0.0195                  4.0327882431224795
0.0055                    -0.0185                  4.080518375004836
0.0055                    -0.0175                  4.126230372004765
0.0055                    -0.0165                  4.16965224196242
0.0055                    -0.0155                  4.210483273078218
0.0055                    -0.0145                  4.248416590951014
0.0055                    -0.0135                  4.283176348758728
0.0055                    -0.0125                  4.3145652556088
0.0055                    -0.0115                  4.342532980221463
0.0055                    -0.0105                  4.367292525670392
0.0055                    -0.0095                  4.389517335159098
0.0055                    -0.0085                  4.410535944761443
0.0055                    -0.0075                  4.432034424402886
0.0055                    -0.0065                  4.4556217772577815
0.0055                    -0.0055                  4.482584968370467
0.0055                    -0.0045                  4.513119991038121
0.0055                    -0.0035                  4.546522213333423
0.0055                    -0.0025                  4.581144902076581
0.0055                    -0.0015                  4.61309682747814
0.0055                    -5.0E-4                  4.634069818012236
0.0055                    5.0E-4                   4.640506200913815
0.0055                    0.0015                   4.640126499019425
0.0055                    0.0025                   4.641243754587155
0.0055                    0.0035                   4.6465393111371895
0.0055                    0.0045                   4.6558339317909745
0.0055                    0.0055                   4.6695704541482765
0.0055                    0.0065                   4.689716452865616
0.0055                    0.0075                   4.719199642663456
0.0055                    0.0085                   4.761207844832849
0.0055                    0.0095                   4.817477479746702
0.0055                    0.0105                   4.887538456340292
0.0055                    0.0115                   4.9690160895115
0.0055                    0.0125                   5.055063295537637
0.0055                    0.0135                   5.123038940825115
0.0055                    0.0145                   5.134553465815901
0.0055                    0.0155                   5.076783840417261
0.0055                    0.0165                   5.000019560969413
0.0055                    0.0175                   4.963033231894826
0.0055                    0.0185                   4.960733860999439
0.0055                    0.0195                   4.962890091240656
0.0055                    0.0205                   4.961041002772367
0.0055                    0.0215                   4.955454815756009
0.0055                    0.0225                   4.944138798165541
0.0055                    0.0235                   4.923824663707643
0.0055                    0.0245                   4.89273818530664
0.0055                    0.0255                   4.851884823556245
0.0055                    0.0265                   4.8049729236501175
0.0055                    0.0275                   4.756259658262684
0.0055                    0.0285                   4.709760213907688
0.0055                    0.0295                   4.669270238921176
0.0055                    0.0305                   4.638554582114352
0.0055                    0.0315                   4.62149956416451
0.0065                    -0.0315                  3.4408725092314905
0.0065                    -0.0305                  3.456746904750044
0.0065                    -0.0295                  3.485906866698282
0.0065                    -0.0285                  3.525476940644722
0.0065                    -0.0275                  3.572801054935032
0.0065                    -0.0265                  3.6254685761793892
0.0065                    -0.0255                  3.6814083747153092
0.0065                    -0.0245                  3.738964163844031
0.0065                    -0.0235                  3.79689020900421
0.0065                    -0.0225                  3.8542791495154014
0.0065                    -0.0215                  3.9104757776659365
0.0065                    -0.0205                  3.9650052664970294
0.0065                    -0.0195                  4.017513677655905
0.0065                    -0.0185                  4.067713741624571
0.0065                    -0.0175                  4.1153381304193735
0.0065                    -0.0165                  4.160107877703315
0.0065                    -0.0155                  4.201711810039402
0.0065                    -0.0145                  4.239808436288508
0.0065                    -0.0135                  4.274067282307989
0.0065                    -0.0125                  4.304233461850963
0.0065                    -0.0115                  4.330219245215339
0.0065                    -0.0105                  4.352237785623884
0.0065                    -0.0095                  4.371009284690797
0.0065                    -0.0085                  4.38796900227283
0.0065                    -0.0075                  4.4050178374983355
0.0065                    -0.0065                  4.424494236739971
0.0065                    -0.0055                  4.447832494487097
0.0065                    -0.0045                  4.474702549861272
0.0065                    -0.0035                  4.504084011746225
0.0065                    -0.0025                  4.5358096940423245
0.0065                    -0.0015                  4.567466788076683
0.0065                    -5.0E-4                  4.591462288849371
0.0065                    5.0E-4                   4.605400608406086
0.0065                    0.0015                   4.615198927147125
0.0065                    0.0025                   4.625517206896308
0.0065                    0.0035                   4.637473465672274
0.0065                    0.0045                   4.651587571517371
0.0065                    0.0055                   4.66954420686875
0.0065                    0.0065                   4.694564749144339
0.0065                    0.0075                   4.731271841903062
0.0065                    0.0085                   4.7852645468301915
0.0065                    0.0095                   4.8614903602508015
0.0065                    0.0105                   4.958661699768293
0.0065                    0.0115                   5.0644237208809955
0.0065                    0.0125                   5.15983123720915