% Model:              Benchmark260518.mph
% Version:            COMSOL 6.2.0.339
% Date:               May 21 2026, 00:25
% Dimension:          2
% Nodes:              4096
% Expressions:        1
% Description:        压力
% Length unit:        m
% x                       y                        p (Pa)
% mirrored_by_python_y_to_minus_y, coord_match_decimals=12
0.0005 -0.0315 4.03937499049
0.0005 -0.0305 4.07146266221
0.0005 -0.0295 4.11518092318
0.0005 -0.0285 4.16273657605
0.0005 -0.0275 4.21253381871
0.0005 -0.0265 4.26409800789
0.0005 -0.0255 4.3172745145
0.0005 -0.0245 4.37222067811
0.0005 -0.0235 4.42929112718
0.0005 -0.0225 4.48910885804
0.0005 -0.0215 4.55254548932
0.0005 -0.0205 4.61923972021
0.0005 -0.0195 4.68566586679
0.0005 -0.0185 4.74783580126
0.0005 -0.0175 4.80065239257
0.0005 -0.0165 4.84946616311
0.0005 -0.0155 4.88838220782
0.0005 -0.0145 4.90259560875
0.0005 -0.0135 4.90628686889
0.0005 -0.0125 4.91627441413
0.0005 -0.0115 4.93484625631
0.0005 -0.0105 4.95902301282
0.0005 -0.0095 4.98127039892
0.0005 -0.0085 4.99902391074
0.0005 -0.0075 5.01247071145
0.0005 -0.0065 5.01556243236
0.0005 -0.0055 5.00620480588
0.0005 -0.0045 4.98737312412
0.0005 -0.0035 4.9586261417
0.0005 -0.0025 4.91239564503
0.0005 -0.0015 4.83442012164
0.0005 -0.0005 4.73332345482
0.0005 0.0005 4.66569662381
0.0005 0.0015 4.65329522625
0.0005 0.0025 4.6593559749
0.0005 0.0035 4.66433041573
0.0005 0.0045 4.66788311557
0.0005 0.0055 4.67007777326
0.0005 0.0065 4.66987583622
0.0005 0.0075 4.66415354748
0.0005 0.0085 4.65012128997
0.0005 0.0095 4.62781142625
0.0005 0.0105 4.5990068241
0.0005 0.0115 4.56587822885
0.0005 0.0125 4.53048711612
0.0005 0.0135 4.49404409108
0.0005 0.0145 4.45674323424
0.0005 0.0155 4.41867107566
0.0005 0.0165 4.38003085568
0.0005 0.0175 4.34096947301
0.0005 0.0185 4.30161388746
0.0005 0.0195 4.26205790874
0.0005 0.0205 4.22238023795
0.0005 0.0215 4.1826627191
0.0005 0.0225 4.14299472167
0.0005 0.0235 4.10347832256
0.0005 0.0245 4.06423911209
0.0005 0.0255 4.02542645038
0.0005 0.0265 3.98721569682
0.0005 0.0275 3.94982285577
0.0005 0.0285 3.91353771772
0.0005 0.0295 3.87882324524
0.0005 0.0305 3.84699535928
0.0005 0.0315 3.82363075736
0.0015 -0.0315 4.00700778465
0.0015 -0.0305 4.03898421872
0.0015 -0.0295 4.08543275904
0.0015 -0.0285 4.13588356125
0.0015 -0.0275 4.18743019691
0.0015 -0.0265 4.23943539185
0.0015 -0.0255 4.29184861122
0.0015 -0.0245 4.34496754581
0.0015 -0.0235 4.39949817563
0.0015 -0.0225 4.45660761265
0.0015 -0.0215 4.51777706257
0.0015 -0.0205 4.583751951
0.0015 -0.0195 4.65214577435
0.0015 -0.0185 4.71800176286
0.0015 -0.0175 4.77237175676
0.0015 -0.0165 4.80827981902
0.0015 -0.0155 4.82775214176
0.0015 -0.0145 4.83455169343
0.0015 -0.0135 4.8394128448
0.0015 -0.0125 4.85152129716
0.0015 -0.0115 4.87007638885
0.0015 -0.0105 4.89701299008
0.0015 -0.0095 4.92984709925
0.0015 -0.0085 4.95839300974
0.0015 -0.0075 4.97340886243
0.0015 -0.0065 4.97293255854
0.0015 -0.0055 4.96259935359
0.0015 -0.0045 4.94713172754
0.0015 -0.0035 4.9253195751
0.0015 -0.0025 4.88822852511
0.0015 -0.0015 4.82129242819
0.0015 -0.0005 4.72231758954
0.0015 0.0005 4.6618482866
0.0015 0.0015 4.65777383472
0.0015 0.0025 4.66005513017
0.0015 0.0035 4.66458292723
0.0015 0.0045 4.66928474269
0.0015 0.0055 4.67302047013
0.0015 0.0065 4.67517942053
0.0015 0.0075 4.67310889146
0.0015 0.0085 4.66288544844
0.0015 0.0095 4.64287814617
0.0015 0.0105 4.61433096284
0.0015 0.0115 4.57989113392
0.0015 0.0125 4.54220330678
0.0015 0.0135 4.50308908943
0.0015 0.0145 4.46335838911
0.0015 0.0155 4.4232321226
0.0015 0.0165 4.38280846483
0.0015 0.0175 4.34215562796
0.0015 0.0185 4.30130511007
0.0015 0.0195 4.26027592703
0.0015 0.0205 4.21909324883
0.0015 0.0215 4.17780508557
0.0015 0.0225 4.13649028245
0.0015 0.0235 4.09525794841
0.0015 0.0245 4.05423886889
0.0015 0.0255 4.01357109592
0.0015 0.0265 3.9733884363
0.0015 0.0275 3.93382182533
0.0015 0.0285 3.89505215919
0.0015 0.0295 3.85759638004
0.0015 0.0305 3.82349471492
0.0015 0.0315 3.80006795682
0.0025 -0.0315 3.96268054884
0.0025 -0.0305 3.99125583346
0.0025 -0.0295 4.03697594262
0.0025 -0.0285 4.08901037698
0.0025 -0.0275 4.14204488891
0.0025 -0.0265 4.19422633974
0.0025 -0.0255 4.24512330753
0.0025 -0.0245 4.29502591262
0.0025 -0.0235 4.34490381293
0.0025 -0.0225 4.39645000912
0.0025 -0.0215 4.4518315842
0.0025 -0.0205 4.51274785795
0.0025 -0.0195 4.57865810927
0.0025 -0.0185 4.64437339966
0.0025 -0.0175 4.69887600858
0.0025 -0.0165 4.73383324813
0.0025 -0.0155 4.75133616705
0.0025 -0.0145 4.76128807887
0.0025 -0.0135 4.77269451281
0.0025 -0.0125 4.78880829645
0.0025 -0.0115 4.81119621457
0.0025 -0.0105 4.84165268692
0.0025 -0.0095 4.87903397998
0.0025 -0.0085 4.91431433274
0.0025 -0.0075 4.93553032361
0.0025 -0.0065 4.93943850272
0.0025 -0.0055 4.9316536142
0.0025 -0.0045 4.9184124715
0.0025 -0.0035 4.90089637033
0.0025 -0.0025 4.8729534403
0.0025 -0.0015 4.82510064354
0.0025 -0.0005 4.75584154981
0.0025 0.0005 4.69407130399
0.0025 0.0015 4.66758185192
0.0025 0.0025 4.66416105784
0.0025 0.0035 4.66732497962
0.0025 0.0045 4.67309045883
0.0025 0.0055 4.67871985856
0.0025 0.0065 4.68262799903
0.0025 0.0075 4.68322610601
0.0025 0.0085 4.6772177681
0.0025 0.0095 4.66114705136
0.0025 0.0105 4.63450338733
0.0025 0.0115 4.59963519604
0.0025 0.0125 4.55969987138
0.0025 0.0135 4.51733428155
0.0025 0.0145 4.47410028086
0.0025 0.0155 4.4306761622
0.0025 0.0165 4.38723349299
0.0025 0.0175 4.34375147697
0.0025 0.0185 4.30014952212
0.0025 0.0195 4.25634658717
0.0025 0.0205 4.21230267329
0.0025 0.0215 4.16804216225
0.0025 0.0225 4.12365844506
0.0025 0.0235 4.07929659924
0.0025 0.0245 4.0351198514
0.0025 0.0255 3.99127511759
0.0025 0.0265 3.9478767329
0.0025 0.0275 3.9050474217
0.0025 0.0285 3.86311928938
0.0025 0.0295 3.82326677104
0.0025 0.0305 3.78897810834
0.0025 0.0315 3.76758955426
0.0035 -0.0315 3.91435467633
0.0035 -0.0305 3.93881937179
0.0035 -0.0295 3.98061448641
0.0035 -0.0285 4.03093550616
0.0035 -0.0275 4.08347626505
0.0035 -0.0265 4.13483612417
0.0035 -0.0255 4.183592239
0.0035 -0.0245 4.22954555583
0.0035 -0.0235 4.2734856049
0.0035 -0.0225 4.31712687004
0.0035 -0.0215 4.36282945437
0.0035 -0.0205 4.41287688197
0.0035 -0.0195 4.46805346731
0.0035 -0.0185 4.52563619741
0.0035 -0.0175 4.57930758229
0.0035 -0.0165 4.62062779217
0.0035 -0.0155 4.64987179824
0.0035 -0.0145 4.67451062559
0.0035 -0.0135 4.69628710692
0.0035 -0.0125 4.71795804464
0.0035 -0.0115 4.74615508255
0.0035 -0.0105 4.78321413173
0.0035 -0.0095 4.82665074275
0.0035 -0.0085 4.86888426232
0.0035 -0.0075 4.89860341992
0.0035 -0.0065 4.90959399385
0.0035 -0.0055 4.905500762
0.0035 -0.0045 4.89407112031
0.0035 -0.0035 4.87906203311
0.0035 -0.0025 4.85798267832
0.0035 -0.0015 4.82447670064
0.0035 -0.0005 4.77529089999
0.0035 0.0005 4.7221848091
0.0035 0.0015 4.68640696407
0.0035 0.0025 4.67384535819
0.0035 0.0035 4.67460348399
0.0035 0.0045 4.6803000605
0.0035 0.0055 4.68660846971
0.0035 0.0065 4.69072943341
0.0035 0.0075 4.69155034349
0.0035 0.0085 4.68738987893
0.0035 0.0095 4.67463910266
0.0035 0.0105 4.65099587243
0.0035 0.0115 4.61738247922
0.0035 0.0125 4.57660613738
0.0035 0.0135 4.53191689171
0.0035 0.0145 4.48555887303
0.0035 0.0155 4.43869826898
0.0035 0.0165 4.39174916833
0.0035 0.0175 4.34472059995
0.0035 0.0185 4.29747743924
0.0035 0.0195 4.2498855331
0.0035 0.0205 4.2018920466
0.0035 0.0215 4.15356152739
0.0035 0.0225 4.10506643486
0.0035 0.0235 4.05664127681
0.0035 0.0245 4.00852227901
0.0035 0.0255 3.96090436938
0.0035 0.0265 3.91395919637
0.0035 0.0275 3.86798141956
0.0035 0.0285 3.82377747256
0.0035 0.0295 3.78338666473
0.0035 0.0305 3.75076575158
0.0035 0.0315 3.73164597945
0.0045 -0.0315 3.86376906711
0.0045 -0.0305 3.88465523543
0.0045 -0.0295 3.92163253191
0.0045 -0.0285 3.96795328251
0.0045 -0.0275 4.01778131059
0.0045 -0.0265 4.06697297943
0.0045 -0.0255 4.11306165436
0.0045 -0.0245 4.15494785033
0.0045 -0.0235 4.19269311592
0.0045 -0.0225 4.22751578244
0.0045 -0.0215 4.2616559926
0.0045 -0.0205 4.29784613355
0.0045 -0.0195 4.33835846658
0.0045 -0.0185 4.38458389944
0.0045 -0.0175 4.43678465768
0.0045 -0.0165 4.48820407507
0.0045 -0.0155 4.53468605647
0.0045 -0.0145 4.57604540671
0.0045 -0.0135 4.60990436931
0.0045 -0.0125 4.64060739764
0.0045 -0.0115 4.6759522723
0.0045 -0.0105 4.71963505602
0.0045 -0.0095 4.77018505527
0.0045 -0.0085 4.82045256721
0.0045 -0.0075 4.859435289
0.0045 -0.0065 4.8794383834
0.0045 -0.0055 4.88122686364
0.0045 -0.0045 4.87208914451
0.0045 -0.0035 4.85793827087
0.0045 -0.0025 4.8398027738
0.0045 -0.0015 4.81526441178
0.0045 -0.0005 4.78081864132
0.0045 0.0005 4.73998115353
0.0045 0.0015 4.70507520208
0.0045 0.0025 4.6865970674
0.0045 0.0035 4.68419129449
0.0045 0.0045 4.68971164264
0.0045 0.0055 4.6958973739
0.0045 0.0065 4.698835047
0.0045 0.0075 4.6978389748
0.0045 0.0085 4.69277154205
0.0045 0.0095 4.68101019944
0.0045 0.0105 4.65971336956
0.0045 0.0115 4.62829880105
0.0045 0.0125 4.58839979854
0.0045 0.0135 4.54305398625
0.0045 0.0145 4.49480527367
0.0045 0.0155 4.44518779341
0.0045 0.0165 4.39487526983
0.0045 0.0175 4.34402303395
0.0045 0.0185 4.29256162321
0.0045 0.0195 4.24041853921
0.0045 0.0205 4.1876499098
0.0045 0.0215 4.13447712881
0.0045 0.0225 4.08124552998
0.0045 0.0235 4.02833886564
0.0045 0.0245 3.97609661906
0.0045 0.0255 3.92479045094
0.0045 0.0265 3.87471799442
0.0045 0.0275 3.82646280068
0.0045 0.0285 3.78131671089
0.0045 0.0295 3.74166790315
0.0045 0.0305 3.71101493446
0.0045 0.0315 3.69367787499
0.0055 -0.0315 3.81152999277
0.0055 -0.0305 3.82947572385
0.0055 -0.0295 3.86185039472
0.0055 -0.0285 3.90337120464
0.0055 -0.0275 3.94909513077
0.0055 -0.0265 3.99497150881
0.0055 -0.0255 4.03799435524
0.0055 -0.0245 4.07621376464
0.0055 -0.0235 4.10872889315
0.0055 -0.0225 4.13596866463
0.0055 -0.0215 4.16009213037
0.0055 -0.0205 4.18479593198
0.0055 -0.0195 4.21478479693
0.0055 -0.0185 4.25451234088
0.0055 -0.0175 4.30504829059
0.0055 -0.0165 4.36126222918
0.0055 -0.0155 4.41852081327
0.0055 -0.0145 4.47072890068
0.0055 -0.0135 4.51481133282
0.0055 -0.0125 4.55626882574
0.0055 -0.0115 4.60018970158
0.0055 -0.0105 4.65087850982
0.0055 -0.0095 4.70874646792
0.0055 -0.0085 4.76698300833
0.0055 -0.0075 4.81523760528
0.0055 -0.0065 4.84544527451
0.0055 -0.0055 4.8555659045
0.0055 -0.0045 4.85034875283
0.0055 -0.0035 4.83682614812
0.0055 -0.0025 4.81928088691
0.0055 -0.0015 4.79853968553
0.0055 -0.0005 4.7725323469
0.0055 0.0005 4.74104335139
0.0055 0.0015 4.71095802588
0.0055 0.0025 4.69213209661
0.0055 0.0035 4.68841852585
0.0055 0.0045 4.6948958192
0.0055 0.0055 4.70268325294
0.0055 0.0065 4.70510806344
0.0055 0.0075 4.7011170248
0.0055 0.0085 4.69278141719
0.0055 0.0095 4.67973266376
0.0055 0.0105 4.65933670417
0.0055 0.0115 4.63017428943
0.0055 0.0125 4.59255029341
0.0055 0.0135 4.54830054081
0.0055 0.0145 4.49972658034
0.0055 0.0155 4.44842683975
0.0055 0.0165 4.39526238632
0.0055 0.0175 4.34058430461
0.0055 0.0185 4.28452543807
0.0055 0.0195 4.22726172315
0.0055 0.0205 4.16914910605
0.0055 0.0215 4.11072329949
0.0055 0.0225 4.05260012581
0.0055 0.0235 3.9953423106
0.0055 0.0245 3.93937356966
0.0055 0.0255 3.88501664841
0.0055 0.0265 3.83268494188
0.0055 0.0275 3.78318839676
0.0055 0.0285 3.73802087323
0.0055 0.0295 3.69945094976
0.0055 0.0305 3.67040277205
0.0055 0.0315 3.65430428168
0.0065 -0.0315 3.75802110116
0.0065 -0.0305 3.77352165324
0.0065 -0.0295 3.80181181168
0.0065 -0.0285 3.83861573772
0.0065 -0.0275 3.87980912153
0.0065 -0.0265 3.92180306368
0.0065 -0.0255 3.96161576165
0.0065 -0.0245 3.99694115506
0.0065 -0.0235 4.02624005579
0.0065 -0.0225 4.04928405583
0.0065 -0.0215 4.06816078146
0.0065 -0.0205 4.08792599599
0.0065 -0.0195 4.11490983238
0.0065 -0.0185 4.1529578842
0.0065 -0.0175 4.19998612012
0.0065 -0.0165 4.25278890657
0.0065 -0.0155 4.30938132195
0.0065 -0.0145 4.36411773356
0.0065 -0.0135 4.41499859094
0.0065 -0.0125 4.46543248587
0.0065 -0.0115 4.5182712633
0.0065 -0.0105 4.57721602132
0.0065 -0.0095 4.64244749899
0.0065 -0.0085 4.70765742125
0.0065 -0.0075 4.76412628274
0.0065 -0.0065 4.80426446994
0.0065 -0.0055 4.82433304821
0.0065 -0.0045 4.82592412423
0.0065 -0.0035 4.81503710283
0.0065 -0.0025 4.79795338428
0.0065 -0.0015 4.77793251324
0.0065 -0.0005 4.75501842666
0.0065 0.0005 4.72798415597
0.0065 0.0015 4.70037108501
0.0065 0.0025 4.6817286027
0.0065 0.0035 4.6784885237
0.0065 0.0045 4.6873998857
0.0065 0.0055 4.69905273241
0.0065 0.0065 4.70394248946
0.0065 0.0075 4.69842410079
0.0065 0.0085 4.6862660732
0.0065 0.0095 4.67078284947
0.0065 0.0105 4.65038293824
0.0065 0.0115 4.62310756668
0.0065 0.0125 4.58841858947
0.0065 0.0135 4.54660080107
0.0065 0.0145 4.49907880619
0.0065 0.0155 4.4471558308
0.0065 0.0165 4.39169388562
0.0065 0.0175 4.33322359986
0.0065 0.0185 4.27225132899
0.0065 0.0195 4.20945805812
0.0065 0.0205 4.14574287306
0.0065 0.0215 4.08211750711
0.0065 0.0225 4.01951579761
0.0065 0.0235 3.95861720011
0.0065 0.0245 3.89981561048
0.0065 0.0255 3.8433783352
0.0065 0.0265 3.7897313397
0.0065 0.0275 3.73974256525
0.0065 0.0285 3.6948751935
0.0065 0.0295 3.65717673617
0.0065 0.0305 3.62918418397
0.0065 0.0315 3.61383858227
0.0075 -0.0315 3.70347280454
0.0075 -0.0305 3.71691999107
0.0075 -0.0295 3.74167430627
0.0075 -0.0285 3.77422212338
0.0075 -0.0275 3.81111102868
0.0075 -0.0265 3.84927284678
0.0075 -0.0255 3.88607199148
0.0075 -0.0245 3.91940044969
0.0075 -0.0235 3.94778837719
0.0075 -0.0225 3.97083663853
0.0075 -0.0215 3.99070190043
0.0075 -0.0205 4.01228233341
0.0075 -0.0195 4.04026098752
0.0075 -0.0185 4.07570999056
0.0075 -0.0175 4.116357037
0.0075 -0.0165 4.1615923364
0.0075 -0.0155 4.21031626538
0.0075 -0.0145 4.26109782894
0.0075 -0.0135 4.31490101826
0.0075 -0.0125 4.37176704882
0.0075 -0.0115 4.43276828888
0.0075 -0.0105 4.49998986525
0.0075 -0.0095 4.5718750767
0.0075 -0.0085 4.64278918931
0.0075 -0.0075 4.70580161293
0.0075 -0.0065 4.7544675919
0.0075 -0.0055 4.78452940425
0.0075 -0.0045 4.79535267959
0.0075 -0.0035 4.79045811468
0.0075 -0.0025 4.7757777518
0.0075 -0.0015 4.75600590474
0.0075 -0.0005 4.73274188998
0.0075 0.0005 4.70600972742
0.0075 0.0015 4.67827000986
0.0075 0.0025 4.6576770099
0.0075 0.0035 4.6530332587
0.0075 0.0045 4.66384548338
0.0075 0.0055 4.67992027127
0.0075 0.0065 4.68948717101
0.0075 0.0075 4.68618841349
0.0075 0.0085 4.67263354281
0.0075 0.0095 4.65492237213
0.0075 0.0105 4.63424968779
0.0075 0.0115 4.60879377243
0.0075 0.0125 4.57709829203
0.0075 0.0135 4.53823619081
0.0075 0.0145 4.49249925865
0.0075 0.0155 4.44057443276
0.0075 0.0165 4.38301139521
0.0075 0.0175 4.320542314
0.0075 0.0185 4.25428455393
0.0075 0.0195 4.1857478548
0.0075 0.0205 4.11662467847
0.0075 0.0215 4.04849590869
0.0075 0.0225 3.98250507548
0.0075 0.0235 3.91922314101
0.0075 0.0245 3.85879896401
0.0075 0.0255 3.80129655403
0.0075 0.0265 3.74704789167
0.0075 0.0275 3.69688419667
0.0075 0.0285 3.65220471939
0.0075 0.0295 3.61493210226
0.0075 0.0305 3.58742828491
0.0075 0.0315 3.57242477616
0.0085 -0.0315 3.64806796086
0.0085 -0.0305 3.65975524818
0.0085 -0.0295 3.68146847465
0.0085 -0.0285 3.71033797443
0.0085 -0.0275 3.74348616891
0.0085 -0.0265 3.77832392734
0.0085 -0.0255 3.81262951308
0.0085 -0.0245 3.84475610722
0.0085 -0.0235 3.87380983053
0.0085 -0.0225 3.89983637048
0.0085 -0.0215 3.9252310727
0.0085 -0.0205 3.95180706589
0.0085 -0.0195 3.98033444132
0.0085 -0.0185 4.01133822115
0.0085 -0.0175 4.04525537399
0.0085 -0.0165 4.08337031181
0.0085 -0.0155 4.12413405525
0.0085 -0.0145 4.16848745558
0.0085 -0.0135 4.22086731014
0.0085 -0.0125 4.28091291915
0.0085 -0.0115 4.34782333226
0.0085 -0.0105 4.4215224849
0.0085 -0.0095 4.49843217839
0.0085 -0.0085 4.57348065584
0.0085 -0.0075 4.64115940068
0.0085 -0.0065 4.69634765281
0.0085 -0.0055 4.73513343245
0.0085 -0.0045 4.75577014763
0.0085 -0.0035 4.75940668354
0.0085 -0.0025 4.74993418901
0.0085 -0.0015 4.7318414632
0.0085 -0.0005 4.70754431262
0.0085 0.0005 4.67932171782
0.0085 0.0015 4.65127446679
0.0085 0.0025 4.62911253854
0.0085 0.0035 4.62059685252
0.0085 0.0045 4.62972518442
0.0085 0.0055 4.64857589183
0.0085 0.0065 4.66307819469
0.0085 0.0075 4.6642213388
0.0085 0.0085 4.65253748742
0.0085 0.0095 4.63447065894
0.0085 0.0105 4.61397415447
0.0085 0.0115 4.59019790233
0.0085 0.0125 4.5608293481
0.0085 0.0135 4.52451247795
0.0085 0.0145 4.48039946044
0.0085 0.0155 4.42813623698
0.0085 0.0165 4.36791661741
0.0085 0.0175 4.30075748127
0.0085 0.0185 4.22876598191
0.0085 0.0195 4.1546300457
0.0085 0.0205 4.08103287812
0.0085 0.0215 4.00996680538
0.0085 0.0225 3.94238134187
0.0085 0.0235 3.87834871069
0.0085 0.0245 3.81754300875
0.0085 0.0255 3.75975219695
0.0085 0.0265 3.70522643858
0.0085 0.0275 3.65481597844
0.0085 0.0285 3.60995904018
0.0085 0.0295 3.57259910312
0.0085 0.0305 3.5450878568
0.0085 0.0315 3.53011158665
0.0095 -0.0315 3.59196122446
0.0095 -0.0305 3.60211330865
0.0095 -0.0295 3.62118931704
0.0095 -0.0285 3.64692809175
0.0095 -0.0275 3.67699595993
0.0095 -0.0265 3.70923995345
0.0095 -0.0255 3.74178597608
0.0095 -0.0245 3.7733074928
0.0095 -0.0235 3.80342535303
0.0095 -0.0225 3.83283434049
0.0095 -0.0215 3.8634520804
0.0095 -0.0205 3.89430303301
0.0095 -0.0195 3.92314182124
0.0095 -0.0185 3.95084501685
0.0095 -0.0175 3.98031108511
0.0095 -0.0165 4.01360800879
0.0095 -0.0155 4.04997956756
0.0095 -0.0145 4.09032833878
0.0095 -0.0135 4.13923511735
0.0095 -0.0125 4.19845988869
0.0095 -0.0115 4.26747198029
0.0095 -0.0105 4.34439472773
0.0095 -0.0095 4.42404694609
0.0095 -0.0085 4.50138110035
0.0095 -0.0075 4.57185138258
0.0095 -0.0065 4.63141778733
0.0095 -0.0055 4.6768011749
0.0095 -0.0045 4.70594990728
0.0095 -0.0035 4.71847610596
0.0095 -0.0025 4.71587367741
0.0095 -0.0015 4.7013657223
0.0095 -0.0005 4.67806019802
0.0095 0.0005 4.65016008857
0.0095 0.0015 4.6234304469
0.0095 0.0025 4.60227764909
0.0095 0.0035 4.59118752998
0.0095 0.0045 4.59563967162
0.0095 0.0055 4.61423714348
0.0095 0.0065 4.63310516227
0.0095 0.0075 4.63888016876
0.0095 0.0085 4.63028931126
0.0095 0.0095 4.61367077459
0.0095 0.0105 4.59407824155
0.0095 0.0115 4.57105427292
0.0095 0.0125 4.54217270892
0.0095 0.0135 4.50666768117
0.0095 0.0145 4.46306749326
0.0095 0.0155 4.40910307806
0.0095 0.0165 4.34462954457
0.0095 0.0175 4.27156097202
0.0095 0.0185 4.19346273018
0.0095 0.0195 4.11466574515
0.0095 0.0205 4.03869454146
0.0095 0.0215 3.96725060192
0.0095 0.0225 3.90037589469
0.0095 0.0235 3.83724219037
0.0095 0.0245 3.77698291026
0.0095 0.0255 3.71923253127
0.0095 0.0265 3.66433040898
0.0095 0.0275 3.61331165556
0.0095 0.0285 3.56780593509
0.0095 0.0295 3.52990376227
0.0095 0.0305 3.50203487727
0.0095 0.0315 3.48689485323
0.0105 -0.0315 3.53530288877
0.0105 -0.0305 3.54410586122
0.0105 -0.0295 3.56086082779
0.0105 -0.0285 3.58388668892
0.0105 -0.0275 3.61142075861
0.0105 -0.0265 3.64175114754
0.0105 -0.0255 3.67325083806
0.0105 -0.0245 3.70463309971
0.0105 -0.0235 3.73538285569
0.0105 -0.0225 3.7665719204
0.0105 -0.0215 3.7991954247
0.0105 -0.0205 3.83186591502
0.0105 -0.0195 3.86172445258
0.0105 -0.0185 3.88896640258
0.0105 -0.0175 3.9172794027
0.0105 -0.0165 3.94840947596
0.0105 -0.0155 3.98273512731
0.0105 -0.0145 4.02180113854
0.0105 -0.0135 4.0682957354
0.0105 -0.0125 4.12525590309
0.0105 -0.0115 4.19373719734
0.0105 -0.0105 4.27070354347
0.0105 -0.0095 4.3505695641
0.0105 -0.0085 4.42827618587
0.0105 -0.0075 4.49975766867
0.0105 -0.0065 4.56167929061
0.0105 -0.0055 4.61130918092
0.0105 -0.0045 4.64662358779
0.0105 -0.0035 4.66650916193
0.0105 -0.0025 4.67106277764
0.0105 -0.0015 4.66216967806
0.0105 -0.0005 4.64327912974
0.0105 0.0005 4.61937675955
0.0105 0.0015 4.59661883559
0.0105 0.0025 4.57881126252
0.0105 0.0035 4.56791386915
0.0105 0.0045 4.56893191203
0.0105 0.0055 4.58577713743
0.0105 0.0065 4.60918754655
0.0105 0.0075 4.62111918413
0.0105 0.0085 4.61507736854
0.0105 0.0095 4.59850717712
0.0105 0.0105 4.57830650963
0.0105 0.0115 4.55434771471
0.0105 0.0125 4.5238687496
0.0105 0.0135 4.48620513917
0.0105 0.0145 4.43994111667
0.0105 0.0155 4.38163248222
0.0105 0.0165 4.31055717037
0.0105 0.0175 4.23005871983
0.0105 0.0185 4.14623939728
0.0105 0.0195 4.06528546139
0.0105 0.0205 3.99047388364
0.0105 0.0215 3.92193587927
0.0105 0.0225 3.85805085664
0.0105 0.0235 3.79698405837
0.0105 0.0245 3.73758606242
0.0105 0.0255 3.67966402991
0.0105 0.0265 3.62391470724
0.0105 0.0275 3.57176634438
0.0105 0.0285 3.52518123145
0.0105 0.0295 3.48645856446
0.0105 0.0305 3.45809813142
0.0105 0.0315 3.44275447241
0.0115 -0.0315 3.4782269621
0.0115 -0.0305 3.48586844485
0.0115 -0.0295 3.50057486123
0.0115 -0.0285 3.5211468479
0.0115 -0.0275 3.54640218552
0.0115 -0.0265 3.57516604042
0.0115 -0.0255 3.60603852079
0.0115 -0.0245 3.63755141632
0.0115 -0.0235 3.6687534938
0.0115 -0.0225 3.70068141676
0.0115 -0.0215 3.73355428037
0.0115 -0.0205 3.76574602562
0.0115 -0.0195 3.7959624261
0.0115 -0.0185 3.82461351634
0.0115 -0.0175 3.85385704572
0.0115 -0.0165 3.88505924897
0.0115 -0.0155 3.91902693723
0.0115 -0.0145 3.95776275915
0.0115 -0.0135 4.00352106503
0.0115 -0.0125 4.05925481724
0.0115 -0.0115 4.12626810927
0.0115 -0.0105 4.20125526239
0.0115 -0.0095 4.27928189804
0.0115 -0.0085 4.35564925293
0.0115 -0.0075 4.42659322265
0.0115 -0.0065 4.4891545623
0.0115 -0.0055 4.54095010364
0.0115 -0.0045 4.58008772534
0.0115 -0.0035 4.60531357415
0.0115 -0.0025 4.61643659999
0.0115 -0.0015 4.61473953036
0.0115 -0.0005 4.60345916333
0.0115 0.0005 4.58716362119
0.0115 0.0015 4.57095912554
0.0115 0.0025 4.55790474288
0.0115 0.0035 4.54930403186
0.0115 0.0045 4.5499474913
0.0115 0.0055 4.567042981
0.0115 0.0065 4.5971468101
0.0115 0.0075 4.6193944263
0.0115 0.0085 4.61807087737
0.0115 0.0095 4.5982439706
0.0115 0.0105 4.57161349574
0.0115 0.0115 4.54213947678
0.0115 0.0125 4.50675291269
0.0115 0.0135 4.46291654344
0.0115 0.0145 4.4093093407
0.0115 0.0155 4.34288037009
0.0115 0.0165 4.26219252819
0.0115 0.0175 4.17350440708
0.0115 0.0185 4.08666613094
0.0115 0.0195 4.00808494476
0.0115 0.0205 3.9389086785
0.0115 0.0215 3.87633891721
0.0115 0.0225 3.81688620805
0.0115 0.0235 3.75812649412
0.0115 0.0245 3.69915536042
0.0115 0.0255 3.64034279953
0.0115 0.0265 3.58303742168
0.0115 0.0275 3.52925805609
0.0115 0.0285 3.48136893624
0.0115 0.0295 3.44183451122
0.0115 0.0305 3.41311418344
0.0115 0.0315 3.39768803807
0.0125 -0.0315 3.42083194548
0.0125 -0.0305 3.42751690836
0.0125 -0.0295 3.44046006659
0.0125 -0.0285 3.45875911647
0.0125 -0.0275 3.48168006093
0.0125 -0.0265 3.50866105472
0.0125 -0.0255 3.53877556274
0.0125 -0.0245 3.57040199798
0.0125 -0.0235 3.60251366255
0.0125 -0.0225 3.63515145963
0.0125 -0.0215 3.66787085566
0.0125 -0.0205 3.69899683464
0.0125 -0.0195 3.72876486962
0.0125 -0.0185 3.75886791929
0.0125 -0.0175 3.78941012555
0.0125 -0.0165 3.82134580254
0.0125 -0.0155 3.85630643509
0.0125 -0.0145 3.89566859305
0.0125 -0.0135 3.94185655269
0.0125 -0.0125 3.99762395143
0.0125 -0.0115 4.06315490841
0.0125 -0.0105 4.13546571768
0.0125 -0.0095 4.21052896104
0.0125 -0.0085 4.28438359414
0.0125 -0.0075 4.35365679247
0.0125 -0.0065 4.41563331263
0.0125 -0.0055 4.46813837266
0.0125 -0.0045 4.5094798918
0.0125 -0.0035 4.53859585909
0.0125 -0.0025 4.5553725546
0.0125 -0.0015 4.56111270503
0.0125 -0.0005 4.5587489434
0.0125 0.0005 4.55198006123
0.0125 0.0015 4.5441915994
0.0125 0.0025 4.53761798022
0.0125 0.0035 4.53350692696
0.0125 0.0045 4.5364808904
0.0125 0.0055 4.55727203403
0.0125 0.0065 4.59730910155
0.0125 0.0075 4.63436331848
0.0125 0.0085 4.64309864394
0.0125 0.0095 4.62017758608
0.0125 0.0105 4.57966049727
0.0125 0.0115 4.53439717403
0.0125 0.0125 4.48650571705
0.0125 0.0135 4.43177682927
0.0125 0.0145 4.36700553865
0.0125 0.0155 4.28939745612
0.0125 0.0165 4.19740492066
0.0125 0.0175 4.10238439871
0.0125 0.0185 4.01827520966
0.0125 0.0195 3.94778209791
0.0125 0.0205 3.88781142991
0.0125 0.0215 3.83267595871
0.0125 0.0225 3.7776054619
0.0125 0.0235 3.72033777511
0.0125 0.0245 3.66066626871
0.0125 0.0255 3.59989867491
0.0125 0.0265 3.5403336611
0.0125 0.0275 3.48468511167
0.0125 0.0285 3.43564383867
0.0125 0.0295 3.39566775783
0.0125 0.0305 3.36698593325
0.0125 0.0315 3.35173627814
0.0135 -0.0315 3.36317995658
0.0135 -0.0305 3.3690924805
0.0135 -0.0295 3.38057250469
0.0135 -0.0285 3.39683648017
0.0135 -0.0275 3.41731161479
0.0135 -0.0265 3.4418498639
0.0135 -0.0255 3.47029072083
0.0135 -0.0245 3.50166930952
0.0135 -0.0235 3.53539942094
0.0135 -0.0225 3.56927984319
0.0135 -0.0215 3.6012217936
0.0135 -0.0205 3.63123257681
0.0135 -0.0195 3.66082207648
0.0135 -0.0185 3.69168739911
0.0135 -0.0175 3.72357953625
0.0135 -0.0165 3.75683908373
0.0135 -0.0155 3.79302756176
0.0135 -0.0145 3.83359030687
0.0135 -0.0135 3.88111061467
0.0135 -0.0125 3.93766586771
0.0135 -0.0115 4.00208029718
0.0135 -0.0105 4.07180385483
0.0135 -0.0095 4.14369755613
0.0135 -0.0085 4.21461862309
0.0135 -0.0075 4.28170981841
0.0135 -0.0065 4.34252907432
0.0135 -0.0055 4.39509362458
0.0135 -0.0045 4.43792947167
0.0135 -0.0035 4.47020827677
0.0135 -0.0025 4.49200106224
0.0135 -0.0015 4.50455835738
0.0135 -0.0005 4.51035400069
0.0135 0.0005 4.51256626398
0.0135 0.0015 4.51406997286
0.0135 0.0025 4.51613635599
0.0135 0.0035 4.51876499174
0.0135 0.0045 4.52645884998
0.0135 0.0055 4.55326803639
0.0135 0.0065 4.60459626592
0.0135 0.0075 4.65729036357
0.0135 0.0085 4.67869657629
0.0135 0.0095 4.65504528855
0.0135 0.0105 4.59641244105
0.0135 0.0115 4.52375194517
0.0135 0.0125 4.45166996936
0.0135 0.0135 4.38088050956
0.0135 0.0145 4.30431921486
0.0135 0.0155 4.21545802147
0.0135 0.0165 4.11551164352
0.0135 0.0175 4.02164743604
0.0135 0.0185 3.94788583296
0.0135 0.0195 3.89023089479
0.0135 0.0205 3.84040476416
0.0135 0.0215 3.79175524843
0.0135 0.0225 3.73959588887
0.0135 0.0235 3.68212566914
0.0135 0.0245 3.62015307805
0.0135 0.0255 3.55637201673
0.0135 0.0265 3.49422484167
0.0135 0.0275 3.43700797834
0.0135 0.0285 3.38746747056
0.0135 0.0295 3.34777802827
0.0135 0.0305 3.31973148174
0.0135 0.0315 3.30499269651
0.0145 -0.0315 3.30530509133
0.0145 -0.0305 3.31054315519
0.0145 -0.0295 3.32079536719
0.0145 -0.0285 3.33535696944
0.0145 -0.0275 3.35358419318
0.0145 -0.0265 3.37526476968
0.0145 -0.0255 3.400786395
0.0145 -0.0245 3.43070618191
0.0145 -0.0235 3.46518182199
0.0145 -0.0225 3.50053027122
0.0145 -0.0215 3.53221281721
0.0145 -0.0205 3.56135119646
0.0145 -0.0195 3.59127009901
0.0145 -0.0185 3.62265958125
0.0145 -0.0175 3.65557375451
0.0145 -0.0165 3.69065239693
0.0145 -0.0155 3.72836150153
0.0145 -0.0145 3.77056625476
0.0145 -0.0135 3.81994198695
0.0145 -0.0125 3.87722499091
0.0145 -0.0115 3.94077411557
0.0145 -0.0105 4.00833005891
0.0145 -0.0095 4.07748273798
0.0145 -0.0085 4.14580208514
0.0145 -0.0075 4.2109469397
0.0145 -0.0065 4.27078845945
0.0145 -0.0055 4.32354454374
0.0145 -0.0045 4.36790714353
0.0145 -0.0035 4.40318152104
0.0145 -0.0025 4.42948220533
0.0145 -0.0015 4.44790197512
0.0145 -0.0005 4.46054757082
0.0145 0.0005 4.4706059147
0.0145 0.0015 4.4809650039
0.0145 0.0025 4.4920384512
0.0145 0.0035 4.50257377863
0.0145 0.0045 4.51649356402
0.0145 0.0055 4.54905576808
0.0145 0.0065 4.60712351453
0.0145 0.0075 4.66871542009
0.0145 0.0085 4.6987015692
0.0145 0.0095 4.67517828474
0.0145 0.0105 4.60132106415
0.0145 0.0115 4.49966822367
0.0145 0.0125 4.39534305305
0.0145 0.0135 4.30163883615
0.0145 0.0145 4.21474066018
0.0145 0.0155 4.12253627366
0.0145 0.0165 4.02738303765
0.0145 0.0175 3.94606697305
0.0145 0.0185 3.88590283404
0.0145 0.0195 3.83944597451
0.0145 0.0205 3.79700211497
0.0145 0.0215 3.75220503847
0.0145 0.0225 3.70054004872
0.0145 0.0235 3.64060116644
0.0145 0.0245 3.57477913965
0.0145 0.0255 3.50751963614
0.0145 0.0265 3.44329872037
0.0145 0.0275 3.38556522254
0.0145 0.0285 3.33668444141
0.0145 0.0295 3.29825617425
0.0145 0.0305 3.27150240062
0.0145 0.0315 3.25759194371
0.0155 -0.0315 3.24723876046
0.0155 -0.0305 3.25176939341
0.0155 -0.0295 3.26085044883
0.0155 -0.0285 3.27401406597
0.0155 -0.0275 3.29057406997
0.0155 -0.0265 3.30998934383
0.0155 -0.0255 3.33243484738
0.0155 -0.0245 3.35941672152
0.0155 -0.0235 3.39200521442
0.0155 -0.0225 3.42718124278
0.0155 -0.0215 3.45967142337
0.0155 -0.0205 3.48941029985
0.0155 -0.0195 3.51974935072
0.0155 -0.0185 3.5518575475
0.0155 -0.0175 3.58586881836
0.0155 -0.0165 3.62225249375
0.0155 -0.0155 3.66146372986
0.0155 -0.0145 3.7055973395
0.0155 -0.0135 3.75675131156
0.0155 -0.0125 3.81439875569
0.0155 -0.0115 3.87708291049
0.0155 -0.0105 3.94297795776
0.0155 -0.0095 4.01021185482
0.0155 -0.0085 4.07687936165
0.0155 -0.0075 4.14104060194
0.0155 -0.0065 4.20081939916
0.0155 -0.0055 4.25456378589
0.0155 -0.0045 4.30101492663
0.0155 -0.0035 4.33945341361
0.0155 -0.0025 4.36986131582
0.0155 -0.0015 4.39321107525
0.0155 -0.0005 4.41161070116
0.0155 0.0005 4.42856860341
0.0155 0.0015 4.44622468147
0.0155 0.0025 4.46425375417
0.0155 0.0035 4.48141030319
0.0155 0.0045 4.50077434952
0.0155 0.0055 4.53511615541
0.0155 0.0065 4.59005133307
0.0155 0.0075 4.64843497349
0.0155 0.0085 4.67977994554
0.0155 0.0095 4.65851416125
0.0155 0.0105 4.57844515813
0.0155 0.0115 4.45733538976
0.0155 0.0125 4.32490318096
0.0155 0.0135 4.20751812507
0.0155 0.0145 4.1126514912
0.0155 0.0155 4.02761495212
0.0155 0.0165 3.94919664554
0.0155 0.0175 3.88538017316
0.0155 0.0185 3.83589084341
0.0155 0.0195 3.79475118884
0.0155 0.0205 3.7552262232
0.0155 0.0215 3.71051767832
0.0155 0.0225 3.6560996131
0.0155 0.0235 3.59162628185
0.0155 0.0245 3.52131619275
0.0155 0.0255 3.45142169689
0.0155 0.0265 3.38680445098
0.0155 0.0275 3.33036611032
0.0155 0.0285 3.28363903982
0.0155 0.0295 3.24747739638
0.0155 0.0305 3.22255716899
0.0155 0.0315 3.20967737691
0.0165 -0.0315 3.18904329403
0.0165 -0.0305 3.19271110706
0.0165 -0.0295 3.20044604683
0.0165 -0.0285 3.21228677399
0.0165 -0.0275 3.22784251954
0.0165 -0.0265 3.24637157845
0.0165 -0.0255 3.26772084301
0.0165 -0.0245 3.29280292292
0.0165 -0.0235 3.32249012409
0.0165 -0.0225 3.35495726813
0.0165 -0.0215 3.38701175771
0.0165 -0.0205 3.41777085647
0.0165 -0.0195 3.44784648298
0.0165 -0.0185 3.47958195008
0.0165 -0.0175 3.51449505541
0.0165 -0.0165 3.55188898952
0.0165 -0.0155 3.59233888556
0.0165 -0.0145 3.63793678079
0.0165 -0.0135 3.68977020045