% Model:              Benchmark260518.mph
% Version:            COMSOL 6.2.0.339
% Date:               May 21 2026, 02:59
% Dimension:          2
% Nodes:              4096
% Expressions:        1
% Description:        压力
% Length unit:        m
% x                       y                        p (Pa)
5.0E-4                    -0.0315                  3.8304407515490277
5.0E-4                    -0.0305                  3.853475417519837
5.0E-4                    -0.0295                  3.8847990668559373
5.0E-4                    -0.0285                  3.9189033292340634
5.0E-4                    -0.0275                  3.9545818500516843
5.0E-4                    -0.0265                  3.9913964246975713
5.0E-4                    -0.0255                  4.029080796666071
5.0E-4                    -0.0245                  4.067479439523632
5.0E-4                    -0.0235                  4.106470858943374
5.0E-4                    -0.0225                  4.145976632098612
5.0E-4                    -0.0215                  4.185966746316527
5.0E-4                    -0.0205                  4.226492490895508
5.0E-4                    -0.0195                  4.26774793561338
5.0E-4                    -0.0185                  4.310102369904902
5.0E-4                    -0.0175                  4.354095253503392
5.0E-4                    -0.0165                  4.400420911372201
5.0E-4                    -0.0155                  4.449784900163695
5.0E-4                    -0.0145                  4.502579795967534
5.0E-4                    -0.0135                  4.557609828358
5.0E-4                    -0.0125                  4.610610193947802
5.0E-4                    -0.0115                  4.6559390602402715
5.0E-4                    -0.0105                  4.6873867378339975
5.0E-4                    -0.0095                  4.703330730902254
5.0E-4                    -0.0085                  4.708759577876344
5.0E-4                    -0.0075                  4.707988535917601
5.0E-4                    -0.0065                  4.70331578964143
5.0E-4                    -0.0055                  4.696580174862514
5.0E-4                    -0.0045                  4.6887142983523695
5.0E-4                    -0.0035                  4.6798964757069195
5.0E-4                    -0.0025                  4.669879516925535
5.0E-4                    -0.0015                  4.6579774921404375
5.0E-4                    -5.0E-4                  4.672109852934368
5.0E-4                    5.0E-4                   4.75626665584519
5.0E-4                    0.0015                   4.87245792013923
5.0E-4                    0.0025                   4.954141132079789
5.0E-4                    0.0035                   4.998493078417104
5.0E-4                    0.0045                   5.020918149737131
5.0E-4                    0.0055                   5.030113688582248
5.0E-4                    0.0065                   5.0308363007756425
5.0E-4                    0.0075                   5.025477148454648
5.0E-4                    0.0085                   5.015918848990093
5.0E-4                    0.0095                   5.003827302447501
5.0E-4                    0.0105                   4.990382590091938
5.0E-4                    0.0115                   4.976060879089669
5.0E-4                    0.0125                   4.9602794089803455
5.0E-4                    0.0135                   4.941135047179838
5.0E-4                    0.0145                   4.913161434244373
5.0E-4                    0.0155                   4.874989259056635
5.0E-4                    0.0165                   4.843433969033335
5.0E-4                    0.0175                   4.832294117250505
5.0E-4                    0.0185                   4.828242856655434
5.0E-4                    0.0195                   4.816738051815627
5.0E-4                    0.0205                   4.795655896997866
5.0E-4                    0.0215                   4.7665132734885365
5.0E-4                    0.0225                   4.732665207296547
5.0E-4                    0.0235                   4.696663966730734
5.0E-4                    0.0245                   4.660825780023154
5.0E-4                    0.0255                   4.62611131069531
5.0E-4                    0.0265                   4.592478179760705
5.0E-4                    0.0275                   4.559865495975794
5.0E-4                    0.0285                   4.528422404421008
5.0E-4                    0.0295                   4.498450185975457
5.0E-4                    0.0305                   4.470996267066092
5.0E-4                    0.0315                   4.450833887859809
0.0015                    -0.0315                  3.8072155404432717
0.0015                    -0.0305                  3.830302282321675
0.0015                    -0.0295                  3.8638594721595436
0.0015                    -0.0285                  3.9005533599712927
0.0015                    -0.0275                  3.938349798659435
0.0015                    -0.0265                  3.976765476307686
0.0015                    -0.0255                  4.015646261475632
0.0015                    -0.0245                  4.054911010146979
0.0015                    -0.0235                  4.0944791947024815
0.0015                    -0.0225                  4.134237458170875
0.0015                    -0.0215                  4.174047085446254
0.0015                    -0.0205                  4.213798127232762
0.0015                    -0.0195                  4.25352513331788
0.0015                    -0.0185                  4.293556859244151
0.0015                    -0.0175                  4.334653170502226
0.0015                    -0.0165                  4.378121632469345
0.0015                    -0.0155                  4.425792149602899
0.0015                    -0.0145                  4.479359680898015
0.0015                    -0.0135                  4.538639680316494
0.0015                    -0.0125                  4.598936777755518
0.0015                    -0.0115                  4.652051985178405
0.0015                    -0.0105                  4.688182812279349
0.0015                    -0.0095                  4.70558490785573
0.0015                    -0.0085                  4.711187417485892
0.0015                    -0.0075                  4.709597426688072
0.0015                    -0.0065                  4.703948421713956
0.0015                    -0.0055                  4.696890419681019
0.0015                    -0.0045                  4.689301819482566
0.0015                    -0.0035                  4.68125765166771
0.0015                    -0.0025                  4.673929290919821
0.0015                    -0.0015                  4.672262876098079
0.0015                    -5.0E-4                  4.688527811031738
0.0015                    5.0E-4                   4.770388839756184
0.0015                    0.0015                   4.883635645778536
0.0015                    0.0025                   4.955905046776728
0.0015                    0.0035                   4.995822857996649
0.0015                    0.0045                   5.016744185425139
0.0015                    0.0055                   5.026757212374762
0.0015                    0.0065                   5.0287314709787125
0.0015                    0.0075                   5.023440063823691
0.0015                    0.0085                   5.011676801133721
0.0015                    0.0095                   4.99522047783029
0.0015                    0.0105                   4.976453948644634
0.0015                    0.0115                   4.957393867743958
0.0015                    0.0125                   4.9385108600569545
0.0015                    0.0135                   4.918114573605562
0.0015                    0.0145                   4.892174907254443
0.0015                    0.0155                   4.8592617567333445
0.0015                    0.0165                   4.840029461312751
0.0015                    0.0175                   4.8360458746760475
0.0015                    0.0185                   4.828281361346852
0.0015                    0.0195                   4.8144631948690755
0.0015                    0.0205                   4.791513740386101
0.0015                    0.0215                   4.7601136317883475
0.0015                    0.0225                   4.724112627028369
0.0015                    0.0235                   4.6863405463904
0.0015                    0.0245                   4.649138886842772
0.0015                    0.0255                   4.613252849321707
0.0015                    0.0265                   4.578560408036653
0.0015                    0.0275                   4.544782956925695
0.0015                    0.0285                   4.5117773065280655
0.0015                    0.0295                   4.479817387905732
0.0015                    0.0305                   4.450603298316787
0.0015                    0.0315                   4.430481971723133
0.0025                    -0.0315                  3.7753225204607515
0.0025                    -0.0305                  3.796335499864302
0.0025                    -0.0295                  3.8299737767591018
0.0025                    -0.0285                  3.868766975137636
0.0025                    -0.0275                  3.909112491188085
0.0025                    -0.0265                  3.949789816837911
0.0025                    -0.0255                  3.990474469090044
0.0025                    -0.0245                  4.031082035050458
0.0025                    -0.0235                  4.071543381307476
0.0025                    -0.0225                  4.111705490083942
0.0025                    -0.0215                  4.151294219858904
0.0025                    -0.0205                  4.189963108218731
0.0025                    -0.0195                  4.227466006689881
0.0025                    -0.0185                  4.263969025729169
0.0025                    -0.0175                  4.300421551497779
0.0025                    -0.0165                  4.338820867853304
0.0025                    -0.0155                  4.382238851363082
0.0025                    -0.0145                  4.434109412840302
0.0025                    -0.0135                  4.495935114094877
0.0025                    -0.0125                  4.563968699294965
0.0025                    -0.0115                  4.628870592691601
0.0025                    -0.0105                  4.677068314812545
0.0025                    -0.0095                  4.703749389183888
0.0025                    -0.0085                  4.714303041507316
0.0025                    -0.0075                  4.713301682658109
0.0025                    -0.0065                  4.706476158885814
0.0025                    -0.0055                  4.699150080985353
0.0025                    -0.0045                  4.693793667310278
0.0025                    -0.0035                  4.691741016555783
0.0025                    -0.0025                  4.695985738157952
0.0025                    -0.0015                  4.714105564966266
0.0025                    -5.0E-4                  4.7608447495285
0.0025                    5.0E-4                   4.834870208847591
0.0025                    0.0015                   4.906902435901577
0.0025                    0.0025                   4.957104717578549
0.0025                    0.0035                   4.987844951822197
0.0025                    0.0045                   5.00639864026588
0.0025                    0.0055                   5.017322983666024
0.0025                    0.0065                   5.021408940516659
0.0025                    0.0075                   5.017405551805027
0.0025                    0.0085                   5.00421730406263
0.0025                    0.0095                   4.983623643156821
0.0025                    0.0105                   4.959975661103684
0.0025                    0.0115                   4.936690707191052
0.0025                    0.0125                   4.9145462186828075
0.0025                    0.0135                   4.892922002986237
0.0025                    0.0145                   4.871441638090583
0.0025                    0.0155                   4.851603284251962
0.0025                    0.0165                   4.839476481379723
0.0025                    0.0175                   4.832589946130351
0.0025                    0.0185                   4.820249684380723
0.0025                    0.0195                   4.800806864310714
0.0025                    0.0205                   4.774072268206586
0.0025                    0.0215                   4.74042684836508
0.0025                    0.0225                   4.703105640127091
0.0025                    0.0235                   4.664286855745846
0.0025                    0.0245                   4.626053546845159
0.0025                    0.0255                   4.589081972168489
0.0025                    0.0265                   4.553179863664234
0.0025                    0.0275                   4.517936804935381
0.0025                    0.0285                   4.483211044012438
0.0025                    0.0295                   4.449807247436951
0.0025                    0.0305                   4.420751863788262
0.0025                    0.0315                   4.402528137389983
0.0035                    -0.0315                  3.740326333957689
0.0035                    -0.0305                  3.7589368299722636
0.0035                    -0.0295                  3.790703835703332
0.0035                    -0.0285                  3.8296070576351195
0.0035                    -0.0275                  3.871444679719266
0.0035                    -0.0265                  3.9140196127576674
0.0035                    -0.0255                  3.9564405579946005
0.0035                    -0.0245                  3.998399238351241
0.0035                    -0.0235                  4.0397533687812075
0.0035                    -0.0225                  4.080315559495815
0.0035                    -0.0215                  4.119740630255766
0.0035                    -0.0205                  4.157511858544969
0.0035                    -0.0195                  4.193091551165107
0.0035                    -0.0185                  4.226310473618643
0.0035                    -0.0175                  4.257982026930362
0.0035                    -0.0165                  4.290413936751461
0.0035                    -0.0155                  4.327313747889141
0.0035                    -0.0145                  4.373219491667295
0.0035                    -0.0135                  4.431744517495383
0.0035                    -0.0125                  4.501965065173819
0.0035                    -0.0115                  4.577627837289499
0.0035                    -0.0105                  4.643912170785403
0.0035                    -0.0095                  4.6879030548874185
0.0035                    -0.0085                  4.707660998490966
0.0035                    -0.0075                  4.708110362000099
0.0035                    -0.0065                  4.700985582108712
0.0035                    -0.0055                  4.6972701543353
0.0035                    -0.0045                  4.702070809681457
0.0035                    -0.0035                  4.717095773805478
0.0035                    -0.0025                  4.743103295709973
0.0035                    -0.0015                  4.780554298901279
0.0035                    -5.0E-4                  4.827725487783799
0.0035                    5.0E-4                   4.877627753949559
0.0035                    0.0015                   4.91997133373138
0.0035                    0.0025                   4.950958001002886
0.0035                    0.0035                   4.97355817554628
0.0035                    0.0045                   4.990429592896255
0.0035                    0.0055                   5.002656760320925
0.0035                    0.0065                   5.008939982212996
0.0035                    0.0075                   5.005797166073414
0.0035                    0.0085                   4.9908480883904005
0.0035                    0.0095                   4.9666924938927695
0.0035                    0.0105                   4.939370099649263
0.0035                    0.0115                   4.9130376433704805
0.0035                    0.0125                   4.888215777770484
0.0035                    0.0135                   4.864607713032829
0.0035                    0.0145                   4.8435629278794625
0.0035                    0.0155                   4.827347545497589
0.0035                    0.0165                   4.818132918484226
0.0035                    0.0175                   4.810822010670792
0.0035                    0.0185                   4.795193125626541
0.0035                    0.0195                   4.770216191736556
0.0035                    0.0205                   4.739224682407162
0.0035                    0.0215                   4.704633021622823
0.0035                    0.0225                   4.668229649765069
0.0035                    0.0235                   4.630661773620235
0.0035                    0.0245                   4.593202614140768
0.0035                    0.0255                   4.556341578470198
0.0035                    0.0265                   4.519971863651678
0.0035                    0.0275                   4.4838730499963
0.0035                    0.0285                   4.448395313009841
0.0035                    0.0295                   4.415216839950521
0.0035                    0.0305                   4.387930243120435
0.0035                    0.0315                   4.3718282113520495
0.0045                    -0.0315                  3.7036596640261115
0.0045                    -0.0305                  3.720265120171897
0.0045                    -0.0295                  3.7497182462882197
0.0045                    -0.0285                  3.7873377660916754
0.0045                    -0.0275                  3.8292457059797624
0.0045                    -0.0265                  3.872759776734721
0.0045                    -0.0255                  3.9163574759583093
0.0045                    -0.0245                  3.959315238662725
0.0045                    -0.0235                  4.00130180324224
0.0045                    -0.0225                  4.042088154439481
0.0045                    -0.0215                  4.081359612650054
0.0045                    -0.0205                  4.11860715655278
0.0045                    -0.0195                  4.153152977455888
0.0045                    -0.0185                  4.184445206040586
0.0045                    -0.0175                  4.212737695186491
0.0045                    -0.0165                  4.23998539415722
0.0045                    -0.0155                  4.27009891071963
0.0045                    -0.0145                  4.307669357059185
0.0045                    -0.0135                  4.357249653672904
0.0045                    -0.0125                  4.4211462323308925
0.0045                    -0.0115                  4.499302199345068
0.0045                    -0.0105                  4.579837674639167
0.0045                    -0.0095                  4.639954527038938
0.0045                    -0.0085                  4.6671098063945085
0.0045                    -0.0075                  4.669642512782968
0.0045                    -0.0065                  4.667953550339686
0.0045                    -0.0055                  4.677889937813111
0.0045                    -0.0045                  4.704901608197482
0.0045                    -0.0035                  4.746351012322135
0.0045                    -0.0025                  4.794650612529513
0.0045                    -0.0015                  4.839472851336527
0.0045                    -5.0E-4                  4.873647643817121
0.0045                    5.0E-4                   4.8982072231041265
0.0045                    0.0015                   4.918176915453578
0.0045                    0.0025                   4.936895561956277
0.0045                    0.0035                   4.9547534154620045
0.0045                    0.0045                   4.970735428713058
0.0045                    0.0055                   4.983455756466056
0.0045                    0.0065                   4.989593673317422
0.0045                    0.0075                   4.984895701657994
0.0045                    0.0085                   4.967997739337666
0.0045                    0.0095                   4.942398012064279
0.0045                    0.0105                   4.913703712123166
0.0045                    0.0115                   4.885606286249386
0.0045                    0.0125                   4.858749750260054
0.0045                    0.0135                   4.832805779594314
0.0045                    0.0145                   4.809097605954117
0.0045                    0.0155                   4.790771761652793
0.0045                    0.0165                   4.7791302409835055
0.0045                    0.0175                   4.768582510964265
0.0045                    0.0185                   4.750222255933291
0.0045                    0.0195                   4.722071489152002
0.0045                    0.0205                   4.689194369118864
0.0045                    0.0215                   4.655490783881196
0.0045                    0.0225                   4.621781853563723
0.0045                    0.0235                   4.5877487215891515
0.0045                    0.0245                   4.553088336621211
0.0045                    0.0255                   4.517952443709265
0.0045                    0.0265                   4.482290378935691
0.0045                    0.0275                   4.44636378691448
0.0045                    0.0285                   4.41129381758942
0.0045                    0.0295                   4.379377037602059
0.0045                    0.0305                   4.354076023141811
0.0045                    0.0315                   4.339658373191379
0.0055                    -0.0315                  3.665809454329909
0.0055                    -0.0305                  3.680897471719071
0.0055                    -0.0295                  3.708260178735246
0.0055                    -0.0285                  3.744143434034842
0.0055                    -0.0275                  3.785172599488519
0.0055                    -0.0265                  3.8286504713691785
0.0055                    -0.0255                  3.8726719141865837
0.0055                    -0.0245                  3.9160869489771937
0.0055                    -0.0235                  3.9582931196924265
0.0055                    -0.0225                  3.9989880389533305
0.0055                    -0.0215                  4.037959884530579
0.0055                    -0.0205                  4.0749105941864645
0.0055                    -0.0195                  4.109312544431779
0.0055                    -0.0185                  4.140433169664384
0.0055                    -0.0175                  4.167854416250469
0.0055                    -0.0165                  4.19254535075429
0.0055                    -0.0155                  4.217750356286423
0.0055                    -0.0145                  4.247829884720776
0.0055                    -0.0135                  4.287776938814821
0.0055                    -0.0125                  4.341455448723733
0.0055                    -0.0115                  4.410922970961444
0.0055                    -0.0105                  4.489173530399006
0.0055                    -0.0095                  4.552345535135904
0.0055                    -0.0085                  4.582525845295862
0.0055                    -0.0075                  4.591248292763628
0.0055                    -0.0065                  4.604909390437445
0.0055                    -0.0055                  4.63932404175853
0.0055                    -0.0045                  4.694454049203905
0.0055                    -0.0035                  4.760876254880655
0.0055                    -0.0025                  4.824137218068802
0.0055                    -0.0015                  4.869249362383936
0.0055                    -5.0E-4                  4.890288130282025
0.0055                    5.0E-4                   4.896772842282258
0.0055                    0.0015                   4.903553073757989
0.0055                    0.0025                   4.915982696040089
0.0055                    0.0035                   4.930977904124602
0.0055                    0.0045                   4.9449245098167385
0.0055                    0.0055                   4.954579100685239
0.0055                    0.0065                   4.956393600585751
0.0055                    0.0075                   4.948253030402832
0.0055                    0.0085                   4.930836855773417
0.0055                    0.0095                   4.907072181230035
0.0055                    0.0105                   4.880294988582695
0.0055                    0.0115                   4.852597926737248
0.0055                    0.0125                   4.824621579917181
0.0055                    0.0135                   4.796541793537667
0.0055                    0.0145                   4.769502719111872
0.0055                    0.0155                   4.746414500214361
0.0055                    0.0165                   4.729141948214143
0.0055                    0.0175                   4.713214297668596
0.0055                    0.0185                   4.691702565859671
0.0055                    0.0195                   4.663167121873054
0.0055                    0.0205                   4.631417638214053
0.0055                    0.0215                   4.599492325980447
0.0055                    0.0225                   4.56886627050547
0.0055                    0.0235                   4.539329917169323
0.0055                    0.0245                   4.508921821358739
0.0055                    0.0255                   4.476781158520882
0.0055                    0.0265                   4.442815118602012
0.0055                    0.0275                   4.407916911309737
0.0055                    0.0285                   4.3739102819313604
0.0055                    0.0295                   4.3434175206196315
0.0055                    0.0305                   4.319704942580868
0.0055                    0.0315                   4.306433921594226
0.0065                    -0.0315                  3.627005657979244
0.0065                    -0.0305                  3.6409702964685797
0.0065                    -0.0295                  3.6666456078208105
0.0065                    -0.0285                  3.7008746327111384
0.0065                    -0.0275                  3.740694762201288
0.0065                    -0.0265                  3.7835489460269334
0.0065                    -0.0255                  3.8273856911370627
0.0065                    -0.0245                  3.8707488274625916
0.0065                    -0.0235                  3.9127609641277057
0.0065                    -0.0225                  3.9530073805001207
0.0065                    -0.0215                  3.9913803700498187
0.0065                    -0.0205                  4.027907151974061
0.0065                    -0.0195                  4.062515222630993
0.0065                    -0.0185                  4.094735663353011
0.0065                    -0.0175                  4.123750689748986
0.0065                    -0.0165                  4.149611479734283
0.0065                    -0.0155                  4.17398719370399
0.0065                    -0.0145                  4.2002086166919685
0.0065                    -0.0135                  4.23340961844747
0.0065                    -0.0125                  4.277412371910531
0.0065                    -0.0115                  4.332384217177767
0.0065                    -0.0105                  4.394728127615915
0.0065                    -0.0095                  4.448198383011968
0.0065                    -0.0085                  4.479784975247767
0.0065                    -0.0075                  4.5029934846878445
0.0065                    -0.0065                  4.539977328398154
0.0065                    -0.0055                  4.599177786591284
0.0065                    -0.0045                  4.674903870877737
0.0065                    -0.0035                  4.75474995586591
0.0065                    -0.0025                  4.823129467377221
0.0065                    -0.0015                  4.865359235425747
0.0065                    -5.0E-4                  4.877638589567167
0.0065                    5.0E-4                   4.873825475259405
0.0065                    0.0015                   4.8730103568710215
0.0065                    0.0025                   4.881161107982258
0.0065                    0.0035                   4.892320167197778
0.0065                    0.0045                   4.900367219565557
0.0065                    0.0055                   4.902607989825432
0.0065                    0.0065                   4.898382875854213
0.0065                    0.0075                   4.888398303271982
0.0065                    0.0085                   4.873892134093952
0.0065                    0.0095                   4.855820708962338
0.0065                    0.0105                   4.834665573093741
0.0065                    0.0115                   4.810519748914777
0.0065                    0.0125                   4.783406563432737