% Model:              Benchmark260518.mph
% Version:            COMSOL 6.2.0.339
% Date:               May 19 2026, 08:08
% Dimension:          2
% Nodes:              4096
% Expressions:        1
% Description:        压力
% Length unit:        m
% x                       y                        p (Pa)
% mirrored_by_python_y_to_minus_y, coord_match_decimals=12
0.0005 -0.0315 4.3865911743
0.0005 -0.0305 4.40344963188
0.0005 -0.0295 4.42665782289
0.0005 -0.0285 4.45224936492
0.0005 -0.0275 4.47904615525
0.0005 -0.0265 4.50646004787
0.0005 -0.0255 4.53416261277
0.0005 -0.0245 4.56192215862
0.0005 -0.0235 4.58952199111
0.0005 -0.0225 4.61676118473
0.0005 -0.0215 4.64341998888
0.0005 -0.0205 4.66929618889
0.0005 -0.0195 4.69420225423
0.0005 -0.0185 4.71781953516
0.0005 -0.0175 4.73973285679
0.0005 -0.0165 4.75944725937
0.0005 -0.0155 4.77615156248
0.0005 -0.0145 4.78859288914
0.0005 -0.0135 4.79532117913
0.0005 -0.0125 4.7965788895
0.0005 -0.0115 4.79377633359
0.0005 -0.0105 4.78869246485
0.0005 -0.0095 4.78323102527
0.0005 -0.0085 4.75362889821
0.0005 -0.0075 4.66584108871
0.0005 -0.0065 4.58730115685
0.0005 -0.0055 4.56439749543
0.0005 -0.0045 4.55934497441
0.0005 -0.0035 4.57365007448
0.0005 -0.0025 4.61430622742
0.0005 -0.0015 4.66585036622
0.0005 -0.0005 4.70523888642
0.0005 0.0005 4.72340619994
0.0005 0.0015 4.72513089918
0.0005 0.0025 4.71742794687
0.0005 0.0035 4.70056090315
0.0005 0.0045 4.6691966748
0.0005 0.0055 4.61912766638
0.0005 0.0065 4.55486565432
0.0005 0.0075 4.48428463332
0.0005 0.0085 4.41305872079
0.0005 0.0095 4.34614082716
0.0005 0.0105 4.28500625962
0.0005 0.0115 4.2287321687
0.0005 0.0125 4.17617520764
0.0005 0.0135 4.12652051282
0.0005 0.0145 4.07917994731
0.0005 0.0155 4.03372586916
0.0005 0.0165 3.98987250564
0.0005 0.0175 3.94740233715
0.0005 0.0185 3.90611822759
0.0005 0.0195 3.8658457676
0.0005 0.0205 3.8264524423
0.0005 0.0215 3.78786702413
0.0005 0.0225 3.75004817613
0.0005 0.0235 3.71296308867
0.0005 0.0245 3.67659688429
0.0005 0.0255 3.64096628464
0.0005 0.0265 3.60612141548
0.0005 0.0275 3.57216906387
0.0005 0.0285 3.53934226824
0.0005 0.0295 3.50800622667
0.0005 0.0305 3.47923274272
0.0005 0.0315 3.45812445141
0.0015 -0.0315 4.36988011861
0.0015 -0.0305 4.38708908858
0.0015 -0.0295 4.41244585021
0.0015 -0.0285 4.44068920744
0.0015 -0.0275 4.47019630329
0.0015 -0.0265 4.50035444448
0.0015 -0.0255 4.53084574533
0.0015 -0.0245 4.56145314339
0.0015 -0.0235 4.59196616843
0.0015 -0.0225 4.6221353136
0.0015 -0.0215 4.65166105506
0.0015 -0.0205 4.68019285914
0.0015 -0.0195 4.70728071779
0.0015 -0.0185 4.73236227728
0.0015 -0.0175 4.7548087932
0.0015 -0.0165 4.77389134765
0.0015 -0.0155 4.78866471181
0.0015 -0.0145 4.79807597448
0.0015 -0.0135 4.80161843401
0.0015 -0.0125 4.80070089701
0.0015 -0.0115 4.79753572714
0.0015 -0.0105 4.79161035782
0.0015 -0.0095 4.78806308321
0.0015 -0.0085 4.765676746
0.0015 -0.0075 4.67400614253
0.0015 -0.0065 4.57726982359
0.0015 -0.0055 4.54734194041
0.0015 -0.0045 4.54089665475
0.0015 -0.0035 4.54983502322
0.0015 -0.0025 4.59253390988
0.0015 -0.0015 4.64995573045
0.0015 -0.0005 4.69362374427
0.0015 0.0005 4.71438771129
0.0015 0.0015 4.7189632156
0.0015 0.0025 4.71254762516
0.0015 0.0035 4.69299460028
0.0015 0.0045 4.65551067551
0.0015 0.0055 4.5964694482
0.0015 0.0065 4.52208580107
0.0015 0.0075 4.44387073127
0.0015 0.0085 4.36953031824
0.0015 0.0095 4.30356011357
0.0015 0.0105 4.24544659581
0.0015 0.0115 4.19292103474
0.0015 0.0125 4.14407846889
0.0015 0.0135 4.09777375212
0.0015 0.0145 4.05337976758
0.0015 0.0155 4.01052200143
0.0015 0.0165 3.96893739368
0.0015 0.0175 3.92840350125
0.0015 0.0185 3.88872802632
0.0015 0.0195 3.84975516012
0.0015 0.0205 3.81138283428
0.0015 0.0215 3.7735536055
0.0015 0.0225 3.73623293893
0.0015 0.0235 3.69939316247
0.0015 0.0245 3.66301029307
0.0015 0.0255 3.6270657443
0.0015 0.0265 3.59155445631
0.0015 0.0275 3.55651067885
0.0015 0.0285 3.52204319799
0.0015 0.0295 3.48855739725
0.0015 0.0305 3.45790432397
0.0015 0.0315 3.43684670963
0.0025 -0.0315 4.34687017042
0.0025 -0.0305 4.36321772672
0.0025 -0.0295 4.3897723003
0.0025 -0.0285 4.42114905149
0.0025 -0.0275 4.45467045332
0.0025 -0.0265 4.4892847963
0.0025 -0.0255 4.52453278469
0.0025 -0.0245 4.56012849527
0.0025 -0.0235 4.59579623616
0.0025 -0.0225 4.63118235844
0.0025 -0.0215 4.66580444019
0.0025 -0.0205 4.69900738055
0.0025 -0.0195 4.72994911449
0.0025 -0.0185 4.757610331
0.0025 -0.0175 4.78081640316
0.0025 -0.0165 4.79835450316
0.0025 -0.0155 4.80923504188
0.0025 -0.0145 4.813246528
0.0025 -0.0135 4.81209461769
0.0025 -0.0125 4.8087869598
0.0025 -0.0115 4.80549217576
0.0025 -0.0105 4.80169905656
0.0025 -0.0095 4.80420856289
0.0025 -0.0085 4.80679479891
0.0025 -0.0075 4.73746105485
0.0025 -0.0065 4.60742371989
0.0025 -0.0055 4.53159274657
0.0025 -0.0045 4.51609667337
0.0025 -0.0035 4.52715227523
0.0025 -0.0025 4.5681649181
0.0025 -0.0015 4.61939649924
0.0025 -0.0005 4.65624336893
0.0025 0.0005 4.67572782257
0.0025 0.0015 4.68499827512
0.0025 0.0025 4.68206702298
0.0025 0.0035 4.65767787832
0.0025 0.0045 4.60742456705
0.0025 0.0055 4.53384739924
0.0025 0.0065 4.44809740609
0.0025 0.0075 4.36411246344
0.0025 0.0085 4.28995351056
0.0025 0.0095 4.22790364057
0.0025 0.0105 4.17536946102
0.0025 0.0115 4.12883630223
0.0025 0.0125 4.08583071649
0.0025 0.0135 4.04498915327
0.0025 0.0145 4.00560655385
0.0025 0.0155 3.96727168805
0.0025 0.0165 3.92968032452
0.0025 0.0175 3.89258318769
0.0025 0.0185 3.85578708464
0.0025 0.0195 3.81916724597
0.0025 0.0205 3.7826595202
0.0025 0.0215 3.74623819303
0.0025 0.0225 3.70989038457
0.0025 0.0235 3.6735959099
0.0025 0.0245 3.63731721565
0.0025 0.0255 3.60100402552
0.0025 0.0265 3.56461639272
0.0025 0.0275 3.52817538443
0.0025 0.0285 3.49193727233
0.0025 0.0295 3.4569826588
0.0025 0.0305 3.42660356322
0.0025 0.0315 3.40767572972
0.0035 -0.0315 4.32137074054
0.0035 -0.0305 4.33686170833
0.0035 -0.0295 4.36363212832
0.0035 -0.0285 4.39734536352
0.0035 -0.0275 4.43492399572
0.0035 -0.0265 4.47465222128
0.0035 -0.0255 4.51568197392
0.0035 -0.0245 4.55751727201
0.0035 -0.0235 4.59972536424
0.0035 -0.0225 4.64177687698
0.0035 -0.0215 4.68293560766
0.0035 -0.0205 4.72218454808
0.0035 -0.0195 4.75818956826
0.0035 -0.0185 4.78930181304
0.0035 -0.0175 4.81362858478
0.0035 -0.0165 4.82940192287
0.0035 -0.0155 4.83582416522
0.0035 -0.0145 4.83382436125
0.0035 -0.0135 4.82731386671
0.0035 -0.0125 4.82081558966
0.0035 -0.0115 4.81666623998
0.0035 -0.0105 4.81288919548
0.0035 -0.0095 4.82594383153
0.0035 -0.0085 4.88850998682
0.0035 -0.0075 4.89504997628
0.0035 -0.0065 4.74315205924
0.0035 -0.0055 4.59364660287
0.0035 -0.0045 4.54627075829
0.0035 -0.0035 4.54381455371
0.0035 -0.0025 4.56059051648
0.0035 -0.0015 4.57458237207
0.0035 -0.0005 4.58130918683
0.0035 0.0005 4.58996756087
0.0035 0.0015 4.60223606083
0.0035 0.0025 4.60421355341
0.0035 0.0035 4.57700246459
0.0035 0.0045 4.51502487015
0.0035 0.0055 4.42865057699
0.0035 0.0065 4.33755073134
0.0035 0.0075 4.25627263351
0.0035 0.0085 4.18865478288
0.0035 0.0095 4.13375028004
0.0035 0.0105 4.08771738515
0.0035 0.0115 4.04731990281
0.0035 0.0125 4.01041321732
0.0035 0.0135 3.97564076757
0.0035 0.0145 3.94213020643
0.0035 0.0155 3.90926998193
0.0035 0.0165 3.87659884104
0.0035 0.0175 3.84378189592
0.0035 0.0185 3.81061413611
0.0035 0.0195 3.77700361048
0.0035 0.0205 3.74293309992
0.0035 0.0215 3.70841639267
0.0035 0.0225 3.67346289837
0.0035 0.0235 3.63805707855
0.0035 0.0245 3.6021575915
0.0035 0.0255 3.56572146761
0.0035 0.0265 3.52876394739
0.0035 0.0275 3.49150216278
0.0035 0.0285 3.45470268128
0.0035 0.0295 3.42032953716
0.0035 0.0305 3.39220931562
0.0035 0.0315 3.37582158538
0.0045 -0.0315 4.29435193556
0.0045 -0.0305 4.30940613621
0.0045 -0.0295 4.33636191386
0.0045 -0.0285 4.37181091548
0.0045 -0.0275 4.41292965884
0.0045 -0.0265 4.45766653311
0.0045 -0.0255 4.50472100556
0.0045 -0.0245 4.55325927642
0.0045 -0.0235 4.60259900309
0.0045 -0.0225 4.65197573861
0.0045 -0.0215 4.7003747771
0.0045 -0.0205 4.74640915159
0.0045 -0.0195 4.78822944382
0.0045 -0.0185 4.8235093601
0.0045 -0.0175 4.84969876588
0.0045 -0.0165 4.86464954397
0.0045 -0.0155 4.86770686362
0.0045 -0.0145 4.86069064737
0.0045 -0.0135 4.84869841484
0.0045 -0.0125 4.83751811969
0.0045 -0.0115 4.82913169185
0.0045 -0.0105 4.82282147904
0.0045 -0.0095 4.86417355767
0.0045 -0.0085 5.0359607096
0.0045 -0.0075 5.19471849704
0.0045 -0.0065 5.10653577059
0.0045 -0.0055 4.8934651313
0.0045 -0.0045 4.74302498832
0.0045 -0.0035 4.6505306861
0.0045 -0.0025 4.58250669685
0.0045 -0.0015 4.52705446765
0.0045 -0.0005 4.49281938649
0.0045 0.0005 4.48212179714
0.0045 0.0015 4.48762937041
0.0045 0.0025 4.48783108891
0.0045 0.0035 4.45569991704
0.0045 0.0045 4.38623145438
0.0045 0.0055 4.29688146319
0.0045 0.0065 4.211595178
0.0045 0.0075 4.14143276186
0.0045 0.0085 4.08347868561
0.0045 0.0095 4.03523964816
0.0045 0.0105 3.99406874403
0.0045 0.0115 3.95820853418
0.0045 0.0125 3.92626748513
0.0045 0.0135 3.89695563785
0.0045 0.0145 3.86910050667
0.0045 0.0155 3.8417225811
0.0045 0.0165 3.81408674445
0.0045 0.0175 3.78573017573
0.0045 0.0185 3.75642700472
0.0045 0.0195 3.72611556883
0.0045 0.0205 3.69481659261
0.0045 0.0215 3.66256705263
0.0045 0.0225 3.62938123842
0.0045 0.0235 3.59524196436
0.0045 0.0245 3.56012355675
0.0045 0.0255 3.52405189668
0.0045 0.0265 3.48722261003
0.0045 0.0275 3.45022253128
0.0045 0.0285 3.41437219647
0.0045 0.0295 3.3820464739
0.0045 0.0305 3.35672021461
0.0045 0.0315 3.34252418759
0.0055 -0.0315 4.26621523116
0.0055 -0.0305 4.28123150306
0.0055 -0.0295 4.30868701057
0.0055 -0.0285 4.34575565821
0.0055 -0.0275 4.38995909747
0.0055 -0.0265 4.43923635525
0.0055 -0.0255 4.49200217745
0.0055 -0.0245 4.54707213189
0.0055 -0.0235 4.60345520599
0.0055 -0.0225 4.66011658692
0.0055 -0.0215 4.71576604682
0.0055 -0.0205 4.76867684581
0.0055 -0.0195 4.81655695257
0.0055 -0.0185 4.85653486777
0.0055 -0.0175 4.88553319994
0.0055 -0.0165 4.90126931508
0.0055 -0.0155 4.90310290061
0.0055 -0.0145 4.89325989643
0.0055 -0.0135 4.87715919031
0.0055 -0.0125 4.85998422237
0.0055 -0.0115 4.84436400832
0.0055 -0.0105 4.83773652286
0.0055 -0.0095 4.93901425065
0.0055 -0.0085 5.25679241499
0.0055 -0.0075 5.59563264631
0.0055 -0.0065 5.6385439783
0.0055 -0.0055 5.41026529327
0.0055 -0.0045 5.11613886461
0.0055 -0.0035 4.85156301833
0.0055 -0.0025 4.64665022574
0.0055 -0.0015 4.51237152583
0.0055 -0.0005 4.43849101431
0.0055 0.0005 4.40300221013
0.0055 0.0015 4.38806344322
0.0055 0.0025 4.37259413476
0.0055 0.0035 4.32912416381
0.0055 0.0045 4.25494926466
0.0055 0.0055 4.17315844329
0.0055 0.0065 4.10114297261
0.0055 0.0075 4.04125686355
0.0055 0.0085 3.98936051514
0.0055 0.0095 3.94370709278
0.0055 0.0105 3.90399173054
0.0055 0.0115 3.86996509278
0.0055 0.0125 3.84092123526
0.0055 0.0135 3.81550301727
0.0055 0.0145 3.79211799551
0.0055 0.0155 3.76930522535
0.0055 0.0165 3.74602714833
0.0055 0.0175 3.72169082053
0.0055 0.0185 3.69604258368
0.0055 0.0195 3.66902250888
0.0055 0.0205 3.64064439338
0.0055 0.0215 3.61092098045
0.0055 0.0225 3.57983539891
0.0055 0.0235 3.54735707095
0.0055 0.0245 3.51349941919
0.0055 0.0255 3.47842019895
0.0055 0.0265 3.44257412478
0.0055 0.0275 3.40691252946
0.0055 0.0285 3.37305740134
0.0055 0.0295 3.34333102187
0.0055 0.0305 3.32065529425
0.0055 0.0315 3.30822236567
0.0065 -0.0315 4.23715590116
0.0065 -0.0305 4.25244566298
0.0065 -0.0295 4.28074243139
0.0065 -0.0285 4.3195364218
0.0065 -0.0275 4.36658060914
0.0065 -0.0265 4.41989046067
0.0065 -0.0255 4.47776018627
0.0065 -0.0245 4.53874351066
0.0065 -0.0235 4.60154898014
0.0065 -0.0225 4.66486093928
0.0065 -0.0215 4.72713257718
0.0065 -0.0205 4.78637356022
0.0065 -0.0195 4.83997398514
0.0065 -0.0185 4.88474900095
0.0065 -0.0175 4.91739217528
0.0065 -0.0165 4.93546541829
0.0065 -0.0155 4.93857070306
0.0065 -0.0145 4.92899999167
0.0065 -0.0135 4.91127346445
0.0065 -0.0125 4.88910818412
0.0065 -0.0115 4.8677166548
0.0065 -0.0105 4.87858395581
0.0065 -0.0095 5.06373330681
0.0065 -0.0085 5.49837461448
0.0065 -0.0075 5.95251602662
0.0065 -0.0065 6.09596000335
0.0065 -0.0055 5.87581891148
0.0065 -0.0045 5.48049363574
0.0065 -0.0035 5.07426000125
0.0065 -0.0025 4.75369533406
0.0065 -0.0015 4.54514260489
0.0065 -0.0005 4.42525336915
0.0065 0.0005 4.3608864968
0.0065 0.0015 4.3220819465
0.0065 0.0025 4.28568823386
0.0065 0.0035 4.23060305647
0.0065 0.0045 4.15518980545
0.0065 0.0055 4.08179043885
0.0065 0.0065 4.01989204458
0.0065 0.0075 3.96430546835
0.0065 0.0085 3.9129944405
0.0065 0.0095 3.86600164504
0.0065 0.0105 3.82473135717
0.0065 0.0115 3.78983891392
0.0065 0.0125 3.7611314509
0.0065 0.0135 3.73729749965
0.0065 0.0145 3.71625491195
0.0065 0.0155 3.69619172772
0.0065 0.0165 3.67585945847
0.0065 0.0175 3.65457258532
0.0065 0.0185 3.63201550083
0.0065 0.0195 3.60805315938
0.0065 0.0205 3.58260336751
0.0065 0.0215 3.55557415126
0.0065 0.0225 3.52686241118
0.0065 0.0235 3.49640685901
0.0065 0.0245 3.46427917631
0.0065 0.0255 3.43080071469
0.0065 0.0265 3.39666998369
0.0065 0.0275 3.36306310256
0.0065 0.0285 3.33165241179
0.0065 0.0295 3.30453759115
0.0065 0.0305 3.284178174
0.0065 0.0315 3.27316231557
0.0075 -0.0315 4.20725799926
0.0075 -0.0305 4.22305384129
0.0075 -0.0295 4.25247566959
0.0075 -0.0285 4.29314009099
0.0075 -0.0275 4.34289855825
0.0075 -0.0265 4.39980208223
0.0075 -0.0255 4.462079128
0.0075 -0.0245 4.5281069726
0.0075 -0.0235 4.59634625702
0.0075 -0.0225 4.66521955996
0.0075 -0.0215 4.73294313606
0.0075 -0.0205 4.79733877155
0.0075 -0.0195 4.85566287147
0.0075 -0.0185 4.90465318355
0.0075 -0.0175 4.94114092208
0.0075 -0.0165 4.96307683396
0.0075 -0.0155 4.97019261888
0.0075 -0.0145 4.9646185275
0.0075 -0.0135 4.94978168319
0.0075 -0.0125 4.92716420288
0.0075 -0.0115 4.90775238993
0.0075 -0.0105 4.95528008786
0.0075 -0.0095 5.19410528125
0.0075 -0.0085 5.63846326403
0.0075 -0.0075 6.08553373654
0.0075 -0.0065 6.25183207801
0.0075 -0.0055 6.06656182824
0.0075 -0.0045 5.68741166793
0.0075 -0.0035 5.25932512328
0.0075 -0.0025 4.87857448074
0.0075 -0.0015 4.59909320799
0.0075 -0.0005 4.42454198601
0.0075 0.0005 4.32698854485
0.0075 0.0015 4.26801720508
0.0075 0.0025 4.2180408959
0.0075 0.0035 4.15921162202
0.0075 0.0045 4.08738482125
0.0075 0.0055 4.0171827401
0.0075 0.0065 3.95791933578
0.0075 0.0075 3.90421773276
0.0075 0.0085 3.85248178735
0.0075 0.0095 3.80342960308
0.0075 0.0105 3.75965889244
0.0075 0.0115 3.72275118976
0.0075 0.0125 3.69232434837
0.0075 0.0135 3.66726787308
0.0075 0.0145 3.64574063135
0.0075 0.0155 3.62590683101
0.0075 0.0165 3.60656329882
0.0075 0.0175 3.58698520446
0.0075 0.0185 3.56671922864
0.0075 0.0195 3.54542789469
0.0075 0.0205 3.52279900267
0.0075 0.0215 3.49852396841
0.0075 0.0225 3.47234816657
0.0075 0.0235 3.44416267658
0.0075 0.0245 3.41410558869
0.0075 0.0255 3.38265093476
0.0075 0.0265 3.35066446125
0.0075 0.0275 3.31940615839
0.0075 0.0285 3.29047785933
0.0075 0.0295 3.26575322409
0.0075 0.0305 3.24735617413
0.0075 0.0315 3.23747863151
0.0085 -0.0315 4.1765432217
0.0085 -0.0305 4.19301389776
0.0085 -0.0295 4.22377376374
0.0085 -0.0285 4.26642644304
0.0085 -0.0275 4.31880503872
0.0085 -0.0265 4.37892034166
0.0085 -0.0255 4.44491586331
0.0085 -0.0245 4.51502270677
0.0085 -0.0235 4.5874990363
0.0085 -0.0225 4.6605372716
0.0085 -0.0215 4.73213598542
0.0085 -0.0205 4.79995642829
0.0085 -0.0195 4.86125870133
0.0085 -0.0185 4.9130726552
0.0085 -0.0175 4.95283336746
0.0085 -0.0165 4.97984074665
0.0085 -0.0155 4.99374625541
0.0085 -0.0145 4.99732728461
0.0085 -0.0135 4.99047856135
0.0085 -0.0125 4.96927920724
0.0085 -0.0115 4.95565171121
0.0085 -0.0105 5.01987827882
0.0085 -0.0095 5.23524844712
0.0085 -0.0085 5.58827293873
0.0085 -0.0075 5.93873819059
0.0085 -0.0065 6.09939666643
0.0085 -0.0055 6.00662762288
0.0085 -0.0045 5.7284888118
0.0085 -0.0035 5.35373623756
0.0085 -0.0025 4.96944476865
0.0085 -0.0015 4.64848307217
0.0085 -0.0005 4.42498142985
0.0085 0.0005 4.29054109839
0.0085 0.0015 4.21144982427
0.0085 0.0025 4.15413334558
0.0085 0.0035 4.09780810318
0.0085 0.0045 4.03390832768
0.0085 0.0055 3.96712254968
0.0085 0.0065 3.90671971329
0.0085 0.0075 3.85304358738
0.0085 0.0085 3.80206578168
0.0085 0.0095 3.75309692788
0.0085 0.0105 3.70830960117
0.0085 0.0115 3.66970976283
0.0085 0.0125 3.63678210439
0.0085 0.0135 3.6082771316
0.0085 0.0145 3.58338506733
0.0085 0.0155 3.56110721992
0.0085 0.0165 3.54063189776
0.0085 0.0175 3.52128675983
0.0085 0.0185 3.50241104954
0.0085 0.0195 3.48331160397
0.0085 0.0205 3.46327297631
0.0085 0.0215 3.44164617244
0.0085 0.0225 3.41797290122
0.0085 0.0235 3.39209292765
0.0085 0.0245 3.36421265937
0.0085 0.0255 3.33492417919
0.0085 0.0265 3.30518172451
0.0085 0.0275 3.27624580734
0.0085 0.0285 3.24961529883
0.0085 0.0295 3.22697791475
0.0085 0.0305 3.21021771315
0.0085 0.0315 3.20125991224
0.0095 -0.0315 4.14499226906
0.0095 -0.0305 4.16225899096
0.0095 -0.0295 4.19450833977
0.0095 -0.0285 4.23922559759
0.0095 -0.0275 4.29412799181
0.0095 -0.0265 4.35710618549
0.0095 -0.0255 4.42616858142
0.0095 -0.0245 4.49938438142
0.0095 -0.0235 4.57482017529
0.0095 -0.0225 4.65045703075
0.0095 -0.0215 4.72408179572
0.0095 -0.0205 4.79320671965
0.0095 -0.0195 4.85514830558
0.0095 -0.0185 4.90750303792
0.0095 -0.0175 4.94942600627
0.0095 -0.0165 4.98126599904
0.0095 -0.0155 5.00453642837
0.0095 -0.0145 5.02059245587
0.0095 -0.0135 5.01846515499
0.0095 -0.0125 4.99091916632
0.0095 -0.0115 4.9684254473
0.0095 -0.0105 5.00639396006
0.0095 -0.0095 5.14873337231
0.0095 -0.0085 5.39003047292
0.0095 -0.0075 5.64499770535
0.0095 -0.0065 5.80478159154
0.0095 -0.0055 5.80288666011
0.0095 -0.0045 5.62940275626
0.0095 -0.0035 5.33463737113
0.0095 -0.0025 4.99476241861
0.0095 -0.0015 4.67676941827
0.0095 -0.0005 4.42653002334
0.0095 0.0005 4.2590878005
0.0095 0.0015 4.15810135566
0.0095 0.0025 4.0933002013
0.0095 0.0035 4.03961627263
0.0095 0.0045 3.98371334638
0.0095 0.0055 3.92303694732
0.0095 0.0065 3.86298404515
0.0095 0.0075 3.80800917338
0.0095 0.0085 3.75778330152
0.0095 0.0095 3.71083749436
0.0095 0.0105 3.66734306661
0.0095 0.0115 3.62821829723
0.0095 0.0125 3.59283246609
0.0095 0.0135 3.56005472594
0.0095 0.0145 3.53008419356
0.0095 0.0155 3.50339170781
0.0095 0.0165 3.48004233525
0.0095 0.0175 3.4596273735
0.0095 0.0185 3.44128850963
0.0095 0.0195 3.4238265881
0.0095 0.0205 3.40595827784
0.0095 0.0215 3.38661288852
0.0095 0.0225 3.36512087566
0.0095 0.0235 3.34129679025
0.0095 0.0245 3.31541812827
0.0095 0.0255 3.28815716253
0.0095 0.0265 3.26049884699
0.0095 0.0275 3.23366304879
0.0095 0.0285 3.20904377221
0.0095 0.0295 3.18817899567
0.0095 0.0305 3.17277502633
0.0095 0.0315 3.16456561118
0.0105 -0.0315 4.11255694518
0.0105 -0.0305 4.13070796141
0.0105 -0.0295 4.16455278023
0.0105 -0.0285 4.21137600408
0.0105 -0.0275 4.26869902447
0.0105 -0.0265 4.33421756873
0.0105 -0.0255 4.40574365031
0.0105 -0.0245 4.48114447482
0.0105 -0.0235 4.55827242334
0.0105 -0.0225 4.63488619783
0.0105 -0.0215 4.70856080011
0.0105 -0.0205 4.77665782774
0.0105 -0.0195 4.83665973106
0.0105 -0.0185 4.88706877147
0.0105 -0.0175 4.92941599861
0.0105 -0.0165 4.96486342567
0.0105 -0.0155 4.99707808777
0.0105 -0.0145 5.01926160536
0.0105 -0.0135 5.00826937518
0.0105 -0.0125 4.96277222674
0.0105 -0.0115 4.9169411609
0.0105 -0.0105 4.91975784543
0.0105 -0.0095 5.00304680006
0.0105 -0.0085 5.16141615245
0.0105 -0.0075 5.3506299841
0.0105 -0.0065 5.49625698028
0.0105 -0.0055 5.53300920401
0.0105 -0.0045 5.43856183915
0.0105 -0.0035 5.23177669131
0.0105 -0.0025 4.95808622011
0.0105 -0.0015 4.67268428991
0.0105 -0.0005 4.42305021603
0.0105 0.0005 4.2368315652
0.0105 0.0015 4.11561055688
0.0105 0.0025 4.04008281562
0.0105 0.0035 3.98523072473
0.0105 0.0045 3.9337273252
0.0105 0.0055 3.87921777498
0.0105 0.0065 3.82268034588
0.0105 0.0075 3.76807516415
0.0105 0.0085 3.71818977152
0.0105 0.0095 3.67323266839
0.0105 0.0105 3.63197012935
0.0105 0.0115 3.5931746762
0.0105 0.0125 3.55583890739
0.0105 0.0135 3.51943960104
0.0105 0.0145 3.4846813877
0.0105 0.0155 3.4532027293
0.0105 0.0165 3.4262290058
0.0105 0.0175 3.40397351116
0.0105 0.0185 3.38548102687
0.0105 0.0195 3.36896152682
0.0105 0.0205 3.35254357653
0.0105 0.0215 3.3347520882
0.0105 0.0225 3.31478158698
0.0105 0.0235 3.29247035041
0.0105 0.0245 3.26816410261
0.0105 0.0255 3.24257555326
0.0105 0.0265 3.21667556703
0.0105 0.0275 3.19161823643
0.0105 0.0285 3.16869298942
0.0105 0.0295 3.14930933212
0.0105 0.0305 3.13502992745
0.0105 0.0315 3.12743694315
0.0115 -0.0315 4.0791671446
0.0115 -0.0305 4.09827101341
0.0115 -0.0295 4.13378942788
0.0115 -0.0285 4.18273852636
0.0115 -0.0275 4.24237898398
0.0115 -0.0265 4.31014739723
0.0115 -0.0255 4.38359606038
0.0115 -0.0245 4.46033632365
0.0115 -0.0235 4.53796825344
0.0115 -0.0225 4.61399085064
0.0115 -0.0215 4.6857526117
0.0115 -0.0205 4.75055324217
0.0115 -0.0195 4.80615385341
0.0115 -0.0185 4.85264912497
0.0115 -0.0175 4.89285793874
0.0115 -0.0165 4.93038551745
0.0115 -0.0155 4.96549153764
0.0115 -0.0145 4.97960559582
0.0115 -0.0135 4.94975797126
0.0115 -0.0125 4.88423812002
0.0115 -0.0115 4.82516525011
0.0115 -0.0105 4.81945829926
0.0115 -0.0095 4.87615683871
0.0115 -0.0085 4.97895784272
0.0115 -0.0075 5.11034384941
0.0115 -0.0065 5.22400099095
0.0115 -0.0055 5.2680208414
0.0115 -0.0045 5.21943263923
0.0115 -0.0035 5.07958428761
0.0115 -0.0025 4.87263535232
0.0115 -0.0015 4.63565223049
0.0115 -0.0005 4.40788180779
0.0115 0.0005 4.22003017595
0.0115 0.0015 4.08514594983
0.0115 0.0025 3.9966621085
0.0115 0.0035 3.93566739712
0.0115 0.0045 3.88446101555
0.0115 0.0055 3.83413519082
0.0115 0.0065 3.78222501468
0.0115 0.0075 3.73030446744
0.0115 0.0085 3.68147597602
0.0115 0.0095 3.63758929072
0.0115 0.0105 3.59777537584
0.0115 0.0115 3.55943146607
0.0115 0.0125 3.52096675338
0.0115 0.0135 3.48239138652
0.0115 0.0145 3.44461164238
0.0115 0.0155 3.40972863944
0.0115 0.0165 3.37999528209
0.0115 0.0175 3.35599635885
0.0115 0.0185 3.33676864732
0.0115 0.0195 3.3202867909
0.0115 0.0205 3.30420915154
0.0115 0.0215 3.2868740319
0.0115 0.0225 3.26747444066
0.0115 0.0235 3.24591270197
0.0115 0.0245 3.22257944324
0.0115 0.0255 3.19817938981
0.0115 0.0265 3.17363055356
0.0115 0.0275 3.14999896348
0.0115 0.0285 3.12846354541
0.0115 0.0295 3.11031179168
0.0115 0.0305 3.09697641118
0.0115 0.0315 3.08990454971
0.0125 -0.0315 4.0447344891
0.0125 -0.0305 4.06485219743
0.0125 -0.0295 4.10211232446
0.0125 -0.0285 4.1532015982
0.0125 -0.0275 4.21506527445
0.0125 -0.0265 4.28483139507
0.0125 -0.0255 4.35974041527
0.0125 -0.0245 4.43708710592
0.0125 -0.0235 4.51416761141
0.0125 -0.0225 4.58819857042
0.0125 -0.0215 4.65628792025
0.0125 -0.0205 4.71580077898
0.0125 -0.0195 4.7653099635
0.0125 -0.0185 4.80691181578
0.0125 -0.0175 4.84333152027
0.0125 -0.0165 4.8790178874
0.0125 -0.0155 4.90833970918
0.0125 -0.0145 4.90614592261
0.0125 -0.0135 4.85853267933
0.0125 -0.0125 4.78549196537
0.0125 -0.0115 4.73579534427
0.0125 -0.0105 4.73969705236
0.0125 -0.0095 4.78350028999
0.0125 -0.0085 4.85108549307
0.0125 -0.0075 4.93485398651
0.0125 -0.0065 5.00870949669
0.0125 -0.0055 5.03981481151
0.0125 -0.0045 5.00957076724
0.0125 -0.0035 4.91275691686
0.0125 -0.0025 4.75967499879
0.0125 -0.0015 4.57217474085
0.0125 -0.0005 4.37768021212
0.0125 0.0005 4.20214789832
0.0125 0.0015 4.06264013651
0.0125 0.0025 3.96240117291
0.0125 0.0035 3.89214895386
0.0125 0.0045 3.83776996189
0.0125 0.0055 3.78883035158
0.0125 0.0065 3.74062929074
0.0125 0.0075 3.69211576819
0.0125 0.0085 3.64497142029
0.0125 0.0095 3.60147060895
0.0125 0.0105 3.56184541464
0.0125 0.0115 3.52391378496
0.0125 0.0125 3.48547070954
0.0125 0.0135 3.44628274238
0.0125 0.0145 3.40759658742
0.0125 0.0155 3.37161511264
0.0125 0.0165 3.34096953189
0.0125 0.0175 3.31622391068
0.0125 0.0185 3.29598864203
0.0125 0.0195 3.27839810325
0.0125 0.0205 3.2612876719
0.0125 0.0215 3.24312052584
0.0125 0.0225 3.22321884027
0.0125 0.0235 3.20156300994
0.0125 0.0245 3.17853840939
0.0125 0.0255 3.15480089959
0.0125 0.0265 3.13118292877
0.0125 0.0275 3.10864074386
0.0125 0.0285 3.08823248258
0.0125 0.0295 3.07111967153
0.0125 0.0305 3.05860304756
0.0125 0.0315 3.05199098971
0.0135 -0.0315 4.00915357501
0.0135 -0.0305 4.03034852078
0.0135 -0.0295 4.06942491047
0.0135 -0.0285 4.12268061337
0.0135 -0.0275 4.18669387875
0.0135 -0.0265 4.25824583729
0.0135 -0.0255 4.33423757146
0.0135 -0.0245 4.41160843842
0.0135 -0.0235 4.48728502121
0.0135 -0.0225 4.55817765661
0.0135 -0.0215 4.62125761352
0.0135 -0.0205 4.6740948854
0.0135 -0.0195 4.71667615347
0.0135 -0.0185 4.75251041564
0.0135 -0.0175 4.78489871579
0.0135 -0.0165 4.81528859898
0.0135 -0.0155 4.83275320596
0.0135 -0.0145 4.8157455988
0.0135 -0.0135 4.75957220273
0.0135 -0.0125 4.69627851727
0.0135 -0.0115 4.66764633235
0.0135 -0.0105 4.67866381764
0.0135 -0.0095 4.7122997688
0.0135 -0.0085 4.75811424966
0.0135 -0.0075 4.80752556984
0.0135 -0.0065 4.84565109949
0.0135 -0.0055 4.85626034734
0.0135 -0.0045 4.82768362918
0.0135 -0.0035 4.75413355811
0.0135 -0.0025 4.6387431282
0.0135 -0.0015 4.49270450223
0.0135 -0.0005 4.33277311299
0.0135 0.0005 4.17748957888
0.0135 0.0015 4.04231905066
0.0135 0.0025 3.9353766781
0.0135 0.0035 3.8557269702
0.0135 0.0045 3.79551173526
0.0135 0.0055 3.74520033698
0.0135 0.0065 3.69856141618
0.0135 0.0075 3.65295382884
0.0135 0.0085 3.60770821831
0.0135 0.0095 3.56412017273
0.0135 0.0105 3.52367727647
0.0135 0.0115 3.48568720854
0.0135 0.0125 3.44814422618
0.0135 0.0135 3.4101936985
0.0135 0.0145 3.37281723618
0.0135 0.0155 3.33818137974
0.0135 0.0165 3.30843577808
0.0135 0.0175 3.2836595201
0.0135 0.0185 3.26214067239
0.0135 0.0195 3.24239158134
0.0135 0.0205 3.22303191771
0.0135 0.0215 3.20290057292
0.0135 0.0225 3.18156497846
0.0135 0.0235 3.15904272563
0.0135 0.0245 3.13570588759
0.0135 0.0255 3.11214117131
0.0135 0.0265 3.0890727578
0.0135 0.0275 3.0673339702
0.0135 0.0285 3.04785280567
0.0135 0.0295 3.03165590997
0.0135 0.0305 3.01989719027
0.0135 0.0315 3.01372386438
0.0145 -0.0315 3.97230159883
0.0145 -0.0305 3.99464574056
0.0145 -0.0295 4.03563089505
0.0145 -0.0285 4.09110731927
0.0145 -0.0275 4.15723434712
0.0145 -0.0265 4.23040886194
0.0145 -0.0255 4.30718220649
0.0145 -0.0245 4.38415169535
0.0145 -0.0235 4.45785812772
0.0145 -0.0225 4.52484527234
0.0145 -0.0215 4.58208389288
0.0145 -0.0205 4.6277883342
0.0145 -0.0195 4.66351070856
0.0145 -0.0185 4.69293778055
0.0145 -0.0175 4.720335291
0.0145 -0.0165 4.74445449598
0.0145 -0.0155 4.75039413024
0.0145 -0.0145 4.72414868802
0.0145 -0.0135 4.67173954863
0.0145 -0.0125 4.62737603976
0.0145 -0.0115 4.61646575452
0.0145 -0.0105 4.63005322255
0.0145 -0.0095 4.65459933006
0.0145 -0.0085 4.6841878235
0.0145 -0.0075 4.70999849149
0.0145 -0.0065 4.72161042664
0.0145 -0.0055 4.71286671157
0.0145 -0.0045 4.67838656419
0.0145 -0.0035 4.61496000369
0.0145 -0.0025 4.52298731266
0.0145 -0.0015 4.40733266672
0.0145 -0.0005 4.2769964163
0.0145 0.0005 4.14361496483
0.0145 0.0015 4.0189077097
0.0145 0.0025 3.91172417937
0.0145 0.0035 3.82566856426
0.0145 0.0045 3.75864869228
0.0145 0.0055 3.70468331163
0.0145 0.0065 3.65750856244
0.0145 0.0075 3.61318149654
0.0145 0.0085 3.56963618815
0.0145 0.0095 3.52634956882
0.0145 0.0105 3.48469342357
0.0145 0.0115 3.44591557691
0.0145 0.0125 3.40929032218
0.0145 0.0135 3.37384896075
0.0145 0.0145 3.33990509937
0.0145 0.0155 3.30850193995
0.0145 0.0165 3.2805487697
0.0145 0.0175 3.25579052882
0.0145 0.0185 3.23260960541
0.0145 0.0195 3.20997770303
0.0145 0.0205 3.18766083228
0.0145 0.0215 3.16501609328
0.0145 0.0225 3.14164531274
0.0145 0.0235 3.1176998655
0.0145 0.0245 3.09357556192
0.0145 0.0255 3.06979080846
0.0145 0.0265 3.04697006301
0.0145 0.0275 3.0258249621
0.0145 0.0285 3.00715330092
0.0145 0.0295 2.99183628406
0.0145 0.0305 2.98085219186
0.0145 0.0315 2.97514489039
0.0155 -0.0315 3.93403705057
0.0155 -0.0305 3.95761112121
0.0155 -0.0295 4.00061792288
0.0155 -0.0285 4.05840535806
0.0155 -0.0275 4.12666562607
0.0155 -0.0265 4.20137265753
0.0155 -0.0255 4.27871212662
0.0155 -0.0245 4.35497785672
0.0155 -0.0235 4.42642449312
0.0155 -0.0225 4.48927220035
0.0155 -0.0215 4.54047374939
0.0155 -0.0205 4.57928387162
0.0155 -0.0195 4.60878489288
0.0155 -0.0185 4.63267644018
0.0155 -0.0175 4.65457116494
0.0155 -0.0165 4.67174653897
0.0155 -0.0155 4.67032619663
0.0155 -0.0145 4.64162692545
0.0155 -0.0135 4.60035955669
0.0155 -0.0125 4.57470367376
0.0155 -0.0115 4.57409144886
0.0155 -0.0105 4.5877083239
0.0155 -0.0095 4.60567279873
0.0155 -0.0085 4.62264626293
0.0155 -0.0075 4.63106117638
0.0155 -0.0065 4.62428423796
0.0155 -0.0055 4.6004068981
0.0155 -0.0045 4.55853777381
0.0155 -0.0035 4.49806685737
0.0155 -0.0025 4.41911607605
0.0155 -0.0015 4.32350582223
0.0155 -0.0005 4.21548451323
0.0155 0.0005 4.1016151564
0.0155 0.0015 3.98974612712
0.0155 0.0025 3.8872577169
0.0155 0.0035 3.79913980681
0.0155 0.0045 3.72677423888
0.0155 0.0055 3.66796924666
0.0155 0.0065 3.61840985937
0.0155 0.0075 3.57362585998
0.0155 0.0085 3.53056133017
0.0155 0.0095 3.48799065277
0.0155 0.0105 3.44615198548
0.0155 0.0115 3.40642157557
0.0155 0.0125 3.3699423408
0.0155 0.0135 3.33683486614
0.0155 0.0145 3.30702879596
0.0155 0.0155 3.27975219883
0.0155 0.0165 3.25373366364
0.0155 0.0175 3.22855843718
0.0155 0.0185 3.20367286221
0.0155 0.0195 3.1783354726
0.0155 0.0205 3.15303031938
0.0155 0.0215 3.12782287988
0.0155 0.0225 3.10227133823
0.0155 0.0235 3.07668279382
0.0155 0.0245 3.05149960385
0.0155 0.0255 3.02724546943
0.0155 0.0265 3.00447851745
0.0155 0.0275 2.98381896777
0.0155 0.0285 2.96594879944
0.0155 0.0295 2.95158287589
0.0155 0.0305 2.94147612733
0.0155 0.0315 2.93630863884
0.0165 -0.0315 3.89419832164
0.0165 -0.0305 3.91908307843
0.0165 -0.0295 3.96423405257
0.0165 -0.0285 4.02445271858
0.0165 -0.0275 4.0949270942
0.0165 -0.0265 4.17117831334
0.0165 -0.0255 4.24900091775
0.0165 -0.0245 4.32438927853
0.0165 -0.0235 4.39343863136
0.0165 -0.0225 4.4523454604
0.0165 -0.0215 4.49811169676
0.0165 -0.0205 4.53089199182
0.0165 -0.0195 4.55474741854
0.0165 -0.0185 4.57418598927
0.0165 -0.0175 4.59161796398
0.0165 -0.0165 4.60257996418
0.0165 -0.0155 4.59724466436
0.0165 -0.0145 4.57162932924
0.0165 -0.0135 4.54267679554