% Model:              Benchmark260518.mph
% Version:            COMSOL 6.2.0.339
% Date:               May 19 2026, 17:47
% Dimension:          2
% Nodes:              4096
% Expressions:        1
% Description:        压力
% Length unit:        m
% x                       y                        p (Pa)
5.0E-4                    -0.0315                  4.0367928944960685
5.0E-4                    -0.0305                  4.07571681973259
5.0E-4                    -0.0295                  4.128689990362607
5.0E-4                    -0.0285                  4.186208577380195
5.0E-4                    -0.0275                  4.245901241618538
5.0E-4                    -0.0265                  4.306797062796681
5.0E-4                    -0.0255                  4.36819855864922
5.0E-4                    -0.0245                  4.429378727877647
5.0E-4                    -0.0235                  4.489894766052067
5.0E-4                    -0.0225                  4.548743475147836
5.0E-4                    -0.0215                  4.603198702124308
5.0E-4                    -0.0205                  4.6494160866676975
5.0E-4                    -0.0195                  4.68289871532968
5.0E-4                    -0.0185                  4.70161491779728
5.0E-4                    -0.0175                  4.709252135050783
5.0E-4                    -0.0165                  4.711012194178223
5.0E-4                    -0.0155                  4.709551140459985
5.0E-4                    -0.0145                  4.705922943113059
5.0E-4                    -0.0135                  4.700461539072948
5.0E-4                    -0.0125                  4.693401776307801
5.0E-4                    -0.0115                  4.685621951668263
5.0E-4                    -0.0105                  4.6786576164983185
5.0E-4                    -0.0095                  4.673965827305363
5.0E-4                    -0.0085                  4.672346500677412
5.0E-4                    -0.0075                  4.673811936239765
5.0E-4                    -0.0065                  4.677607739706168
5.0E-4                    -0.0055                  4.682581199579415
5.0E-4                    -0.0045                  4.687575870911193
5.0E-4                    -0.0035                  4.691721092477538
5.0E-4                    -0.0025                  4.694605014378115
5.0E-4                    -0.0015                  4.696286630803549
5.0E-4                    -5.0E-4                  4.6971913075040925
5.0E-4                    5.0E-4                   4.698013771401637
5.0E-4                    0.0015                   4.699715110567698
5.0E-4                    0.0025                   4.703529972973257
5.0E-4                    0.0035                   4.710766479151568
5.0E-4                    0.0045                   4.72228216335585
5.0E-4                    0.0055                   4.737782379593236
5.0E-4                    0.0065                   4.755230755475557
5.0E-4                    0.0075                   4.7706176326113585
5.0E-4                    0.0085                   4.778668368431701
5.0E-4                    0.0095                   4.7746093457339125
5.0E-4                    0.0105                   4.756735222626651
5.0E-4                    0.0115                   4.727368125470608
5.0E-4                    0.0125                   4.691588820147515
5.0E-4                    0.0135                   4.655640430540035
5.0E-4                    0.0145                   4.625124499955012
5.0E-4                    0.0155                   4.602963735021154
5.0E-4                    0.0165                   4.588567357411912
5.0E-4                    0.0175                   4.5791294732151515
5.0E-4                    0.0185                   4.57364042883286
5.0E-4                    0.0195                   4.5817966581612595
5.0E-4                    0.0205                   4.667973639987672
5.0E-4                    0.0215                   4.84972626212838
5.0E-4                    0.0225                   5.006178497203319
5.0E-4                    0.0235                   5.0682608446104
5.0E-4                    0.0245                   5.069333507563664
5.0E-4                    0.0255                   5.046414692539722
5.0E-4                    0.0265                   5.025978372271357
5.0E-4                    0.0275                   5.0168139157178455
5.0E-4                    0.0285                   5.0156447719890105
5.0E-4                    0.0295                   5.016681366070837
5.0E-4                    0.0305                   5.017021095668575
5.0E-4                    0.0315                   5.016731225603464
0.0015                    -0.0315                  3.9980892409221385
0.0015                    -0.0305                  4.038567829798704
0.0015                    -0.0295                  4.097778195910763
0.0015                    -0.0285                  4.162833465997589
0.0015                    -0.0275                  4.229798274028184
0.0015                    -0.0265                  4.297360628582516
0.0015                    -0.0255                  4.3648054111224965
0.0015                    -0.0245                  4.4315656326919335
0.0015                    -0.0235                  4.496872727020945
0.0015                    -0.0225                  4.5590179499718655
0.0015                    -0.0215                  4.614574238765994
0.0015                    -0.0205                  4.659193884528898
0.0015                    -0.0195                  4.688902549621394
0.0015                    -0.0185                  4.70423242820583
0.0015                    -0.0175                  4.710639761292791
0.0015                    -0.0165                  4.712330071615926
0.0015                    -0.0155                  4.710941897315514
0.0015                    -0.0145                  4.707129982330769
0.0015                    -0.0135                  4.700788948777781
0.0015                    -0.0125                  4.692014210363543
0.0015                    -0.0115                  4.682206095696793
0.0015                    -0.0105                  4.673608795675127
0.0015                    -0.0095                  4.66811941281142
0.0015                    -0.0085                  4.666592384464572
0.0015                    -0.0075                  4.668862289616352
0.0015                    -0.0065                  4.673976323389898
0.0015                    -0.0055                  4.680570341352803
0.0015                    -0.0045                  4.687316811676984
0.0015                    -0.0035                  4.6931432448054675
0.0015                    -0.0025                  4.697352119833626
0.0015                    -0.0015                  4.699733838599265
0.0015                    -5.0E-4                  4.70052321793368
0.0015                    5.0E-4                   4.700300185454696
0.0015                    0.0015                   4.700037205587144
0.0015                    0.0025                   4.701098876234186
0.0015                    0.0035                   4.705024476117666
0.0015                    0.0045                   4.71306979175556
0.0015                    0.0055                   4.725460021898707
0.0015                    0.0065                   4.740691423563142
0.0015                    0.0075                   4.755201917237779
0.0015                    0.0085                   4.76392003791547
0.0015                    0.0095                   4.761802204611009
0.0015                    0.0105                   4.746380758250291
0.0015                    0.0115                   4.719055277943944
0.0015                    0.0125                   4.684660404472252
0.0015                    0.0135                   4.649608589210958
0.0015                    0.0145                   4.619824102539644
0.0015                    0.0155                   4.59869484439376
0.0015                    0.0165                   4.58554777293714
0.0015                    0.0175                   4.577479359159001
0.0015                    0.0185                   4.574206901985565
0.0015                    0.0195                   4.589855225134181
0.0015                    0.0205                   4.727521710196849
0.0015                    0.0215                   4.959304899508021
0.0015                    0.0225                   5.116821328085871
0.0015                    0.0235                   5.160973772496279
0.0015                    0.0245                   5.131596303578567
0.0015                    0.0255                   5.0797047956876575
0.0015                    0.0265                   5.039289467300959
0.0015                    0.0275                   5.021178911803666
0.0015                    0.0285                   5.017680952279683
0.0015                    0.0295                   5.017742040639763
0.0015                    0.0305                   5.017072002271942
0.0015                    0.0315                   5.016109862090575
0.0025                    -0.0315                  3.944620093670934
0.0025                    -0.0305                  3.9843287986570863
0.0025                    -0.0295                  4.048358910543175
0.0025                    -0.0285                  4.122982586286993
0.0025                    -0.0275                  4.201080165247998
0.0025                    -0.0265                  4.2796105245331315
0.0025                    -0.0255                  4.357112545559248
0.0025                    -0.0245                  4.43244365018435
0.0025                    -0.0235                  4.503982838336786
0.0025                    -0.0225                  4.568998842696111
0.0025                    -0.0215                  4.62346389961706
0.0025                    -0.0205                  4.664099020572259
0.0025                    -0.0195                  4.689601976484141
0.0025                    -0.0185                  4.7033437008959895
0.0025                    -0.0175                  4.710882011362235
0.0025                    -0.0165                  4.713650230088324
0.0025                    -0.0155                  4.711052700952225
0.0025                    -0.0145                  4.7028664308553525
0.0025                    -0.0135                  4.689717401867716
0.0025                    -0.0125                  4.674216064841632
0.0025                    -0.0115                  4.660054837851081
0.0025                    -0.0105                  4.65012366091169
0.0025                    -0.0095                  4.645892877596172
0.0025                    -0.0085                  4.647493759766535
0.0025                    -0.0075                  4.654038835248971
0.0025                    -0.0065                  4.663939227127759
0.0025                    -0.0055                  4.675438209821763
0.0025                    -0.0045                  4.68690816384173
0.0025                    -0.0035                  4.696912201677871
0.0025                    -0.0025                  4.704232191069318
0.0025                    -0.0015                  4.708009514782721
0.0025                    -5.0E-4                  4.707963422719582
0.0025                    5.0E-4                   4.704560749733884
0.0025                    0.0015                   4.699080429783534
0.0025                    0.0025                   4.693444738759337
0.0025                    0.0035                   4.689916451868953
0.0025                    0.0045                   4.690584863415852
0.0025                    0.0055                   4.696534918969768
0.0025                    0.0065                   4.7071551013355455
0.0025                    0.0075                   4.719879785258329
0.0025                    0.0085                   4.7303972361628865
0.0025                    0.0095                   4.733637989895369
0.0025                    0.0105                   4.725797048002279
0.0025                    0.0115                   4.706255819372022
0.0025                    0.0125                   4.678497254395821
0.0025                    0.0135                   4.64830526924761
0.0025                    0.0145                   4.621611548215016
0.0025                    0.0155                   4.602712072925657
0.0025                    0.0165                   4.592647297795636
0.0025                    0.0175                   4.593641325379858
0.0025                    0.0185                   4.6180172917055105
0.0025                    0.0195                   4.71400932352091
0.0025                    0.0205                   4.9228068284469835
0.0025                    0.0215                   5.151620134782028
0.0025                    0.0225                   5.280888878501605
0.0025                    0.0235                   5.29169851368253
0.0025                    0.0245                   5.221494981524766
0.0025                    0.0255                   5.130486483512426
0.0025                    0.0265                   5.0617073274542825
0.0025                    0.0275                   5.029005039611658
0.0025                    0.0285                   5.020324735452257
0.0025                    0.0295                   5.018387748592928
0.0025                    0.0305                   5.016289419726998
0.0025                    0.0315                   5.014554672830183
0.0035                    -0.0315                  3.8851552422188185
0.0035                    -0.0305                  3.9244871674037567
0.0035                    -0.0295                  3.99169852800114
0.0035                    -0.0285                  4.0746543883389545
0.0035                    -0.0275                  4.16438509621013
0.0035                    -0.0265                  4.255354020125151
0.0035                    -0.0255                  4.344262012362437
0.0035                    -0.0245                  4.428563551011029
0.0035                    -0.0235                  4.505335186738716
0.0035                    -0.0225                  4.570912959642144
0.0035                    -0.0215                  4.621883384014444
0.0035                    -0.0205                  4.657815086810317
0.0035                    -0.0195                  4.681020785226013
0.0035                    -0.0185                  4.696166393272372
0.0035                    -0.0175                  4.706305465754176
0.0035                    -0.0165                  4.708611540290548
0.0035                    -0.0155                  4.699440673212423
0.0035                    -0.0145                  4.679864098731111
0.0035                    -0.0135                  4.655248805651432
0.0035                    -0.0125                  4.631921448534576
0.0035                    -0.0115                  4.614897256884873
0.0035                    -0.0105                  4.6070643967248825
0.0035                    -0.0095                  4.608807101753561
0.0035                    -0.0085                  4.618294880144288
0.0035                    -0.0075                  4.633045500193031
0.0035                    -0.0065                  4.650740615648223
0.0035                    -0.0055                  4.669499754558218
0.0035                    -0.0045                  4.687632868291971
0.0035                    -0.0035                  4.703355370807258
0.0035                    -0.0025                  4.714733435446747
0.0035                    -0.0015                  4.719976168294991
0.0035                    -5.0E-4                  4.718104162877086
0.0035                    5.0E-4                   4.709533800491883
0.0035                    0.0015                   4.6961536739369185
0.0035                    0.0025                   4.680934743193799
0.0035                    0.0035                   4.6673563706592125
0.0035                    0.0045                   4.6585989347027805
0.0035                    0.0055                   4.656651953380521
0.0035                    0.0065                   4.661717571038689
0.0035                    0.0075                   4.672088708285295
0.0035                    0.0085                   4.6846489222014505
0.0035                    0.0095                   4.6954804475461325
0.0035                    0.0105                   4.700619559686283
0.0035                    0.0115                   4.697752118221705
0.0035                    0.0125                   4.687368776308464
0.0035                    0.0135                   4.672601808908988
0.0035                    0.0145                   4.65867075354595
0.0035                    0.0155                   4.651672859070334
0.0035                    0.0165                   4.658624143085008
0.0035                    0.0175                   4.691571854747145
0.0035                    0.0185                   4.773928099323359
0.0035                    0.0195                   4.936252308750936
0.0035                    0.0205                   5.1607649736370815
0.0035                    0.0215                   5.361137638282274
0.0035                    0.0225                   5.4609294022762045
0.0035                    0.0235                   5.437693174320252
0.0035                    0.0245                   5.323879794642478
0.0035                    0.0255                   5.187423580605014
0.0035                    0.0265                   5.085299928006261
0.0035                    0.0275                   5.035590891246564
0.0035                    0.0285                   5.020753104602777
0.0035                    0.0295                   5.016919113503619
0.0035                    0.0305                   5.0140463222557825
0.0035                    0.0315                   5.012255749608784
0.0045                    -0.0315                  3.8216054336926306
0.0045                    -0.0305                  3.8618342937300034
0.0045                    -0.0295                  3.9325486903906506
0.0045                    -0.0285                  4.022812986863688
0.0045                    -0.0275                  4.123158911087149
0.0045                    -0.0265                  4.2260593392152375
0.0045                    -0.0255                  4.325846798203253
0.0045                    -0.0245                  4.417956081838876
0.0045                    -0.0235                  4.4980653373110435
0.0045                    -0.0225                  4.562067229119584
0.0045                    -0.0215                  4.608420238380733
0.0045                    -0.0205                  4.639915331344174
0.0045                    -0.0195                  4.662049218087049
0.0045                    -0.0185                  4.679505400402187
0.0045                    -0.0175                  4.690472727624652
0.0045                    -0.0165                  4.687089163159234
0.0045                    -0.0155                  4.665819095171859
0.0045                    -0.0145                  4.632920535478842
0.0045                    -0.0135                  4.5987008683165715
0.0045                    -0.0125                  4.57250456579666
0.0045                    -0.0115                  4.560067374580235
0.0045                    -0.0105                  4.561638670069783
0.0045                    -0.0095                  4.574074112602816
0.0045                    -0.0085                  4.59341740474276
0.0045                    -0.0075                  4.616448951262189
0.0045                    -0.0065                  4.64105250951299
0.0045                    -0.0055                  4.66583303764415
0.0045                    -0.0045                  4.689437964555726
0.0045                    -0.0035                  4.70994497424466
0.0045                    -0.0025                  4.724706849315865
0.0045                    -0.0015                  4.730930510647175
0.0045                    -5.0E-4                  4.726919759812729
0.0045                    5.0E-4                   4.713130061978836
0.0045                    0.0015                   4.692242477518169
0.0045                    0.0025                   4.668437236196107
0.0045                    0.0035                   4.646429411608935
0.0045                    0.0045                   4.63033344698686
0.0045                    0.0055                   4.622661365021644
0.0045                    0.0065                   4.623902310640981
0.0045                    0.0075                   4.632764855548821
0.0045                    0.0085                   4.647008117494484
0.0045                    0.0095                   4.664016860961007
0.0045                    0.0105                   4.68099669296407
0.0045                    0.0115                   4.695995718507
0.0045                    0.0125                   4.708691618445499
0.0045                    0.0135                   4.720597168364426
0.0045                    0.0145                   4.735512554113027
0.0045                    0.0155                   4.759873124071607
0.0045                    0.0165                   4.8037062535789365
0.0045                    0.0175                   4.880699014214859
0.0045                    0.0185                   5.004074689245942
0.0045                    0.0195                   5.175479040945355
0.0045                    0.0205                   5.366603820010424
0.0045                    0.0215                   5.524682827868277
0.0045                    0.0225                   5.596392213342072
0.0045                    0.0235                   5.547514004486695
0.0045                    0.0245                   5.392660044178063
0.0045                    0.0255                   5.21053259271228
0.0045                    0.0265                   5.082534228017371
0.0045                    0.0275                   5.025469409626757
0.0045                    0.0285                   5.011427539544837
0.0045                    0.0295                   5.010897333979149
0.0045                    0.0305                   5.010567551604757
0.0045                    0.0315                   5.010014583685258
0.0055                    -0.0315                  3.7544532511201565
0.0055                    -0.0305                  3.796607544483389
0.0055                    -0.0295                  3.871633835522194
0.0055                    -0.0285                  3.9689754237745767
0.0055                    -0.0275                  4.078851548284235
0.0055                    -0.0265                  4.192395466577958
0.0055                    -0.0255                  4.3017544069880875
0.0055                    -0.0245                  4.400077424330721
0.0055                    -0.0235                  4.4817184716417255
0.0055                    -0.0225                  4.542994496705546
0.0055                    -0.0215                  4.584992131507281
0.0055                    -0.0205                  4.612797415593489
0.0055                    -0.0195                  4.633570736217226
0.0055                    -0.0185                  4.651041468601153
0.0055                    -0.0175                  4.658235439457689
0.0055                    -0.0165                  4.644932575972768
0.0055                    -0.0155                  4.6116476231959425
0.0055                    -0.0145                  4.570004926602492
0.0055                    -0.0135                  4.534482996042916
0.0055                    -0.0125                  4.516031828717778
0.0055                    -0.0115                  4.5167550599644475
0.0055                    -0.0105                  4.531506434483031
0.0055                    -0.0095                  4.554120539062941
0.0055                    -0.0085                  4.5805288214718765
0.0055                    -0.0075                  4.608408089322184
0.0055                    -0.0065                  4.63645676377658
0.0055                    -0.0055                  4.663895477203418
0.0055                    -0.0045                  4.6897541704662755
0.0055                    -0.0035                  4.712186348433086
0.0055                    -0.0025                  4.728226291982034
0.0055                    -0.0015                  4.73452349553586
0.0055                    -5.0E-4                  4.729030079096824
0.0055                    5.0E-4                   4.712385486834967
0.0055                    0.0015                   4.687761858245657
0.0055                    0.0025                   4.65981282049552
0.0055                    0.0035                   4.633834458907683
0.0055                    0.0045                   4.614605758691576
0.0055                    0.0055                   4.6049326878288355
0.0055                    0.0065                   4.605252972402967
0.0055                    0.0075                   4.614301754470443
0.0055                    0.0085                   4.629893747751121
0.0055                    0.0095                   4.649827725232116
0.0055                    0.0105                   4.672745667503314
0.0055                    0.0115                   4.698858057010749
0.0055                    0.0125                   4.72977396399305
0.0055                    0.0135                   4.767778341249722
0.0055                    0.0145                   4.815928191369538
0.0055                    0.0155                   4.878377752759088
0.0055                    0.0165                   4.960116648545185
0.0055                    0.0175                   5.065499349018702
0.0055                    0.0185                   5.194428675416908
0.0055                    0.0195                   5.338450243827793
0.0055                    0.0205                   5.4789628439064
0.0055                    0.0215                   5.589597150089336
0.0055                    0.0225                   5.631935443289581
0.0055                    0.0235                   5.559394396517028
0.0055                    0.0245                   5.366769275475531
0.0055                    0.0255                   5.152435667677967
0.0055                    0.0265                   5.021530246691244
0.0055                    0.0275                   4.977308279772637
0.0055                    0.0285                   4.978685565984803
0.0055                    0.0295                   4.993115642116892
0.0055                    0.0305                   5.003276946986613
0.0055                    0.0315                   5.006584376627236
0.0065                    -0.0315                  3.683792937333453
0.0065                    -0.0305                  3.7283786080717016
0.0065                    -0.0295                  3.8081790582199146
0.0065                    -0.0285                  3.91247333062665
0.0065                    -0.0275                  4.031026651525025
0.0065                    -0.0265                  4.153958464713956
0.0065                    -0.0255                  4.27169169475242
0.0065                    -0.0245                  4.375210565177168
0.0065                    -0.0235                  4.457433847796297
0.0065                    -0.0225                  4.5156257271911
0.0065                    -0.0215                  4.553597135103503
0.0065                    -0.0205                  4.578407054657868
0.0065                    -0.0195                  4.597283976007986
0.0065                    -0.0185                  4.611631589824735
0.0065                    -0.0175                  4.611369284667621
0.0065                    -0.0165                  4.588286047444072
0.0065                    -0.0155                  4.547903919004564
0.0065                    -0.0145                  4.506578092274815
0.0065                    -0.0135                  4.481336768125606
0.0065                    -0.0125                  4.478126691956957
0.0065                    -0.0115                  4.4918342992637825
0.0065                    -0.0105                  4.515307705269438
0.0065                    -0.0095                  4.543724317911573
0.0065                    -0.0085                  4.573988506607425
0.0065                    -0.0075                  4.604240774223252
0.0065                    -0.0065                  4.633594662721096
0.0065                    -0.0055                  4.661566273626607
0.0065                    -0.0045                  4.687348561061958
0.0065                    -0.0035                  4.709139845647352
0.0065                    -0.0025                  4.723888836434471
0.0065                    -0.0015                  4.728349389028694
0.0065                    -5.0E-4                  4.721135114086344
0.0065                    5.0E-4                   4.703442002418686
0.0065                    0.0015                   4.6780526611148
0.0065                    0.0025                   4.649165056270102
0.0065                    0.0035                   4.6225462325026765
0.0065                    0.0045                   4.603527284774545
0.0065                    0.0055                   4.594965319200557
0.0065                    0.0065                   4.5972124150258145
0.0065                    0.0075                   4.60853374698986
0.0065                    0.0085                   4.6260856650426625
0.0065                    0.0095                   4.647671006873948
0.0065                    0.0105                   4.673008109858043
0.0065                    0.0115                   4.704132327893998
0.0065                    0.0125                   4.744290743585823
0.0065                    0.0135                   4.796892699093821