% Model:              Benchmark260518.mph
% Version:            COMSOL 6.2.0.339
% Date:               May 19 2026, 03:39
% Dimension:          2
% Nodes:              4096
% Expressions:        1
% Description:        压力
% Length unit:        m
% x                       y                        p (Pa)
% mirrored_by_python_y_to_minus_y, coord_match_decimals=12
0.0005 -0.0315 4.37608355673
0.0005 -0.0305 4.40061289956
0.0005 -0.0295 4.43393829526
0.0005 -0.0285 4.47018845756
0.0005 -0.0275 4.50807663753
0.0005 -0.0265 4.54718626284
0.0005 -0.0255 4.58732486842
0.0005 -0.0245 4.62847926209
0.0005 -0.0235 4.67076254593
0.0005 -0.0225 4.71436588655
0.0005 -0.0215 4.75953632842
0.0005 -0.0205 4.80643708435
0.0005 -0.0195 4.85407600699
0.0005 -0.0185 4.8992038357
0.0005 -0.0175 4.93774693787
0.0005 -0.0165 4.96503722435
0.0005 -0.0155 4.97969608922
0.0005 -0.0145 4.98535903882
0.0005 -0.0135 4.98469580539
0.0005 -0.0125 4.98277095703
0.0005 -0.0115 4.99148769013
0.0005 -0.0105 5.01800614772
0.0005 -0.0095 5.05454630783
0.0005 -0.0085 5.08495971191
0.0005 -0.0075 5.0896423573
0.0005 -0.0065 5.05027822763
0.0005 -0.0055 4.95031698159
0.0005 -0.0045 4.817841386
0.0005 -0.0035 4.74246991651
0.0005 -0.0025 4.74322019566
0.0005 -0.0015 4.76464965182
0.0005 -0.0005 4.78372677237
0.0005 0.0005 4.7993790615
0.0005 0.0015 4.81111526621
0.0005 0.0025 4.81930294163
0.0005 0.0035 4.82534024155
0.0005 0.0045 4.83052104514
0.0005 0.0055 4.83518777277
0.0005 0.0065 4.83878103776
0.0005 0.0075 4.84045673903
0.0005 0.0085 4.83895752478
0.0005 0.0095 4.83203212904
0.0005 0.0105 4.81520403478
0.0005 0.0115 4.78322123763
0.0005 0.0125 4.73700598038
0.0005 0.0135 4.68190494046
0.0005 0.0145 4.62287338212
0.0005 0.0155 4.56364498271
0.0005 0.0165 4.50513278282
0.0005 0.0175 4.44720990142
0.0005 0.0185 4.38976178697
0.0005 0.0195 4.33265708757
0.0005 0.0205 4.27582352987
0.0005 0.0215 4.21923647706
0.0005 0.0225 4.16292632546
0.0005 0.0235 4.10698035277
0.0005 0.0245 4.05152947797
0.0005 0.0255 3.9967608941
0.0005 0.0265 3.94290410676
0.0005 0.0275 3.89022025558
0.0005 0.0285 3.83913862341
0.0005 0.0295 3.79027827247
0.0005 0.0305 3.74532392568
0.0005 0.0315 3.71229331546
0.0015 -0.0315 4.35136635522
0.0015 -0.0305 4.37603618355
0.0015 -0.0295 4.41183670177
0.0015 -0.0285 4.45087847183
0.0015 -0.0275 4.49091860224
0.0015 -0.0265 4.53140206099
0.0015 -0.0255 4.57221009876
0.0015 -0.0245 4.6134418014
0.0015 -0.0235 4.65541466227
0.0015 -0.0225 4.69869863011
0.0015 -0.0215 4.74409477158
0.0015 -0.0205 4.79225099274
0.0015 -0.0195 4.84248985919
0.0015 -0.0185 4.89136724116
0.0015 -0.0175 4.93388942685
0.0015 -0.0165 4.9638408791
0.0015 -0.0155 4.98004219338
0.0015 -0.0145 4.98712648832
0.0015 -0.0135 4.98833249194
0.0015 -0.0125 4.98900905263
0.0015 -0.0115 5.0053260503
0.0015 -0.0105 5.04638906829
0.0015 -0.0095 5.10020822759
0.0015 -0.0085 5.14705911719
0.0015 -0.0075 5.16445238571
0.0015 -0.0065 5.13253019645
0.0015 -0.0055 5.03818394134
0.0015 -0.0045 4.89180046569
0.0015 -0.0035 4.78916080375
0.0015 -0.0025 4.76739994956
0.0015 -0.0015 4.77235263524
0.0015 -0.0005 4.78557263381
0.0015 0.0005 4.79800021802
0.0015 0.0015 4.80771828591
0.0015 0.0025 4.81513121093
0.0015 0.0035 4.82173936164
0.0015 0.0045 4.82847346994
0.0015 0.0055 4.83484829783
0.0015 0.0065 4.8395886508
0.0015 0.0075 4.84171665162
0.0015 0.0085 4.84000883818
0.0015 0.0095 4.83271831262
0.0015 0.0105 4.81626220988
0.0015 0.0115 4.78435077138
0.0015 0.0125 4.73685037934
0.0015 0.0135 4.67982525365
0.0015 0.0145 4.61884041856
0.0015 0.0155 4.55799376307
0.0015 0.0165 4.49845471293
0.0015 0.0175 4.4399399967
0.0015 0.0185 4.38194088455
0.0015 0.0195 4.32412198229
0.0015 0.0205 4.2663061676
0.0015 0.0215 4.2084464665
0.0015 0.0225 4.15060598968
0.0015 0.0235 4.09293087432
0.0015 0.0245 4.0356105483
0.0015 0.0255 3.97882788967
0.0015 0.0265 3.92272120323
0.0015 0.0275 3.8674113114
0.0015 0.0285 3.8130844269
0.0015 0.0295 3.76036126592
0.0015 0.0305 3.71213353399
0.0015 0.0315 3.67900480479
0.0025 -0.0315 4.31740004102
0.0025 -0.0305 4.34003473388
0.0025 -0.0295 4.37614724489
0.0025 -0.0285 4.41757542687
0.0025 -0.0275 4.46027843755
0.0025 -0.0265 4.50278317702
0.0025 -0.0255 4.5446805953
0.0025 -0.0245 4.58605303223
0.0025 -0.0235 4.62739561192
0.0025 -0.0225 4.66965759727
0.0025 -0.0215 4.71416485765
0.0025 -0.0205 4.76217498354
0.0025 -0.0195 4.81365516596
0.0025 -0.0185 4.86561638526
0.0025 -0.0175 4.91338884137
0.0025 -0.0165 4.95014590696
0.0025 -0.0155 4.97351041782
0.0025 -0.0145 4.98626688346
0.0025 -0.0135 4.99114096586
0.0025 -0.0125 4.99857993084
0.0025 -0.0115 5.02682283384
0.0025 -0.0105 5.0830727313
0.0025 -0.0095 5.15445237097
0.0025 -0.0085 5.21761404936
0.0025 -0.0075 5.24817096765
0.0025 -0.0065 5.22912789808
0.0025 -0.0055 5.15557769265
0.0025 -0.0045 5.03858198252
0.0025 -0.0035 4.92037433307
0.0025 -0.0025 4.84604350469
0.0025 -0.0015 4.81423326619
0.0025 -0.0005 4.80165307104
0.0025 0.0005 4.79575598085
0.0025 0.0015 4.7927465794
0.0025 0.0025 4.79331758245
0.0025 0.0035 4.79876477105
0.0025 0.0045 4.80903909686
0.0025 0.0055 4.82207762224
0.0025 0.0065 4.83397091726
0.0025 0.0075 4.84040244264
0.0025 0.0085 4.83834731369
0.0025 0.0095 4.8271652565
0.0025 0.0105 4.80651333165
0.0025 0.0115 4.77224851382
0.0025 0.0125 4.72409348957
0.0025 0.0135 4.66719316436
0.0025 0.0145 4.6062545898
0.0025 0.0155 4.54513273796
0.0025 0.0165 4.48505140353
0.0025 0.0175 4.42577397325
0.0025 0.0185 4.3667002241
0.0025 0.0195 4.30735066418
0.0025 0.0205 4.24748105641
0.0025 0.0215 4.18707903274
0.0025 0.0225 4.12633058389
0.0025 0.0235 4.06553645816
0.0025 0.0245 4.00499099096
0.0025 0.0255 3.94487640933
0.0025 0.0265 3.88524091576
0.0025 0.0275 3.826096218
0.0025 0.0285 3.76775354879
0.0025 0.0295 3.71182397272
0.0025 0.0305 3.66341033607
0.0025 0.0315 3.63325824079
0.0035 -0.0315 4.28005059372
0.0035 -0.0305 4.30038709169
0.0035 -0.0295 4.33489607386
0.0035 -0.0285 4.37680371423
0.0035 -0.0275 4.42128666754
0.0035 -0.0265 4.46568093585
0.0035 -0.0255 4.50882204208
0.0035 -0.0245 4.55043167426
0.0035 -0.0235 4.59088981644
0.0035 -0.0225 4.63120065133
0.0035 -0.0215 4.67287935831
0.0035 -0.0205 4.71753738958
0.0035 -0.0195 4.76609878638
0.0035 -0.0185 4.81765281663
0.0035 -0.0175 4.86962428781
0.0035 -0.0165 4.91593879327
0.0035 -0.0155 4.95063513625
0.0035 -0.0145 4.97068773332
0.0035 -0.0135 4.97904044863
0.0035 -0.0125 4.99249913054
0.0035 -0.0115 5.03311737787
0.0035 -0.0105 5.10713131548
0.0035 -0.0095 5.19776334843
0.0035 -0.0085 5.27585557169
0.0035 -0.0075 5.31624840167
0.0035 -0.0065 5.30794390006
0.0035 -0.0055 5.25284878193
0.0035 -0.0045 5.16169761697
0.0035 -0.0035 5.05657374942
0.0035 -0.0025 4.96272972526
0.0035 -0.0015 4.88967185002
0.0035 -0.0005 4.83339972958
0.0035 0.0005 4.78961972107
0.0035 0.0015 4.75835450172
0.0035 0.0025 4.7418435943
0.0035 0.0035 4.74116951875
0.0035 0.0045 4.75465727582
0.0035 0.0055 4.77776535659
0.0035 0.0065 4.80328611604
0.0035 0.0075 4.82160512971
0.0035 0.0085 4.82368454291
0.0035 0.0095 4.80798534282
0.0035 0.0105 4.7794909697
0.0035 0.0115 4.74062467324
0.0035 0.0125 4.69322012751
0.0035 0.0135 4.6401351639
0.0035 0.0145 4.58326750915
0.0035 0.0155 4.52473849534
0.0035 0.0165 4.4655025863
0.0035 0.0175 4.40569247934
0.0035 0.0185 4.34505049177
0.0035 0.0195 4.2832628338
0.0035 0.0205 4.22021461805
0.0035 0.0215 4.15611309423
0.0035 0.0225 4.09142816715
0.0035 0.0235 4.02670327846
0.0035 0.0245 3.96234593252
0.0035 0.0255 3.8985233808
0.0035 0.0265 3.83524024201
0.0035 0.0275 3.77265725397
0.0035 0.0285 3.71176855024
0.0035 0.0295 3.65550388807
0.0035 0.0305 3.60976460954
0.0035 0.0315 3.58311487626
0.0045 -0.0315 4.24079074789
0.0045 -0.0305 4.25935125735
0.0045 -0.0295 4.29197224149
0.0045 -0.0285 4.33315136698
0.0045 -0.0275 4.37826794176
0.0045 -0.0265 4.42399253605
0.0045 -0.0255 4.46830781819
0.0045 -0.0245 4.51025549753
0.0045 -0.0235 4.5497136212
0.0045 -0.0225 4.58734071552
0.0045 -0.0215 4.62452322382
0.0045 -0.0205 4.66314445374
0.0045 -0.0195 4.70511235572
0.0045 -0.0185 4.75209233926
0.0045 -0.0175 4.80422716686
0.0045 -0.0165 4.85712759915
0.0045 -0.0155 4.90060590981
0.0045 -0.0145 4.92489432217
0.0045 -0.0135 4.93459735544
0.0045 -0.0125 4.95262388953
0.0045 -0.0115 5.00472392178
0.0045 -0.0105 5.09741980906
0.0045 -0.0095 5.2080011059
0.0045 -0.0085 5.29901683892
0.0045 -0.0075 5.34525570941
0.0045 -0.0065 5.34361901778
0.0045 -0.0055 5.30314727439
0.0045 -0.0045 5.2351719018
0.0045 -0.0035 5.1499128014
0.0045 -0.0025 5.05552969546
0.0045 -0.0015 4.95763096477
0.0045 -0.0005 4.86256250721
0.0045 0.0005 4.78003243231
0.0045 0.0015 4.71830018782
0.0045 0.0025 4.68060646179
0.0045 0.0035 4.66685147492
0.0045 0.0045 4.67548699677
0.0045 0.0055 4.7029006308
0.0045 0.0065 4.73978089656
0.0045 0.0075 4.77138486331
0.0045 0.0085 4.78256837166
0.0045 0.0095 4.76716432903
0.0045 0.0105 4.73305167928
0.0045 0.0115 4.69168045438
0.0045 0.0125 4.64797913992
0.0045 0.0135 4.60184141395
0.0045 0.0145 4.55201081285
0.0045 0.0155 4.49814256601
0.0045 0.0165 4.44081875345
0.0045 0.0175 4.38062303716
0.0045 0.0185 4.31782056355
0.0045 0.0195 4.25254143768
0.0045 0.0205 4.18516430117
0.0045 0.0215 4.11643633523
0.0045 0.0225 4.04728932419
0.0045 0.0235 3.97851304979
0.0045 0.0245 3.91053201884
0.0045 0.0255 3.84342544514
0.0045 0.0265 3.77723825324
0.0045 0.0275 3.71254398618
0.0045 0.0285 3.65114156265
0.0045 0.0295 3.59659332226
0.0045 0.0305 3.55424146521
0.0045 0.0315 3.5305459999
0.0055 -0.0315 4.20007617308
0.0055 -0.0305 4.21749553833
0.0055 -0.0295 4.24868983429
0.0055 -0.0285 4.28898036967
0.0055 -0.0275 4.33414479482
0.0055 -0.0265 4.38069167653
0.0055 -0.0255 4.42600385917
0.0055 -0.0245 4.46836971131
0.0055 -0.0235 4.50693042028
0.0055 -0.0225 4.54172907688
0.0055 -0.0215 4.57390744804
0.0055 -0.0205 4.60572289317
0.0055 -0.0195 4.64031697284
0.0055 -0.0185 4.68071327549
0.0055 -0.0175 4.72852279327
0.0055 -0.0165 4.7800618528
0.0055 -0.0155 4.82374909265
0.0055 -0.0145 4.84805129068
0.0055 -0.0135 4.85937712444
0.0055 -0.0125 4.88370762272
0.0055 -0.0115 4.94618247092
0.0055 -0.0105 5.05303172631
0.0055 -0.0095 5.17901407482
0.0055 -0.0085 5.28060242068
0.0055 -0.0075 5.33203364711
0.0055 -0.0065 5.33594804609
0.0055 -0.0055 5.30632333792
0.0055 -0.0045 5.25460461537
0.0055 -0.0035 5.18564883194
0.0055 -0.0025 5.09858201566
0.0055 -0.0015 4.9931334794
0.0055 -0.0005 4.87890755508
0.0055 0.0005 4.77447208985
0.0055 0.0015 4.6944149882
0.0055 0.0025 4.6424701067
0.0055 0.0035 4.61555240659
0.0055 0.0045 4.61071860815
0.0055 0.0055 4.62763564153
0.0055 0.0065 4.66176627367
0.0055 0.0075 4.6980581457
0.0055 0.0085 4.71644094817
0.0055 0.0095 4.70589364839
0.0055 0.0105 4.67393159549
0.0055 0.0115 4.63570352998
0.0055 0.0125 4.59809601123
0.0055 0.0135 4.55971694467
0.0055 0.0145 4.51702687323
0.0055 0.0155 4.46793536823
0.0055 0.0165 4.41246823286
0.0055 0.0175 4.3513875441
0.0055 0.0185 4.28534165725
0.0055 0.0195 4.21523756272
0.0055 0.0205 4.14244999795
0.0055 0.0215 4.068636688
0.0055 0.0225 3.99522894061
0.0055 0.0235 3.92305468759
0.0055 0.0245 3.85228753843
0.0055 0.0255 3.78280073748
0.0055 0.0265 3.71478409185
0.0055 0.0275 3.64934037991
0.0055 0.0285 3.58881505874
0.0055 0.0295 3.53674427154
0.0055 0.0305 3.49758506083
0.0055 0.0315 3.47623795227
0.0065 -0.0315 4.15804330636
0.0065 -0.0305 4.17490100288
0.0065 -0.0295 4.20537067439
0.0065 -0.0285 4.24522479261
0.0065 -0.0275 4.29051943896
0.0065 -0.0265 4.33775028056
0.0065 -0.0255 4.3839520204
0.0065 -0.0245 4.42681549236
0.0065 -0.0235 4.46478355509
0.0065 -0.0225 4.49732766384
0.0065 -0.0215 4.52539155846
0.0065 -0.0205 4.55185138334
0.0065 -0.0195 4.5808308064
0.0065 -0.0185 4.61546094396
0.0065 -0.0175 4.65630514882
0.0065 -0.0165 4.69978698252
0.0065 -0.0155 4.73735010833
0.0065 -0.0145 4.76093640626
0.0065 -0.0135 4.7791240527
0.0065 -0.0125 4.81357719254
0.0065 -0.0115 4.88099427072
0.0065 -0.0105 4.98989131753
0.0065 -0.0095 5.12219114699
0.0065 -0.0085 5.23356332461
0.0065 -0.0075 5.29416051706
0.0065 -0.0065 5.3057629241
0.0065 -0.0055 5.28451139229
0.0065 -0.0045 5.24291742959
0.0065 -0.0035 5.18462375185
0.0065 -0.0025 5.10704826956
0.0065 -0.0015 5.00636550904
0.0065 -0.0005 4.88878634832
0.0065 0.0005 4.77492940153
0.0065 0.0015 4.68512743852
0.0065 0.0025 4.62660838203
0.0065 0.0035 4.59380450218
0.0065 0.0045 4.57849780071
0.0065 0.0055 4.57896272462
0.0065 0.0065 4.59712033165
0.0065 0.0075 4.62597623482
0.0065 0.0085 4.6453357424
0.0065 0.0095 4.64015008564
0.0065 0.0105 4.61559799856
0.0065 0.0115 4.5846430369
0.0065 0.0125 4.55352604363
0.0065 0.0135 4.52102009211
0.0065 0.0145 4.48315838628
0.0065 0.0155 4.43730844721
0.0065 0.0165 4.38235444859
0.0065 0.0175 4.31859862117
0.0065 0.0185 4.2473137459
0.0065 0.0195 4.17071575076
0.0065 0.0205 4.09182576899
0.0065 0.0215 4.01333933699
0.0065 0.0225 3.93684403955
0.0065 0.0235 3.86263357074
0.0065 0.0245 3.79021470543
0.0065 0.0255 3.71922791331
0.0065 0.0265 3.65020949034
0.0065 0.0275 3.584851408
0.0065 0.0285 3.52580346813
0.0065 0.0295 3.47630905366
0.0065 0.0305 3.43997835022
0.0065 0.0315 3.42053901325
0.0075 -0.0315 4.114658231
0.0075 -0.0305 4.13147968198
0.0075 -0.0295 4.16198744357
0.0075 -0.0285 4.20213083531
0.0075 -0.0275 4.24806079397
0.0075 -0.0265 4.29621694174
0.0075 -0.0255 4.34338212367
0.0075 -0.0245 4.38683435326
0.0075 -0.0235 4.42458370381
0.0075 -0.0225 4.45575815053
0.0075 -0.0215 4.48162616229
0.0075 -0.0205 4.50549443361
0.0075 -0.0195 4.53093231705
0.0075 -0.0185 4.56054117259
0.0075 -0.0175 4.59362036254
0.0075 -0.0165 4.62812202824
0.0075 -0.0155 4.65983965872
0.0075 -0.0145 4.68495291889
0.0075 -0.0135 4.71166959433
0.0075 -0.0125 4.75282624546
0.0075 -0.0115 4.81909081283
0.0075 -0.0105 4.92169784427
0.0075 -0.0095 5.04981525317
0.0075 -0.0085 5.16574285337
0.0075 -0.0075 5.23873556677
0.0075 -0.0065 5.26375089418
0.0075 -0.0055 5.25344704189
0.0075 -0.0045 5.22050711923
0.0075 -0.0035 5.1695530484
0.0075 -0.0025 5.09958681604
0.0075 -0.0015 5.00573625167
0.0075 -0.0005 4.89051121157
0.0075 0.0005 4.7732008105
0.0075 0.0015 4.6776303844
0.0075 0.0025 4.61542534066
0.0075 0.0035 4.58104755611
0.0075 0.0045 4.56260743431
0.0075 0.0055 4.55450931081
0.0075 0.0065 4.55823396708
0.0075 0.0075 4.57373186555
0.0075 0.0085 4.58906139373
0.0075 0.0095 4.58771853697
0.0075 0.0105 4.5693468561
0.0075 0.0115 4.54484465918
0.0075 0.0125 4.51900153587
0.0075 0.0135 4.48989715839
0.0075 0.0145 4.45363083648
0.0075 0.0155 4.40810460523
0.0075 0.0165 4.35133521377
0.0075 0.0175 4.2819682103
0.0075 0.0185 4.20251096045
0.0075 0.0195 4.1178848966
0.0075 0.0205 4.03319565792
0.0075 0.0215 3.9517812391
0.0075 0.0225 3.87434638965
0.0075 0.0235 3.79969392518
0.0075 0.0245 3.72642587865
0.0075 0.0255 3.65430561811
0.0075 0.0265 3.58461318922
0.0075 0.0275 3.51969042522
0.0075 0.0285 3.4623143082
0.0075 0.0295 3.41530942527
0.0075 0.0305 3.38149761107
0.0075 0.0315 3.36366951854
0.0085 -0.0315 4.06977197916
0.0085 -0.0305 4.08707173653
0.0085 -0.0295 4.11839914347
0.0085 -0.0285 4.15965059729
0.0085 -0.0275 4.2068979268
0.0085 -0.0265 4.25643122286
0.0085 -0.0255 4.30478926278
0.0085 -0.0245 4.3489255369
0.0085 -0.0235 4.38665488382
0.0085 -0.0225 4.41727909866
0.0085 -0.0215 4.44280408502
0.0085 -0.0205 4.46590105148
0.0085 -0.0195 4.48898360377
0.0085 -0.0185 4.51392295743
0.0085 -0.0175 4.54014030634
0.0085 -0.0165 4.56804021515
0.0085 -0.0155 4.59616551844
0.0085 -0.0145 4.62319267078
0.0085 -0.0135 4.65377719575
0.0085 -0.0125 4.69518831902
0.0085 -0.0115 4.75868537175
0.0085 -0.0105 4.8528851807
0.0085 -0.0095 4.96841215665
0.0085 -0.0085 5.07946048288
0.0085 -0.0075 5.16088394781
0.0085 -0.0065 5.2014434368
0.0085 -0.0055 5.20554306208
0.0085 -0.0045 5.18261893038
0.0085 -0.0035 5.13790428615
0.0085 -0.0025 5.07216663362
0.0085 -0.0015 4.98307509228
0.0085 -0.0005 4.87393449488
0.0085 0.0005 4.76119963132
0.0085 0.0015 4.66664753153
0.0085 0.0025 4.60316560055
0.0085 0.0035 4.56792932364
0.0085 0.0045 4.54946448124
0.0085 0.0055 4.53951337804
0.0085 0.0065 4.53687422581
0.0085 0.0075 4.54331997999
0.0085 0.0085 4.55483598438
0.0085 0.0095 4.55725223036
0.0085 0.0105 4.54316544439
0.0085 0.0115 4.52062048697
0.0085 0.0125 4.4961193686
0.0085 0.0135 4.4675748292
0.0085 0.0145 4.42995005775
0.0085 0.0155 4.38064659554
0.0085 0.0165 4.31765916007
0.0085 0.0175 4.23895798946
0.0085 0.0185 4.14881949701
0.0085 0.0195 4.05600105946
0.0085 0.0205 3.96770226515
0.0085 0.0215 3.88653071927
0.0085 0.0225 3.81047669264
0.0085 0.0235 3.73619931615
0.0085 0.0245 3.66195124935
0.0085 0.0255 3.58849200798
0.0085 0.0265 3.51823105487
0.0085 0.0275 3.45401054503
0.0085 0.0285 3.39844805448
0.0085 0.0295 3.35381638792
0.0085 0.0305 3.32222995616
0.0085 0.0315 3.30576242799
0.0095 -0.0315 4.02317119922
0.0095 -0.0305 4.0415084002
0.0095 -0.0295 4.07444555075
0.0095 -0.0285 4.11761392966
0.0095 -0.0275 4.16686174588
0.0095 -0.0265 4.21824346252
0.0095 -0.0255 4.26803265181
0.0095 -0.0245 4.31292210017
0.0095 -0.0235 4.3505723831
0.0095 -0.0225 4.38100020646
0.0095 -0.0215 4.40641331708
0.0095 -0.0205 4.42895736996
0.0095 -0.0195 4.45065578122
0.0095 -0.0185 4.47185371301
0.0095 -0.0175 4.49296234933
0.0095 -0.0165 4.51638960508
0.0095 -0.0155 4.54183024657
0.0095 -0.0145 4.56873438676
0.0095 -0.0135 4.59970232296
0.0095 -0.0125 4.63977970754
0.0095 -0.0115 4.69874085339
0.0095 -0.0105 4.78126890396
0.0095 -0.0095 4.8797378868
0.0095 -0.0085 4.97832159664
0.0095 -0.0075 5.05866056711
0.0095 -0.0065 5.1087873131
0.0095 -0.0055 5.12624421251
0.0095 -0.0045 5.11431438351
0.0095 -0.0035 5.07665702912
0.0095 -0.0025 5.01549487588
0.0095 -0.0015 4.93296980166
0.0095 -0.0005 4.835212135
0.0095 0.0005 4.73519013806
0.0095 0.0015 4.64916949055
0.0095 0.0025 4.58837050377
0.0095 0.0035 4.55332839679
0.0095 0.0045 4.53600886444
0.0095 0.0055 4.52729542268
0.0095 0.0065 4.52352359689
0.0095 0.0075 4.52693619203
0.0095 0.0085 4.53849112447
0.0095 0.0095 4.5485918601
0.0095 0.0105 4.542519464
0.0095 0.0115 4.51978069839
0.0095 0.0125 4.48991195556
0.0095 0.0135 4.45539658965
0.0095 0.0145 4.41128578235
0.0095 0.0155 4.35225806668
0.0095 0.0165 4.27661417022
0.0095 0.0175 4.18500857008
0.0095 0.0185 4.08387582428
0.0095 0.0195 3.98586332798
0.0095 0.0205 3.8988233126
0.0095 0.0215 3.82113847855
0.0095 0.0225 3.74719976545
0.0095 0.0235 3.67246765251
0.0095 0.0245 3.59632970832
0.0095 0.0255 3.52140284373
0.0095 0.0265 3.45106929179
0.0095 0.0275 3.38810953754
0.0095 0.0285 3.33457379223
0.0095 0.0295 3.29210385233
0.0095 0.0305 3.26228586325
0.0095 0.0315 3.24678725634
0.0105 -0.0315 3.97477575136
0.0105 -0.0305 3.99464590242
0.0105 -0.0295 4.02995543377
0.0105 -0.0285 4.07578485626
0.0105 -0.0275 4.12760185393
0.0105 -0.0265 4.18117179899
0.0105 -0.0255 4.2324928268
0.0105 -0.0245 4.27805814298
0.0105 -0.0235 4.31561126201
0.0105 -0.0225 4.34578595743
0.0105 -0.0215 4.37045196459
0.0105 -0.0205 4.39214167402
0.0105 -0.0195 4.41264330851
0.0105 -0.0185 4.43098889972
0.0105 -0.0175 4.44867439246
0.0105 -0.0165 4.46881480171
0.0105 -0.0155 4.49194825578
0.0105 -0.0145 4.51768512679
0.0105 -0.0135 4.54729059797
0.0105 -0.0125 4.58510577491
0.0105 -0.0115 4.63659104826
0.0105 -0.0105 4.70332928979
0.0105 -0.0095 4.78116376959
0.0105 -0.0085 4.86090752547
0.0105 -0.0075 4.93101183497
0.0105 -0.0065 4.98187120146
0.0105 -0.0055 5.00753846209
0.0105 -0.0045 5.0059643682
0.0105 -0.0035 4.97811109179
0.0105 -0.0025 4.92682556399
0.0105 -0.0015 4.85696352936
0.0105 -0.0005 4.77597168814
0.0105 0.0005 4.69393617133
0.0105 0.0015 4.62205880214
0.0105 0.0025 4.56913149431
0.0105 0.0035 4.53754998172
0.0105 0.0045 4.5227553514
0.0105 0.0055 4.51654666009
0.0105 0.0065 4.51390101912
0.0105 0.0075 4.51737976032
0.0105 0.0085 4.53261559055
0.0105 0.0095 4.55521337375
0.0105 0.0105 4.5650636587
0.0105 0.0115 4.54811709807
0.0105 0.0125 4.50856339277
0.0105 0.0135 4.4553657662
0.0105 0.0145 4.39177937522
0.0105 0.0155 4.31471327754
0.0105 0.0165 4.22184279323
0.0105 0.0175 4.1161300972
0.0105 0.0185 4.0072064979
0.0105 0.0195 3.90990460505
0.0105 0.0205 3.82958780383
0.0105 0.0215 3.75701839911
0.0105 0.0225 3.68343936352
0.0105 0.0235 3.60643019102
0.0105 0.0245 3.52801606316
0.0105 0.0255 3.45260554689
0.0105 0.0265 3.38356403454
0.0105 0.0275 3.32278186288
0.0105 0.0285 3.27144072916
0.0105 0.0295 3.23065112125
0.0105 0.0305 3.20179966135
0.0105 0.0315 3.18661879296
0.0115 -0.0315 3.9245467982
0.0115 -0.0305 3.94633508667
0.0115 -0.0295 3.9846756962
0.0115 -0.0285 4.0338218803
0.0115 -0.0275 4.08863963062
0.0115 -0.0265 4.1445195652
0.0115 -0.0255 4.19728612696
0.0115 -0.0245 4.2432941806
0.0115 -0.0235 4.28081217099
0.0115 -0.0225 4.31050634655
0.0115 -0.0215 4.33437401058
0.0115 -0.0205 4.35530677729
0.0115 -0.0195 4.37407151376
0.0115 -0.0185 4.39005139929
0.0115 -0.0175 4.40534206561
0.0115 -0.0165 4.42299150588
0.0115 -0.0155 4.4441299073
0.0115 -0.0145 4.46846073543
0.0115 -0.0135 4.49568789595
0.0115 -0.0125 4.52777047576
0.0115 -0.0115 4.56661083011
0.0115 -0.0105 4.61311302639
0.0115 -0.0095 4.6669421009
0.0115 -0.0085 4.72409667699
0.0115 -0.0075 4.77846942876
0.0115 -0.0065 4.82300163673
0.0115 -0.0055 4.85123755316
0.0115 -0.0045 4.85875340083
0.0115 -0.0035 4.84414487195
0.0115 -0.0025 4.80930439529
0.0115 -0.0015 4.75889657916
0.0115 -0.0005 4.69953222935
0.0115 0.0005 4.63894054702
0.0115 0.0015 4.58506551691
0.0115 0.0025 4.54467821138
0.0115 0.0035 4.52060255444
0.0115 0.0045 4.51018857283
0.0115 0.0055 4.50694811075
0.0115 0.0065 4.50618941149
0.0115 0.0075 4.51107145964
0.0115 0.0085 4.53156679994
0.0115 0.0095 4.56803283181
0.0115 0.0105 4.5978910922
0.0115 0.0115 4.59398152135
0.0115 0.0125 4.54627587122
0.0115 0.0135 4.46244780802
0.0115 0.0145 4.36012255597
0.0115 0.0155 4.25332884728
0.0115 0.0165 4.14404425365
0.0115 0.0175 4.031890506
0.0115 0.0185 3.92527058399
0.0115 0.0195 3.83600051148
0.0115 0.0205 3.7632560687
0.0115 0.0215 3.69193442807
0.0115 0.0225 3.61475043245
0.0115 0.0235 3.53470823882
0.0115 0.0245 3.45580201764
0.0115 0.0255 3.38260231167
0.0115 0.0265 3.316970531
0.0115 0.0275 3.25933055848
0.0115 0.0285 3.21003758988
0.0115 0.0295 3.17000752162
0.0115 0.0305 3.14092579244
0.0115 0.0315 3.12518553088
0.0125 -0.0315 3.8722157712
0.0125 -0.0305 3.89623781281
0.0125 -0.0295 3.93812908867
0.0125 -0.0285 3.99113575384
0.0125 -0.0275 4.04931805538
0.0125 -0.0265 4.10754382542
0.0125 -0.0255 4.16150520976
0.0125 -0.0245 4.20792553159
0.0125 -0.0235 4.24569753696
0.0125 -0.0225 4.27502323539
0.0125 -0.0215 4.29838708133
0.0125 -0.0205 4.31878487493
0.0125 -0.0195 4.33618650535
0.0125 -0.0185 4.35038466479
0.0125 -0.0175 4.36328887314
0.0125 -0.0165 4.37862959526
0.0125 -0.0155 4.39786576315
0.0125 -0.0145 4.41949186361
0.0125 -0.0135 4.44154560058
0.0125 -0.0125 4.46214017192
0.0125 -0.0115 4.48162356439
0.0125 -0.0105 4.50344664327
0.0125 -0.0095 4.53096467084
0.0125 -0.0085 4.5646465753
0.0125 -0.0075 4.60191761624
0.0125 -0.0065 4.63781450516
0.0125 -0.0055 4.66646328634
0.0125 -0.0045 4.68280728739
0.0125 -0.0035 4.68401984706
0.0125 -0.0025 4.67014918324
0.0125 -0.0015 4.64387264839
0.0125 -0.0005 4.60970543083
0.0125 0.0005 4.57316551503
0.0125 0.0015 4.54004844579
0.0125 0.0025 4.51540482417
0.0125 0.0035 4.50165687534
0.0125 0.0045 4.49713790099
0.0125 0.0055 4.49731481935
0.0125 0.0065 4.49901760825
0.0125 0.0075 4.50589728977
0.0125 0.0085 4.53031645169
0.0125 0.0095 4.57584898888
0.0125 0.0105 4.61974850725
0.0125 0.0115 4.62720925724
0.0125 0.0125 4.57487740665
0.0125 0.0135 4.4618319125
0.0125 0.0145 4.31329636052
0.0125 0.0155 4.1668551443
0.0125 0.0165 4.04116238944
0.0125 0.0175 3.93360163024
0.0125 0.0185 3.84175596096
0.0125 0.0195 3.76496129962
0.0125 0.0205 3.69481302174
0.0125 0.0215 3.61871410178
0.0125 0.0225 3.53648481868
0.0125 0.0235 3.45572942543
0.0125 0.0245 3.38070089682
0.0125 0.0255 3.31340859664
0.0125 0.0265 3.25324734411
0.0125 0.0275 3.19923006096
0.0125 0.0285 3.15124030166
0.0125 0.0295 3.11054956532
0.0125 0.0305 3.07972951461
0.0125 0.0315 3.06245976314
0.0135 -0.0315 3.81730820827
0.0135 -0.0305 3.84364072937
0.0135 -0.0295 3.88936965332
0.0135 -0.0285 3.94666977884
0.0135 -0.0275 4.00863396602
0.0135 -0.0265 4.06945402774
0.0135 -0.0255 4.12466526252
0.0135 -0.0245 4.17162545144
0.0135 -0.0235 4.20977430183
0.0135 -0.0225 4.23977437882
0.0135 -0.0215 4.26386763412
0.0135 -0.0205 4.28460256289
0.0135 -0.0195 4.3024108043
0.0135 -0.0185 4.31523135633
0.0135 -0.0175 4.32447764417
0.0135 -0.0165 4.33631646322
0.0135 -0.0155 4.35250009124
0.0135 -0.0145 4.3685817876
0.0135 -0.0135 4.3788626466
0.0135 -0.0125 4.37967425604
0.0135 -0.0115 4.37333214072
0.0135 -0.0105 4.36740639712
0.0135 -0.0095 4.36880797547
0.0135 -0.0085 4.3809654426
0.0135 -0.0075 4.40319409511
0.0135 -0.0065 4.43182262429
0.0135 -0.0055 4.46175321577
0.0135 -0.0045 4.4879869665
0.0135 -0.0035 4.50680774477
0.0135 -0.0025 4.51641530608
0.0135 -0.0015 4.51699254527
0.0135 -0.0005 4.51040294375
0.0135 0.0005 4.49978226582
0.0135 0.0015 4.48897182674
0.0135 0.0025 4.4814896286
0.0135 0.0035 4.47926051957
0.0135 0.0045 4.48142468561
0.0135 0.0055 4.48552816362
0.0135 0.0065 4.4902289511
0.0135 0.0075 4.49911290673
0.0135 0.0085 4.52379014234
0.0135 0.0095 4.56796640164
0.0135 0.0105 4.61162484006
0.0135 0.0115 4.62188144832
0.0135 0.0125 4.56922761818
0.0135 0.0135 4.43945117128
0.0135 0.0145 4.25577087331
0.0135 0.0155 4.07352755651
0.0135 0.0165 3.93009173247
0.0135 0.0175 3.82672935807
0.0135 0.0185 3.74956651969
0.0135 0.0195 3.68234414151
0.0135 0.0205 3.6110897035
0.0135 0.0215 3.53079473945
0.0135 0.0225 3.44850114094
0.0135 0.0235 3.37311282778
0.0135 0.0245 3.30682910944
0.0135 0.0255 3.2481242875
0.0135 0.0265 3.19440198648
0.0135 0.0275 3.1434737225
0.0135 0.0285 3.09533619965
0.0135 0.0295 3.05215409307
0.0135 0.0305 3.01794613879
0.0135 0.0315 2.99819738869
0.0145 -0.0315 3.75933511034
0.0145 -0.0305 3.78743903444
0.0145 -0.0295 3.83672336119
0.0145 -0.0285 3.89864773969
0.0145 -0.0275 3.96504053904
0.0145 -0.0265 4.02917649028
0.0145 -0.0255 4.0863711071
0.0145 -0.0245 4.13447508191
0.0145 -0.0235 4.17375200851
0.0145 -0.0225 4.20582870308
0.0145 -0.0215 4.23286050944
0.0145 -0.0205 4.25748408345
0.0145 -0.0195 4.27815163929
0.0145 -0.0185 4.28855377115
0.0145 -0.0175 4.29175754571
0.0145 -0.0165 4.29746944568
0.0145 -0.0155 4.30644757096
0.0145 -0.0145 4.31028378099
0.0145 -0.0135 4.29931593134
0.0145 -0.0125 4.27147125559
0.0145 -0.0115 4.23467751917
0.0145 -0.0105 4.20088962792
0.0145 -0.0095 4.17933149444
0.0145 -0.0085 4.17422509676
0.0145 -0.0075 4.18537022085
0.0145 -0.0065 4.20979080466
0.0145 -0.0055 4.24318609358
0.0145 -0.0045 4.28091634367
0.0145 -0.0035 4.31873157289
0.0145 -0.0025 4.35328700541
0.0145 -0.0015 4.38239653492
0.0145 -0.0005 4.4050844854
0.0145 0.0005 4.42162755656
0.0145 0.0015 4.4335170958
0.0145 0.0025 4.44287656661
0.0145 0.0035 4.45179259273
0.0145 0.0045 4.46062760559
0.0145 0.0055 4.46890317663
0.0145 0.0065 4.4766793742
0.0145 0.0075 4.48673080409
0.0145 0.0085 4.50765841118
0.0145 0.0095 4.54159652761
0.0145 0.0105 4.5737710328
0.0145 0.0115 4.58059240114
0.0145 0.0125 4.52896747593
0.0145 0.0135 4.39047772944
0.0145 0.0145 4.18594672653
0.0145 0.0155 3.98041111931
0.0145 0.0165 3.82503701208
0.0145 0.0175 3.72277760389
0.0145 0.0185 3.64996302255
0.0145 0.0195 3.58476784892
0.0145 0.0205 3.51344138135
0.0145 0.0215 3.4353377097
0.0145 0.0225 3.35931786118
0.0145 0.0235 3.29398904983
0.0145 0.0245 3.23913003343
0.0145 0.0255 3.18956768761
0.0145 0.0265 3.14131375493
0.0145 0.0275 3.091813573
0.0145 0.0285 3.04148331016
0.0145 0.0295 2.99379709293
0.0145 0.0305 2.95474299246
0.0145 0.0315 2.93181497038
0.0155 -0.0315 3.69811661461
0.0155 -0.0305 3.72650247501
0.0155 -0.0295 3.77790878199
0.0155 -0.0285 3.84436671311
0.0155 -0.0275 3.91624439037
0.0155 -0.0265 3.98495695411
0.0155 -0.0255 4.04547661309
0.0155 -0.0245 4.0965351489
0.0155 -0.0235 4.13926741381
0.0155 -0.0225 4.17569645817
0.0155 -0.0215 4.20965072555
0.0155 -0.0205 4.24340725244
0.0155 -0.0195 4.26795435822
0.0155 -0.0185 4.27342189042
0.0155 -0.0175 4.26757371725
0.0155 -0.0165 4.2631242382
0.0155 -0.0155 4.2576383942
0.0155 -0.0145 4.23744778954
0.0155 -0.0135 4.19358418258
0.0155 -0.0125 4.13048707792
0.0155 -0.0115 4.06261894944
0.0155 -0.0105 4.00472890099
0.0155 -0.0095 3.9657240815
0.0155 -0.0085 3.94864656617
0.0155 -0.0075 3.95290823299
0.0155 -0.0065 3.97615171216
0.0155 -0.0055 4.01505911193
0.0155 -0.0045 4.06563851044
0.0155 -0.0035 4.12345438606
0.0155 -0.0025 4.18395339003
0.0155 -0.0015 4.24281615721
0.0155 -0.0005 4.29619720012
0.0155 0.0005 4.34097654139
0.0155 0.0015 4.37549593419
0.0155 0.0025 4.40039047441
0.0155 0.0035 4.41869853267
0.0155 0.0045 4.43309208836
0.0155 0.0055 4.44508395051
0.0155 0.0065 4.45515822093
0.0155 0.0075 4.4648763185
0.0155 0.0085 4.48012671009
0.0155 0.0095 4.50277734396
0.0155 0.0105 4.52360851742
0.0155 0.0115 4.52462881632
0.0155 0.0125 4.46893085036
0.0155 0.0135 4.32355318927
0.0155 0.0145 4.10982812726
0.0155 0.0155 3.89342182175
0.0155 0.0165 3.73148283966
0.0155 0.0175 3.62849828879
0.0155 0.0185 3.55522230635
0.0155 0.0195 3.48891351481
0.0155 0.0205 3.41898096748
0.0155 0.0215 3.34771712925
0.0155 0.0225 3.28208331564
0.0155 0.0235 3.22701750935
0.0155 0.0245 3.18120103179
0.0155 0.0255 3.13810598629
0.0155 0.0265 3.09268444335
0.0155 0.0275 3.04206205927
0.0155 0.0285 2.98711719017
0.0155 0.0295 2.93326230936
0.0155 0.0305 2.88870964457
0.0155 0.0315 2.8625928036
0.0165 -0.0315 3.63422341139
0.0165 -0.0305 3.66052021596
0.0165 -0.0295 3.71131643564
0.0165 -0.0285 3.78081057769
0.0165 -0.0275 3.85910922564
0.0165 -0.0265 3.93447948907
0.0165 -0.0255 4.00011984162
0.0165 -0.0245 4.05642454188
0.0165 -0.0235 4.10541188763
0.0165 -0.0225 4.15044366225
0.0165 -0.0215 4.1972165586
0.0165 -0.0205 4.24286928784
0.0165 -0.0195 4.27036769163
0.0165 -0.0185 4.26927000189
0.0165 -0.0175 4.25108490137
0.0165 -0.0165 4.2303779444
0.0165 -0.0155 4.20089674548
0.0165 -0.0145 4.14344332503
0.0165 -0.0135 4.05608890397
0.0165 -0.0125 3.95589643646