% Model:              Benchmark260518.mph
% Version:            COMSOL 6.2.0.339
% Date:               May 21 2026, 16:35
% Dimension:          2
% Nodes:              4096
% Expressions:        1
% Description:        压力
% Length unit:        m
% x                       y                        p (Pa)
5.0E-4                    -0.0315                  3.8243196085885685
5.0E-4                    -0.0305                  3.8568321574789057
5.0E-4                    -0.0295                  3.901215372005289
5.0E-4                    -0.0285                  3.949793369410812
5.0E-4                    -0.0275                  4.001127866487524
5.0E-4                    -0.0265                  4.054963845326829
5.0E-4                    -0.0255                  4.111344568110733
5.0E-4                    -0.0245                  4.170454235443318
5.0E-4                    -0.0235                  4.232459101276913
5.0E-4                    -0.0225                  4.297705240087558
5.0E-4                    -0.0215                  4.366570301598166
5.0E-4                    -0.0205                  4.438150254871458
5.0E-4                    -0.0195                  4.509254085672506
5.0E-4                    -0.0185                  4.574773347555227
5.0E-4                    -0.0175                  4.629453324365009
5.0E-4                    -0.0165                  4.668436352109194
5.0E-4                    -0.0155                  4.691739770643962
5.0E-4                    -0.0145                  4.705936769845073
5.0E-4                    -0.0135                  4.71710115529686
5.0E-4                    -0.0125                  4.726843899280231
5.0E-4                    -0.0115                  4.733291316896037
5.0E-4                    -0.0105                  4.735071006795834
5.0E-4                    -0.0095                  4.733533783929337
5.0E-4                    -0.0085                  4.730651772126496
5.0E-4                    -0.0075                  4.7271355372509385
5.0E-4                    -0.0065                  4.723074349559369
5.0E-4                    -0.0055                  4.718857403212964
5.0E-4                    -0.0045                  4.71515141839051
5.0E-4                    -0.0035                  4.71226570519265
5.0E-4                    -0.0025                  4.709756461208381
5.0E-4                    -0.0015                  4.706257811880614
5.0E-4                    -5.0E-4                  4.699904018785242
5.0E-4                    5.0E-4                   4.689387142738319
5.0E-4                    0.0015                   4.6748103028545565
5.0E-4                    0.0025                   4.657860378608183
5.0E-4                    0.0035                   4.6409481016222145
5.0E-4                    0.0045                   4.625926079641856
5.0E-4                    0.0055                   4.61295945892961
5.0E-4                    0.0065                   4.600449313673275
5.0E-4                    0.0075                   4.613384033722669
5.0E-4                    0.0085                   4.708301454365472
5.0E-4                    0.0095                   4.851082028103972
5.0E-4                    0.0105                   4.955374639345492
5.0E-4                    0.0115                   5.011049960663243
5.0E-4                    0.0125                   5.037745980608382
5.0E-4                    0.0135                   5.048760338833138
5.0E-4                    0.0145                   5.050320155874953
5.0E-4                    0.0155                   5.0434604232858495
5.0E-4                    0.0165                   5.028155757827861
5.0E-4                    0.0175                   5.004548490746995
5.0E-4                    0.0185                   4.975878278874998
5.0E-4                    0.0195                   4.946238455015351
5.0E-4                    0.0205                   4.919150401834193
5.0E-4                    0.0215                   4.90020128706244
5.0E-4                    0.0225                   4.886821530710356
5.0E-4                    0.0235                   4.855490902076908
5.0E-4                    0.0245                   4.777491487041295
5.0E-4                    0.0255                   4.669540849667595
5.0E-4                    0.0265                   4.564688983449608
5.0E-4                    0.0275                   4.469557191456917
5.0E-4                    0.0285                   4.383702883617515
5.0E-4                    0.0295                   4.3045335893726175
5.0E-4                    0.0305                   4.232688712187261
5.0E-4                    0.0315                   4.1801940486218205
0.0015                    -0.0315                  3.791292848694717
0.0015                    -0.0305                  3.8230640639016857
0.0015                    -0.0295                  3.8691082906286107
0.0015                    -0.0285                  3.9192946379524876
0.0015                    -0.0275                  3.9712025108670037
0.0015                    -0.0265                  4.024776445333414
0.0015                    -0.0255                  4.080592635595506
0.0015                    -0.0245                  4.1394825913793705
0.0015                    -0.0235                  4.202396530632705
0.0015                    -0.0225                  4.270273010207675
0.0015                    -0.0215                  4.343565733778864
0.0015                    -0.0205                  4.420882690365163
0.0015                    -0.0195                  4.49759401753496
0.0015                    -0.0185                  4.566977989716261
0.0015                    -0.0175                  4.622662608912766
0.0015                    -0.0165                  4.661358454436154
0.0015                    -0.0155                  4.685576248571336
0.0015                    -0.0145                  4.70142631736682
0.0015                    -0.0135                  4.7142495477725195
0.0015                    -0.0125                  4.726003053147556
0.0015                    -0.0115                  4.734286614006445
0.0015                    -0.0105                  4.736613259090442
0.0015                    -0.0095                  4.734792975767922
0.0015                    -0.0085                  4.731643369629718
0.0015                    -0.0075                  4.727736564387843
0.0015                    -0.0065                  4.7228773728801166
0.0015                    -0.0055                  4.717426597626175
0.0015                    -0.0045                  4.712309044172502
0.0015                    -0.0035                  4.708248650824939
0.0015                    -0.0025                  4.70511174382282
0.0015                    -0.0015                  4.701646503913407
0.0015                    -5.0E-4                  4.695906636350921
0.0015                    5.0E-4                   4.686304699899061
0.0015                    0.0015                   4.672617791717137
0.0015                    0.0025                   4.656352351562505
0.0015                    0.0035                   4.640086728389793
0.0015                    0.0045                   4.626215828435991
0.0015                    0.0055                   4.616231427090541
0.0015                    0.0065                   4.615018042513541
0.0015                    0.0075                   4.634970475122089
0.0015                    0.0085                   4.7371913717434815
0.0015                    0.0095                   4.881311756697497
0.0015                    0.0105                   4.972173827301862
0.0015                    0.0115                   5.017030374475821
0.0015                    0.0125                   5.035182687960156
0.0015                    0.0135                   5.041750853070828
0.0015                    0.0145                   5.042767629793735
0.0015                    0.0155                   5.0382661990333695
0.0015                    0.0165                   5.022012241401729
0.0015                    0.0175                   4.98202296195106
0.0015                    0.0185                   4.915076563880152
0.0015                    0.0195                   4.836038399037427
0.0015                    0.0205                   4.764893300222576
0.0015                    0.0215                   4.711848890657559
0.0015                    0.0225                   4.67131395297309
0.0015                    0.0235                   4.637900764536544
0.0015                    0.0245                   4.603059338407947
0.0015                    0.0255                   4.548334645141653
0.0015                    0.0265                   4.476004602667626
0.0015                    0.0275                   4.4001710873015245
0.0015                    0.0285                   4.324078490463383
0.0015                    0.0295                   4.248081595271212
0.0015                    0.0305                   4.176397990361443
0.0015                    0.0315                   4.126390403491271
0.0025                    -0.0315                  3.74611892719363
0.0025                    -0.0305                  3.773466526945882
0.0025                    -0.0295                  3.8170338073754966
0.0025                    -0.0285                  3.8666791517291794
0.0025                    -0.0275                  3.918047809496022
0.0025                    -0.0265                  3.9704793470853015
0.0025                    -0.0255                  4.024916185340988
0.0025                    -0.0245                  4.083020114094152
0.0025                    -0.0235                  4.146744067735284
0.0025                    -0.0225                  4.21777633637685
0.0025                    -0.0215                  4.296640499818509
0.0025                    -0.0205                  4.3811112240033045
0.0025                    -0.0195                  4.464748662597426
0.0025                    -0.0185                  4.53955066490651
0.0025                    -0.0175                  4.597738108312673
0.0025                    -0.0165                  4.638122502372354
0.0025                    -0.0155                  4.667055142306421
0.0025                    -0.0145                  4.689631076184675
0.0025                    -0.0135                  4.7094000080744545
0.0025                    -0.0125                  4.727914334991176
0.0025                    -0.0115                  4.740941430437754
0.0025                    -0.0105                  4.74394441542834
0.0025                    -0.0095                  4.739826354184351
0.0025                    -0.0085                  4.733195071802738
0.0025                    -0.0075                  4.724981262165103
0.0025                    -0.0065                  4.715214457270529
0.0025                    -0.0055                  4.705023925556431
0.0025                    -0.0045                  4.696201595815636
0.0025                    -0.0035                  4.689959761847751
0.0025                    -0.0025                  4.686446781565811
0.0025                    -0.0015                  4.684634168184742
0.0025                    -5.0E-4                  4.682720244546613
0.0025                    5.0E-4                   4.678918905558609
0.0025                    0.0015                   4.672094278486727
0.0025                    0.0025                   4.662734425210826
0.0025                    0.0035                   4.653325242724391
0.0025                    0.0045                   4.647650204667545
0.0025                    0.0055                   4.651402316817654
0.0025                    0.0065                   4.674702984458041
0.0025                    0.0075                   4.738633676743577
0.0025                    0.0085                   4.841892992369954
0.0025                    0.0095                   4.938927751560087
0.0025                    0.0105                   4.998486453335275
0.0025                    0.0115                   5.025044112081509
0.0025                    0.0125                   5.033319569781924
0.0025                    0.0135                   5.035298826671953
0.0025                    0.0145                   5.034550007000757
0.0025                    0.0155                   5.027933832808628
0.0025                    0.0165                   5.002944831810836
0.0025                    0.0175                   4.941753783794724
0.0025                    0.0185                   4.840389080833123
0.0025                    0.0195                   4.720666152115745
0.0025                    0.0205                   4.611332153912873
0.0025                    0.0215                   4.52735762488389
0.0025                    0.0225                   4.466719716049307
0.0025                    0.0235                   4.419327423596623
0.0025                    0.0245                   4.385478555218741
0.0025                    0.0255                   4.360924266100686
0.0025                    0.0265                   4.3281315237931235
0.0025                    0.0275                   4.280189147340659
0.0025                    0.0285                   4.220689227629313
0.0025                    0.0295                   4.154925773849705
0.0025                    0.0305                   4.092713131999455
0.0025                    0.0315                   4.052580590158144
0.0035                    -0.0315                  3.696853123431255
0.0035                    -0.0305                  3.719121549270438
0.0035                    -0.0295                  3.756971367517462
0.0035                    -0.0285                  3.80267086980693
0.0035                    -0.0275                  3.8513411748481
0.0035                    -0.0265                  3.901422815935911
0.0035                    -0.0255                  3.95370621517234
0.0035                    -0.0245                  4.01028821406734
0.0035                    -0.0235                  4.073821407020594
0.0035                    -0.0225                  4.1465449005762105
0.0035                    -0.0215                  4.228886696388006
0.0035                    -0.0205                  4.318058297693269
0.0035                    -0.0195                  4.407257799604483
0.0035                    -0.0185                  4.488169575102269
0.0035                    -0.0175                  4.551866296313121
0.0035                    -0.0165                  4.598261957697774
0.0035                    -0.0155                  4.636697815917062
0.0035                    -0.0145                  4.672333329565371
0.0035                    -0.0135                  4.70586988313575
0.0035                    -0.0125                  4.735267214514823
0.0035                    -0.0115                  4.753460106898245
0.0035                    -0.0105                  4.755500386335039
0.0035                    -0.0095                  4.745487388286316
0.0035                    -0.0085                  4.729298360166663
0.0035                    -0.0075                  4.710150826930746
0.0035                    -0.0065                  4.690345740821082
0.0035                    -0.0055                  4.67236271547722
0.0035                    -0.0045                  4.658420675811173
0.0035                    -0.0035                  4.649877255520327
0.0035                    -0.0025                  4.647328275272267
0.0035                    -0.0015                  4.650296405897962
0.0035                    -5.0E-4                  4.657600201228428
0.0035                    5.0E-4                   4.667468460350849
0.0035                    0.0015                   4.677910633701778
0.0035                    0.0025                   4.688160810213005
0.0035                    0.0035                   4.699328744249365
0.0035                    0.0045                   4.714545537176824
0.0035                    0.0055                   4.74064274214721
0.0035                    0.0065                   4.786461551229928
0.0035                    0.0075                   4.854987042796182
0.0035                    0.0085                   4.931831654919675
0.0035                    0.0095                   4.991807632198045
0.0035                    0.0105                   5.023175516982667
0.0035                    0.0115                   5.032446789899002
0.0035                    0.0125                   5.031960190400115
0.0035                    0.0135                   5.029506606565948
0.0035                    0.0145                   5.025289674342625
0.0035                    0.0155                   5.012163916678792
0.0035                    0.0165                   4.97138741625476
0.0035                    0.0175                   4.883163876063225
0.0035                    0.0185                   4.7484544913790785
0.0035                    0.0195                   4.594789882190701
0.0035                    0.0205                   4.456338558883388
0.0035                    0.0215                   4.35033166845258
0.0035                    0.0225                   4.276202274604297
0.0035                    0.0235                   4.224160579569661
0.0035                    0.0245                   4.188965882752905
0.0035                    0.0255                   4.17112269471691
0.0035                    0.0265                   4.158627434654696
0.0035                    0.0275                   4.13439201208627
0.0035                    0.0285                   4.094749579893266
0.0035                    0.0295                   4.04631008327311
0.0035                    0.0305                   4.00056761429533
0.0035                    0.0315                   3.972142957844315
0.0045                    -0.0315                  3.6453151940228192
0.0045                    -0.0305                  3.663362090139264
0.0045                    -0.0295                  3.6951236872364186
0.0045                    -0.0285                  3.7351829705789985
0.0045                    -0.0275                  3.779525138029639
0.0045                    -0.0265                  3.826354732438835
0.0045                    -0.0255                  3.876098882028934
0.0045                    -0.0245                  3.93076865557958
0.0045                    -0.0235                  3.9930438953192966
0.0045                    -0.0225                  4.065354557658448
0.0045                    -0.0215                  4.148213407494648
0.0045                    -0.0205                  4.238448096316237
0.0045                    -0.0195                  4.330102240487338
0.0045                    -0.0185                  4.415154014167333
0.0045                    -0.0175                  4.485403244412677
0.0045                    -0.0165                  4.542678475592427
0.0045                    -0.0155                  4.596714082186924
0.0045                    -0.0145                  4.6515355628861474
0.0045                    -0.0135                  4.702323548002839
0.0045                    -0.0125                  4.740785399695832
0.0045                    -0.0115                  4.760462370329609
0.0045                    -0.0105                  4.759088206977971
0.0045                    -0.0095                  4.7402093726228856
0.0045                    -0.0085                  4.711064922621514
0.0045                    -0.0075                  4.678840904574753
0.0045                    -0.0065                  4.648539835250254
0.0045                    -0.0055                  4.624028654384781
0.0045                    -0.0045                  4.607911281018929
0.0045                    -0.0035                  4.60057257874189
0.0045                    -0.0025                  4.601596710418116
0.0045                    -0.0015                  4.610951772960789
0.0045                    -5.0E-4                  4.629023860784775
0.0045                    5.0E-4                   4.655722737807343
0.0045                    0.0015                   4.689923680630556
0.0045                    0.0025                   4.728962231723585
0.0045                    0.0035                   4.769539704214034
0.0045                    0.0045                   4.81007430074715
0.0045                    0.0055                   4.852232704038228
0.0045                    0.0065                   4.899060008761349
0.0045                    0.0075                   4.94967445081876
0.0045                    0.0085                   4.995755860204527
0.0045                    0.0095                   5.0266647658805965
0.0045                    0.0105                   5.0388646927400655
0.0045                    0.0115                   5.03738267149734
0.0045                    0.0125                   5.030360228285784
0.0045                    0.0135                   5.022587351400529
0.0045                    0.0145                   5.01176351960685
0.0045                    0.0155                   4.986145776436754
0.0045                    0.0165                   4.9227023937805585
0.0045                    0.0175                   4.804507169634586
0.0045                    0.0185                   4.639555749729455
0.0045                    0.0195                   4.458774765908185
0.0045                    0.0205                   4.298802310055884
0.0045                    0.0215                   4.17949053906332
0.0045                    0.0225                   4.10364412463122
0.0045                    0.0235                   4.058423349778276
0.0045                    0.0245                   4.026998731528058
0.0045                    0.0255                   4.006961413614917
0.0045                    0.0265                   3.996488927875676
0.0045                    0.0275                   3.984535477607047
0.0045                    0.0285                   3.9631425116143157
0.0045                    0.0295                   3.934279054622838
0.0045                    0.0305                   3.905884824787024
0.0045                    0.0315                   3.8880356680381905
0.0055                    -0.0315                  3.5923447878561046
0.0055                    -0.0305                  3.6071366232742306
0.0055                    -0.0295                  3.6338305899371575
0.0055                    -0.0285                  3.6686542779950635
0.0055                    -0.0275                  3.7086840329676094
0.0055                    -0.0265                  3.7524491752585067
0.0055                    -0.0255                  3.800088259923909
0.0055                    -0.0245                  3.85323007901347
0.0055                    -0.0235                  3.9141793869478003
0.0055                    -0.0225                  3.984641886176046
0.0055                    -0.0215                  4.065196221776586
0.0055                    -0.0205                  4.153407326517597
0.0055                    -0.0195                  4.244550005613952
0.0055                    -0.0185                  4.331223964450927
0.0055                    -0.0175                  4.407550309530592
0.0055                    -0.0165                  4.477915689483183
0.0055                    -0.0155                  4.553142048813795
0.0055                    -0.0145                  4.630795540709901
0.0055                    -0.0135                  4.693799620183437
0.0055                    -0.0125                  4.733299683808616
0.0055                    -0.0115                  4.7502313118227395
0.0055                    -0.0105                  4.743841854450366
0.0055                    -0.0095                  4.716247028186876
0.0055                    -0.0085                  4.676843618270787
0.0055                    -0.0075                  4.63604721467009
0.0055                    -0.0065                  4.602007953566972
0.0055                    -0.0055                  4.579322230751122
0.0055                    -0.0045                  4.568214321361452
0.0055                    -0.0035                  4.5663309333324325
0.0055                    -0.0025                  4.572010770907983
0.0055                    -0.0015                  4.586000778417577
0.0055                    -5.0E-4                  4.610855730899487
0.0055                    5.0E-4                   4.649410308374277
0.0055                    0.0015                   4.702552260272677
0.0055                    0.0025                   4.766121636661895
0.0055                    0.0035                   4.831338562245349
0.0055                    0.0045                   4.889353480008777
0.0055                    0.0055                   4.935710311207956
0.0055                    0.0065                   4.971850757600454
0.0055                    0.0075                   5.001338846474065
0.0055                    0.0085                   5.024787850826624
0.0055                    0.0095                   5.039435222137903
0.0055                    0.0105                   5.043281706907788
0.0055                    0.0115                   5.037466175146886
0.0055                    0.0125                   5.025439476446809
0.0055                    0.0135                   5.009585495408638
0.0055                    0.0145                   4.986440358624419
0.0055                    0.0155                   4.940973808770918
0.0055                    0.0165                   4.850900096376974
0.0055                    0.0175                   4.706002609707979
0.0055                    0.0185                   4.518269381636575
0.0055                    0.0195                   4.318279409238371
0.0055                    0.0205                   4.143452037528078
0.0055                    0.0215                   4.018342906930573
0.0055                    0.0225                   3.9471299828470654
0.0055                    0.0235                   3.9112705094110645
0.0055                    0.0245                   3.886330021127644
0.0055                    0.0255                   3.8656724364961064
0.0055                    0.0265                   3.8528223456266644
0.0055                    0.0275                   3.8457745278608324
0.0055                    0.0285                   3.8374279924890935
0.0055                    0.0295                   3.8248885612300763
0.0055                    0.0305                   3.8109996410729226
0.0055                    0.0315                   3.801684868596494
0.0065                    -0.0315                  3.538415369097399
0.0065                    -0.0305                  3.5506863442393497
0.0065                    -0.0295                  3.573682786423571
0.0065                    -0.0285                  3.6049916251664555
0.0065                    -0.0275                  3.642466958714399
0.0065                    -0.0265                  3.684776336648325
0.0065                    -0.0255                  3.7318924416075627
0.0065                    -0.0245                  3.7845626089957998
0.0065                    -0.0235                  3.844273610437527
0.0065                    -0.0225                  3.912128099458684
0.0065                    -0.0215                  3.989269402470454
0.0065                    -0.0205                  4.074954766056283
0.0065                    -0.0195                  4.164226703414741
0.0065                    -0.0185                  4.250901714157509
0.0065                    -0.0175                  4.333243726742473
0.0065                    -0.0165                  4.419559574909247
0.0065                    -0.0155                  4.518766153067156
0.0065                    -0.0145                  4.614520560582813
0.0065                    -0.0135                  4.679388683260263
0.0065                    -0.0125                  4.712456435172036
0.0065                    -0.0115                  4.7235988708956835
0.0065                    -0.0105                  4.711637650307445
0.0065                    -0.0095                  4.678218342746935
0.0065                    -0.0085                  4.634585864024252
0.0065                    -0.0075                  4.59417472079538
0.0065                    -0.0065                  4.566744846674915
0.0065                    -0.0055                  4.553683891538946
0.0065                    -0.0045                  4.550615513729109
0.0065                    -0.0035                  4.553707802224035
0.0065                    -0.0025                  4.562271461131885
0.0065                    -0.0015                  4.5784827001627395
0.0065                    -5.0E-4                  4.606600526071811
0.0065                    5.0E-4                   4.6510555859654215
0.0065                    0.0015                   4.713213112960677
0.0065                    0.0025                   4.788081309697899
0.0065                    0.0035                   4.863898083118245
0.0065                    0.0045                   4.927221614603145
0.0065                    0.0055                   4.970896497195916
0.0065                    0.0065                   4.997093963061593
0.0065                    0.0075                   5.013226017375806
0.0065                    0.0085                   5.02549323010549
0.0065                    0.0095                   5.034664869073289
0.0065                    0.0105                   5.037354004628324
0.0065                    0.0115                   5.030542681765073
0.0065                    0.0125                   5.013341763787077
0.0065                    0.0135                   4.984568414542114