% Model:              Benchmark260518.mph
% Version:            COMSOL 6.2.0.339
% Date:               May 19 2026, 07:37
% Dimension:          2
% Nodes:              4096
% Expressions:        1
% Description:        压力
% Length unit:        m
% x                       y                        p (Pa)
5.0E-4                    -0.0315                  3.7050619937702054
5.0E-4                    -0.0305                  3.726475935643996
5.0E-4                    -0.0295                  3.755590605354389
5.0E-4                    -0.0285                  3.787295703665574
5.0E-4                    -0.0275                  3.8204514898231166
5.0E-4                    -0.0265                  3.85464726677912
5.0E-4                    -0.0255                  3.8896379269580486
5.0E-4                    -0.0245                  3.925293157632267
5.0E-4                    -0.0235                  3.961540674792275
5.0E-4                    -0.0225                  3.998353055416414
5.0E-4                    -0.0215                  4.035733088538301
5.0E-4                    -0.0205                  4.0737113021363855
5.0E-4                    -0.0195                  4.1123479946842
5.0E-4                    -0.0185                  4.151742058305784
5.0E-4                    -0.0175                  4.1920471501686505
5.0E-4                    -0.0165                  4.23348671044514
5.0E-4                    -0.0155                  4.276370265010961
5.0E-4                    -0.0145                  4.321106555496343
5.0E-4                    -0.0135                  4.3682042986774405
5.0E-4                    -0.0125                  4.4183273160189325
5.0E-4                    -0.0115                  4.472262374916783
5.0E-4                    -0.0105                  4.531037963392713
5.0E-4                    -0.0095                  4.595246680629016
5.0E-4                    -0.0085                  4.662390761907192
5.0E-4                    -0.0075                  4.726800604630701
5.0E-4                    -0.0065                  4.782756480676529
5.0E-4                    -0.0055                  4.8238679609769175
5.0E-4                    -0.0045                  4.847720659471988
5.0E-4                    -0.0035                  4.858861242243233
5.0E-4                    -0.0025                  4.862094125819468
5.0E-4                    -0.0015                  4.85988882262271
5.0E-4                    -5.0E-4                  4.8532260104298794
5.0E-4                    5.0E-4                   4.842854036080533
5.0E-4                    0.0015                   4.8305514933158795
5.0E-4                    0.0025                   4.818228327398869
5.0E-4                    0.0035                   4.815501762425092
5.0E-4                    0.0045                   4.846910552678052
5.0E-4                    0.0055                   4.908581959249263
5.0E-4                    0.0065                   4.95852554948021
5.0E-4                    0.0075                   4.982527543443867
5.0E-4                    0.0085                   4.993275176571066
5.0E-4                    0.0095                   4.998247885759579
5.0E-4                    0.0105                   5.000358282055873
5.0E-4                    0.0115                   4.996647396867624
5.0E-4                    0.0125                   4.980254687937656
5.0E-4                    0.0135                   4.949660747539126
5.0E-4                    0.0145                   4.908875314039378
5.0E-4                    0.0155                   4.8605210462444965
5.0E-4                    0.0165                   4.807821105962105
5.0E-4                    0.0175                   4.753872612287411
5.0E-4                    0.0185                   4.699848211223242
5.0E-4                    0.0195                   4.645889665323347
5.0E-4                    0.0205                   4.592126780669589
5.0E-4                    0.0215                   4.538665760336404
5.0E-4                    0.0225                   4.485558819450775
5.0E-4                    0.0235                   4.432859068105021
5.0E-4                    0.0245                   4.3806379199060865
5.0E-4                    0.0255                   4.329007445467725
5.0E-4                    0.0265                   4.278142764651822
5.0E-4                    0.0275                   4.228293679437827
5.0E-4                    0.0285                   4.179871046509799
5.0E-4                    0.0295                   4.1335029650878985
5.0E-4                    0.0305                   4.090875849571315
5.0E-4                    0.0315                   4.059552018353748
0.0015                    -0.0315                  3.6834859304520426
0.0015                    -0.0305                  3.704936993611436
0.0015                    -0.0295                  3.7361094126899417
0.0015                    -0.0285                  3.770191888906565
0.0015                    -0.0275                  3.8052729327322594
0.0015                    -0.0265                  3.84087590144961
0.0015                    -0.0255                  3.8768412140184143
0.0015                    -0.0245                  3.9130975907692074
0.0015                    -0.0235                  3.949614971661674
0.0015                    -0.0225                  3.986385107905537
0.0015                    -0.0215                  4.023413235832146
0.0015                    -0.0205                  4.060713717989159
0.0015                    -0.0195                  4.098311626484213
0.0015                    -0.0185                  4.136251745520324
0.0015                    -0.0175                  4.174619028890957
0.0015                    -0.0165                  4.213574339749872
0.0015                    -0.0155                  4.253400412374001
0.0015                    -0.0145                  4.294545864548242
0.0015                    -0.0135                  4.3376636289776584
0.0015                    -0.0125                  4.38367041304672
0.0015                    -0.0115                  4.433941280357984
0.0015                    -0.0105                  4.4903668492048965
0.0015                    -0.0095                  4.5548449993789895
0.0015                    -0.0085                  4.626949338910736
0.0015                    -0.0075                  4.701032722793806
0.0015                    -0.0065                  4.768166903163002
0.0015                    -0.0055                  4.817451215235068
0.0015                    -0.0045                  4.845628599232998
0.0015                    -0.0035                  4.858978171577801
0.0015                    -0.0025                  4.862519499326339
0.0015                    -0.0015                  4.859681048455181
0.0015                    -5.0E-4                  4.852713343978984
0.0015                    5.0E-4                   4.842683682065293
0.0015                    0.0015                   4.831474230053513
0.0015                    0.0025                   4.824553248847613
0.0015                    0.0035                   4.829878356606706
0.0015                    0.0045                   4.874453683464424
0.0015                    0.0055                   4.940941890357854
0.0015                    0.0065                   4.979794971698247
0.0015                    0.0075                   4.990068153914088
0.0015                    0.0085                   4.987634960872516
0.0015                    0.0095                   4.984019413946463
0.0015                    0.0105                   4.982537365810831
0.0015                    0.0115                   4.980294997200107
0.0015                    0.0125                   4.971301313267962
0.0015                    0.0135                   4.948439814362915
0.0015                    0.0145                   4.910754889952031
0.0015                    0.0155                   4.862526000212545
0.0015                    0.0165                   4.808161027977996
0.0015                    0.0175                   4.751885933107095
0.0015                    0.0185                   4.695769845526264
0.0015                    0.0195                   4.640294525775939
0.0015                    0.0205                   4.585365195362287
0.0015                    0.0215                   4.530805700313414
0.0015                    0.0225                   4.476478862263548
0.0015                    0.0235                   4.422317116912332
0.0015                    0.0245                   4.368327064818404
0.0015                    0.0255                   4.314576232190645
0.0015                    0.0265                   4.261180381476127
0.0015                    0.0275                   4.208314934816976
0.0015                    0.0285                   4.156269796508939
0.0015                    0.0295                   4.10578280897813
0.0015                    0.0305                   4.059703616523239
0.0015                    0.0315                   4.0280856272940735
0.0025                    -0.0315                  3.653880668763793
0.0025                    -0.0305                  3.6733692019961435
0.0025                    -0.0295                  3.7045600140703234
0.0025                    -0.0285                  3.7405152693385832
0.0025                    -0.0275                  3.7778625828897665
0.0025                    -0.0265                  3.815422324673169
0.0025                    -0.0255                  3.8528440074447565
0.0025                    -0.0245                  3.8900253810773546
0.0025                    -0.0235                  3.9269388266045735
0.0025                    -0.0225                  3.963578345553615
0.0025                    -0.0215                  3.99993826114777
0.0025                    -0.0205                  4.036003048858629
0.0025                    -0.0195                  4.071744511631861
0.0025                    -0.0185                  4.10712965525722
0.0025                    -0.0175                  4.14214647301952
0.0025                    -0.0165                  4.176858369103567
0.0025                    -0.0155                  4.211495174434539
0.0025                    -0.0145                  4.246569113065955
0.0025                    -0.0135                  4.282984146715117
0.0025                    -0.0125                  4.3221427051423635
0.0025                    -0.0115                  4.366064262727426
0.0025                    -0.0105                  4.4175507431804855
0.0025                    -0.0095                  4.479850556131216
0.0025                    -0.0085                  4.554558587420866
0.0025                    -0.0075                  4.637819930247941
0.0025                    -0.0065                  4.719814011402581
0.0025                    -0.0055                  4.785799276131822
0.0025                    -0.0045                  4.82779244038252
0.0025                    -0.0035                  4.848599396848407
0.0025                    -0.0025                  4.853725560006756
0.0025                    -0.0015                  4.851293404602517
0.0025                    -5.0E-4                  4.847934561473878
0.0025                    5.0E-4                   4.845941895975357
0.0025                    0.0015                   4.847568618412345
0.0025                    0.0025                   4.860510925907715
0.0025                    0.0035                   4.897056338170661
0.0025                    0.0045                   4.955840290719651
0.0025                    0.0055                   5.004227009364647
0.0025                    0.0065                   5.018480799888414
0.0025                    0.0075                   5.007041615409839
0.0025                    0.0085                   4.987331806377678
0.0025                    0.0095                   4.973434093880073
0.0025                    0.0105                   4.9674915551460295
0.0025                    0.0115                   4.964127313105972
0.0025                    0.0125                   4.956825895882586
0.0025                    0.0135                   4.938461945874091
0.0025                    0.0145                   4.904890674529536
0.0025                    0.0155                   4.857958087617186
0.0025                    0.0165                   4.802779972247579
0.0025                    0.0175                   4.744637278247228
0.0025                    0.0185                   4.686457047780504
0.0025                    0.0195                   4.629099973106416
0.0025                    0.0205                   4.572394315011175
0.0025                    0.0215                   4.515910587387134
0.0025                    0.0225                   4.459309983032015
0.0025                    0.0235                   4.4024167207918365
0.0025                    0.0245                   4.345191440511139
0.0025                    0.0255                   4.287685594811432
0.0025                    0.0265                   4.230020111484097
0.0025                    0.0275                   4.172429673595382
0.0025                    0.0285                   4.115504110480252
0.0025                    0.0295                   4.061044054116915
0.0025                    0.0305                   4.014073844142821
0.0025                    0.0315                   3.9848690293226188
0.0035                    -0.0315                  3.621408183234827
0.0035                    -0.0305                  3.6385765822122975
0.0035                    -0.0295                  3.667889103129692
0.0035                    -0.0285                  3.703778908244699
0.0035                    -0.0275                  3.742329859600082
0.0035                    -0.0265                  3.781449340365686
0.0035                    -0.0255                  3.820234006249211
0.0035                    -0.0245                  3.858331968700258
0.0035                    -0.0235                  3.895604890488375
0.0035                    -0.0225                  3.931989961388325
0.0035                    -0.0215                  3.9674418203780006
0.0035                    -0.0205                  4.001904574068967
0.0035                    -0.0195                  4.035299775856163
0.0035                    -0.0185                  4.067530460106472
0.0035                    -0.0175                  4.098508755582346
0.0035                    -0.0165                  4.128220102295449
0.0035                    -0.0155                  4.1568426409450066
0.0035                    -0.0145                  4.184938913841472
0.0035                    -0.0135                  4.213686490675533
0.0035                    -0.0125                  4.2450112396363
0.0035                    -0.0115                  4.281545059229618
0.0035                    -0.0105                  4.326355355778995
0.0035                    -0.0095                  4.3827586275719606
0.0035                    -0.0085                  4.453687481544592
0.0035                    -0.0075                  4.538387409051236
0.0035                    -0.0065                  4.631276138114204
0.0035                    -0.0055                  4.7162937979155295
0.0035                    -0.0045                  4.775927808610025
0.0035                    -0.0035                  4.805815177005059
0.0035                    -0.0025                  4.814389841158355
0.0035                    -0.0015                  4.818066627374858
0.0035                    -5.0E-4                  4.8291534882362255
0.0035                    5.0E-4                   4.85107232533344
0.0035                    0.0015                   4.884488588795357
0.0035                    0.0025                   4.932121871594525
0.0035                    0.0035                   4.992873490736779
0.0035                    0.0045                   5.049894945215268
0.0035                    0.0055                   5.07735034595
0.0035                    0.0065                   5.066701255899712
0.0035                    0.0075                   5.031000492417151
0.0035                    0.0085                   4.991737348555802
0.0035                    0.0095                   4.9655351440645905
0.0035                    0.0105                   4.95354062809477
0.0035                    0.0115                   4.946850142211036
0.0035                    0.0125                   4.937189751952639
0.0035                    0.0135                   4.918140011866015
0.0035                    0.0145                   4.885835296078474
0.0035                    0.0155                   4.8408679538565105
0.0035                    0.0165                   4.787151873402688
0.0035                    0.0175                   4.729625458492894
0.0035                    0.0185                   4.671198419333509
0.0035                    0.0195                   4.612813285391763
0.0035                    0.0205                   4.554378430467996
0.0035                    0.0215                   4.4954956622521305
0.0035                    0.0225                   4.435839593278546
0.0035                    0.0235                   4.375269629300865
0.0035                    0.0245                   4.3138056827733084
0.0035                    0.0255                   4.251592220025524
0.0035                    0.0265                   4.188924680142136
0.0035                    0.0275                   4.1264213028182235
0.0035                    0.0285                   4.065511957545864
0.0035                    0.0295                   4.009379617522764
0.0035                    0.0305                   3.963909044219087
0.0035                    0.0315                   3.9374428663383023
0.0045                    -0.0315                  3.587415514276211
0.0045                    -0.0305                  3.602553744910963
0.0045                    -0.0295                  3.629448330800183
0.0045                    -0.0285                  3.6638361708173792
0.0045                    -0.0275                  3.70214532653882
0.0045                    -0.0265                  3.741853153143593
0.0045                    -0.0255                  3.7814609629552938
0.0045                    -0.0245                  3.8201890768622326
0.0045                    -0.0235                  3.8576487298801347
0.0045                    -0.0225                  3.8936355582325475
0.0045                    -0.0215                  3.928022343930747
0.0045                    -0.0205                  3.9607033635418363
0.0045                    -0.0195                  3.991567401560655
0.0045                    -0.0185                  4.020494760659018
0.0045                    -0.0175                  4.047383240879719
0.0045                    -0.0165                  4.072214681695962
0.0045                    -0.0155                  4.09518062782582
0.0045                    -0.0145                  4.116893586647013
0.0045                    -0.0135                  4.138695725171976
0.0045                    -0.0125                  4.162910776380165
0.0045                    -0.0115                  4.1926220805909615
0.0045                    -0.0105                  4.231061065365302
0.0045                    -0.0095                  4.280682986280901
0.0045                    -0.0085                  4.343366519204891
0.0045                    -0.0075                  4.420149436462807
0.0045                    -0.0065                  4.512428014465881
0.0045                    -0.0055                  4.607468684097266
0.0045                    -0.0045                  4.68096085234043
0.0045                    -0.0035                  4.721557981571067
0.0045                    -0.0025                  4.740503930481961
0.0045                    -0.0015                  4.761074294745832
0.0045                    -5.0E-4                  4.797373359511489
0.0045                    5.0E-4                   4.851882582544629
0.0045                    0.0015                   4.922269370138624
0.0045                    0.0025                   5.001877108420512
0.0045                    0.0035                   5.077333431837204
0.0045                    0.0045                   5.1291178372780175
0.0045                    0.0055                   5.14053693655887
0.0045                    0.0065                   5.1105609333076565
0.0045                    0.0075                   5.054762438484699
0.0045                    0.0085                   4.997462394166978
0.0045                    0.0095                   4.958104978281335
0.0045                    0.0105                   4.938132462625332
0.0045                    0.0115                   4.925627249974026
0.0045                    0.0125                   4.910327445085907
0.0045                    0.0135                   4.88649134579993
0.0045                    0.0145                   4.8526102939197
0.0045                    0.0155                   4.809956701580856
0.0045                    0.0165                   4.760309575885279
0.0045                    0.0175                   4.70648049897069
0.0045                    0.0185                   4.650198210120478
0.0045                    0.0195                   4.592132637716803
0.0045                    0.0205                   4.532395762615156
0.0045                    0.0215                   4.470932440259157
0.0045                    0.0225                   4.4077324956562025
0.0045                    0.0235                   4.342899082041674
0.0045                    0.0245                   4.27666173269364
0.0045                    0.0255                   4.209413093669698
0.0045                    0.0265                   4.14183568396615
0.0045                    0.0275                   4.075195756426554
0.0045                    0.0285                   4.0118333154595796
0.0045                    0.0295                   3.9556287362008264
0.0045                    0.0305                   3.912061815329036
0.0045                    0.0315                   3.8876795877920967
0.0055                    -0.0315                  3.5523720273840778
0.0055                    -0.0305                  3.565849276120278
0.0055                    -0.0295                  3.590378327598635
0.0055                    -0.0285                  3.6226538874001504
0.0055                    -0.0275                  3.659654997112807
0.0055                    -0.0265                  3.6989065247779633
0.0055                    -0.0255                  3.7385786437784896
0.0055                    -0.0245                  3.7774695875889073
0.0055                    -0.0235                  3.8148522441453587
0.0055                    -0.0225                  3.8502987160718467
0.0055                    -0.0215                  3.8835518211577713
0.0055                    -0.0205                  3.9144452526970004
0.0055                    -0.0195                  3.942859479381113
0.0055                    -0.0185                  3.968708988582516
0.0055                    -0.0175                  3.9919643387696144
0.0055                    -0.0165                  4.012717051625516
0.0055                    -0.0155                  4.0312980161780345
0.0055                    -0.0145                  4.048456703970381
0.0055                    -0.0135                  4.06560267459596
0.0055                    -0.0125                  4.085101921906708
0.0055                    -0.0115                  4.110294508174928
0.0055                    -0.0105                  4.144200279697599
0.0055                    -0.0095                  4.188828915286156
0.0055                    -0.0085                  4.244514699746223
0.0055                    -0.0075                  4.311469325825485
0.0055                    -0.0065                  4.3924186899465205
0.0055                    -0.0055                  4.482928582054528
0.0055                    -0.0045                  4.5634274331624525
0.0055                    -0.0035                  4.618627777849539
0.0055                    -0.0025                  4.659422599631897
0.0055                    -0.0015                  4.70664373796399
0.0055                    -5.0E-4                  4.7695154774395085
0.0055                    5.0E-4                   4.8493777426910185
0.0055                    0.0015                   4.943044011418418
0.0055                    0.0025                   5.039222254296422
0.0055                    0.0035                   5.119781488782529
0.0055                    0.0045                   5.1674883388776465
0.0055                    0.0055                   5.171636865526451
0.0055                    0.0065                   5.132097516954518
0.0055                    0.0075                   5.064152065582016
0.0055                    0.0085                   4.994633002043033
0.0055                    0.0095                   4.944908602929626
0.0055                    0.0105                   4.916525371018466
0.0055                    0.0115                   4.896247906471823
0.0055                    0.0125                   4.872749015006324
0.0055                    0.0135                   4.842383318544174
0.0055                    0.0145                   4.806762091008666
0.0055                    0.0155                   4.767622517329649
0.0055                    0.0165                   4.72436808328159
0.0055                    0.0175                   4.676689296712064
0.0055                    0.0185                   4.624448921049403
0.0055                    0.0195                   4.567835313683422
0.0055                    0.0205                   4.5072637110300935
0.0055                    0.0215                   4.443254984601519
0.0055                    0.0225                   4.376334281329841
0.0055                    0.0235                   4.307020016439097
0.0055                    0.0245                   4.23590030040344
0.0055                    0.0255                   4.163771464568016
0.0055                    0.0265                   4.091847340691606
0.0055                    0.0275                   4.02204567913224
0.0055                    0.0285                   3.957251629095999
0.0055                    0.0295                   3.9013789363604467
0.0055                    0.0305                   3.8592447475722773
0.0055                    0.0315                   3.836183213733992
0.0065                    -0.0315                  3.516520894615912
0.0065                    -0.0305                  3.528625652419672
0.0065                    -0.0295                  3.551004610457122
0.0065                    -0.0285                  3.581019832644572
0.0065                    -0.0275                  3.616154015832051
0.0065                    -0.0265                  3.6541749655430054
0.0065                    -0.0255                  3.6931953692739046
0.0065                    -0.0245                  3.7317443093270604
0.0065                    -0.0235                  3.7687709709953574
0.0065                    -0.0225                  3.8035793588671147
0.0065                    -0.0215                  3.8357403528663903
0.0065                    -0.0205                  3.8650146241678986
0.0065                    -0.0195                  3.891299138617659
0.0065                    -0.0185                  3.914604538542131
0.0065                    -0.0175                  3.9350711923680306
0.0065                    -0.0165                  3.953028644553111
0.0065                    -0.0155                  3.9690927888781813
0.0065                    -0.0145                  3.984276450149722
0.0065                    -0.0135                  4.00007747236798
0.0065                    -0.0125                  4.018573006910506
0.0065                    -0.0115                  4.042338879282427
0.0065                    -0.0105                  4.073644512393395
0.0065                    -0.0095                  4.11515110626482
0.0065                    -0.0085                  4.167118072386286
0.0065                    -0.0075                  4.227378720968818
0.0065                    -0.0065                  4.296147608853515
0.0065                    -0.0055                  4.375433201373882
0.0065                    -0.0045                  4.455005270731855
0.0065                    -0.0035                  4.523226931039227
0.0065                    -0.0025                  4.58800859081379
0.0065                    -0.0015                  4.661250539710636
0.0065                    -5.0E-4                  4.747008109612127
0.0065                    5.0E-4                   4.844880390984519
0.0065                    0.0015                   4.949606183349437
0.0065                    0.0025                   5.047423842219883
0.0065                    0.0035                   5.121616167436982
0.0065                    0.0045                   5.16150789695895
0.0065                    0.0055                   5.160220486626832
0.0065                    0.0065                   5.115347773179682
0.0065                    0.0075                   5.041224857040035
0.0065                    0.0085                   4.967447296737312
0.0065                    0.0095                   4.914704147291159
0.0065                    0.0105                   4.8815322978691915
0.0065                    0.0115                   4.854373708365564
0.0065                    0.0125                   4.823091794898164