% Model:              Benchmark260518.mph
% Version:            COMSOL 6.2.0.339
% Date:               May 21 2026, 07:48
% Dimension:          2
% Nodes:              4096
% Expressions:        1
% Description:        压力
% Length unit:        m
% x                       y                        p (Pa)
5.0E-4                    -0.0315                  3.111800847764827
5.0E-4                    -0.0305                  3.1352801927496263
5.0E-4                    -0.0295                  3.1672583318381085
5.0E-4                    -0.0285                  3.202048262773107
5.0E-4                    -0.0275                  3.238406465404542
5.0E-4                    -0.0265                  3.2758873242041138
5.0E-4                    -0.0255                  3.3142020593902237
5.0E-4                    -0.0245                  3.353178462088415
5.0E-4                    -0.0235                  3.3926956480312485
5.0E-4                    -0.0225                  3.432668499828283
5.0E-4                    -0.0215                  3.4730358499168315
5.0E-4                    -0.0205                  3.5137525743791604
5.0E-4                    -0.0195                  3.554787065460693
5.0E-4                    -0.0185                  3.596123314855047
5.0E-4                    -0.0175                  3.63775494663784
5.0E-4                    -0.0165                  3.679686874854223
5.0E-4                    -0.0155                  3.721936338040345
5.0E-4                    -0.0145                  3.7645295545590773
5.0E-4                    -0.0135                  3.8074974552289715
5.0E-4                    -0.0125                  3.850867162155769
5.0E-4                    -0.0115                  3.8946497703271277
5.0E-4                    -0.0105                  3.938832140214909
5.0E-4                    -0.0095                  3.983373024703072
5.0E-4                    -0.0085                  4.028203152763535
5.0E-4                    -0.0075                  4.073230313382883
5.0E-4                    -0.0065                  4.118352474589441
5.0E-4                    -0.0055                  4.1634764630577585
5.0E-4                    -0.0045                  4.208522091428224
5.0E-4                    -0.0035                  4.2534091944658465
5.0E-4                    -0.0025                  4.298045558776607
5.0E-4                    -0.0015                  4.342322375853742
5.0E-4                    -5.0E-4                  4.386088946935448
5.0E-4                    5.0E-4                   4.429159540945424
5.0E-4                    0.0015                   4.471306299399399
5.0E-4                    0.0025                   4.512228943500769
5.0E-4                    0.0035                   4.5517491834046035
5.0E-4                    0.0045                   4.589627211862091
5.0E-4                    0.0055                   4.6246736192120315
5.0E-4                    0.0065                   4.654727920886199
5.0E-4                    0.0075                   4.6775866526061485
5.0E-4                    0.0085                   4.69176272969005
5.0E-4                    0.0095                   4.697606490166328
5.0E-4                    0.0105                   4.698075910927785
5.0E-4                    0.0115                   4.696287986456857
5.0E-4                    0.0125                   4.693256886082999
5.0E-4                    0.0135                   4.688829595360702
5.0E-4                    0.0145                   4.683125120864068
5.0E-4                    0.0155                   4.694498701705036
5.0E-4                    0.0165                   4.752722003925042
5.0E-4                    0.0175                   4.835205797820233
5.0E-4                    0.0185                   4.895386969843165
5.0E-4                    0.0195                   4.931483131009481
5.0E-4                    0.0205                   4.957809045606746
5.0E-4                    0.0215                   4.977347759384437
5.0E-4                    0.0225                   4.987003617722927
5.0E-4                    0.0235                   4.987728113028041
5.0E-4                    0.0245                   4.986131092245283
5.0E-4                    0.0255                   4.985156532741614
5.0E-4                    0.0265                   4.984118357340079
5.0E-4                    0.0275                   4.982759744373318
5.0E-4                    0.0285                   4.981087499872641
5.0E-4                    0.0295                   4.979248154847435
5.0E-4                    0.0305                   4.974777158863468
5.0E-4                    0.0315                   4.967184329428716
0.0015                    -0.0315                  3.088162226699824
0.0015                    -0.0305                  3.1116970083058675
0.0015                    -0.0295                  3.1459787230442826
0.0015                    -0.0285                  3.1834968246301134
0.0015                    -0.0275                  3.2221613737132966
0.0015                    -0.0265                  3.2614751641501556
0.0015                    -0.0255                  3.301271529126149
0.0015                    -0.0245                  3.3414610042481954
0.0015                    -0.0235                  3.3819859861509944
0.0015                    -0.0225                  3.4228024210850303
0.0015                    -0.0215                  3.4638740906069265
0.0015                    -0.0205                  3.505170805554767
0.0015                    -0.0195                  3.5466682633661657
0.0015                    -0.0185                  3.5883500833311768
0.0015                    -0.0175                  3.63021084684602
0.0015                    -0.0165                  3.672259681314351
0.0015                    -0.0155                  3.7145256055565907
0.0015                    -0.0145                  3.7570604542561377
0.0015                    -0.0135                  3.7999371131880735
0.0015                    -0.0125                  3.8432408614577422
0.0015                    -0.0115                  3.887053346864003
0.0015                    -0.0105                  3.931431463310502
0.0015                    -0.0095                  3.9763869511620804
0.0015                    -0.0085                  4.021872551542529
0.0015                    -0.0075                  4.067783164473294
0.0015                    -0.0065                  4.113977059564192
0.0015                    -0.0055                  4.160311138824413
0.0015                    -0.0045                  4.206672231548726
0.0015                    -0.0035                  4.252987086133137
0.0015                    -0.0025                  4.2992083082939665
0.0015                    -0.0015                  4.34528122792876
0.0015                    -5.0E-4                  4.391113634441638
0.0015                    5.0E-4                   4.436556098149408
0.0015                    0.0015                   4.48137916620544
0.0015                    0.0025                   4.525279616461889
0.0015                    0.0035                   4.567780718127575
0.0015                    0.0045                   4.607795601148739
0.0015                    0.0055                   4.643319828251505
0.0015                    0.0065                   4.671808995001198
0.0015                    0.0075                   4.69108196246849
0.0015                    0.0085                   4.700597971290238
0.0015                    0.0095                   4.70248736680464
0.0015                    0.0105                   4.700633402627549
0.0015                    0.0115                   4.697534303801995
0.0015                    0.0125                   4.693607386860676
0.0015                    0.0135                   4.6895890434596055
0.0015                    0.0145                   4.6872759332480385
0.0015                    0.0155                   4.6894897972076635
0.0015                    0.0165                   4.736197116007739
0.0015                    0.0175                   4.810929136104096
0.0015                    0.0185                   4.856955559948194
0.0015                    0.0195                   4.881967956493178
0.0015                    0.0205                   4.90041449137481
0.0015                    0.0215                   4.917696771393523
0.0015                    0.0225                   4.933288175865225
0.0015                    0.0235                   4.943437143630566
0.0015                    0.0245                   4.947074164461211
0.0015                    0.0255                   4.9470318595224265
0.0015                    0.0265                   4.944929033083301
0.0015                    0.0275                   4.9412405124397
0.0015                    0.0285                   4.936347944418709
0.0015                    0.0295                   4.9298175210912305
0.0015                    0.0305                   4.922189961637933
0.0015                    0.0315                   4.918038490555048
0.0025                    -0.0315                  3.0556936141695514
0.0025                    -0.0305                  3.0770900412370628
0.0025                    -0.0295                  3.111466115208655
0.0025                    -0.0285                  3.1512280131984527
0.0025                    -0.0275                  3.192722884590514
0.0025                    -0.0265                  3.2347148724713213
0.0025                    -0.0255                  3.276866925008453
0.0025                    -0.0245                  3.3190940767616426
0.0025                    -0.0235                  3.361374875870231
0.0025                    -0.0225                  3.4037011514223297
0.0025                    -0.0215                  3.446062949921136
0.0025                    -0.0205                  3.4884454298693277
0.0025                    -0.0195                  3.5308303434646064
0.0025                    -0.0185                  3.5732001512639275
0.0025                    -0.0175                  3.6155460241033786
0.0025                    -0.0165                  3.6578786334212734
0.0025                    -0.0155                  3.7002404822787778
0.0025                    -0.0145                  3.742717647443742
0.0025                    -0.0135                  3.7854455341243467
0.0025                    -0.0125                  3.828603702614618
0.0025                    -0.0115                  3.8723955474222755
0.0025                    -0.0105                  3.917011941598781
0.0025                    -0.0095                  3.9625847930266573
0.0025                    -0.0085                  4.009144882345953
0.0025                    -0.0075                  4.0566023081679985
0.0025                    -0.0065                  4.104764560015515
0.0025                    -0.0055                  4.153393798817829
0.0025                    -0.0045                  4.202284493521813
0.0025                    -0.0035                  4.251322908692081
0.0025                    -0.0025                  4.300491820637868
0.0025                    -0.0015                  4.349816281992753
0.0025                    -5.0E-4                  4.399279166955975
0.0025                    5.0E-4                   4.448744938738287
0.0025                    0.0015                   4.497905620883487
0.0025                    0.0025                   4.546147380623699
0.0025                    0.0035                   4.592212468740388
0.0025                    0.0045                   4.633903582323594
0.0025                    0.0055                   4.668304909897779
0.0025                    0.0065                   4.692716123046505
0.0025                    0.0075                   4.706124966849885
0.0025                    0.0085                   4.710342549642686
0.0025                    0.0095                   4.709095082551949
0.0025                    0.0105                   4.705485263280623
0.0025                    0.0115                   4.700803678537105
0.0025                    0.0125                   4.696026782604393
0.0025                    0.0135                   4.693142873010231
0.0025                    0.0145                   4.695039795900423
0.0025                    0.0155                   4.7141269040868705
0.0025                    0.0165                   4.7587613087808665
0.0025                    0.0175                   4.806379301699636
0.0025                    0.0185                   4.836348338293151
0.0025                    0.0195                   4.8535243282178655
0.0025                    0.0205                   4.866668827429896
0.0025                    0.0215                   4.879459672435975
0.0025                    0.0225                   4.892498796785038
0.0025                    0.0235                   4.903558797002376
0.0025                    0.0245                   4.909377164151356
0.0025                    0.0255                   4.909733382736945
0.0025                    0.0265                   4.90601190909366
0.0025                    0.0275                   4.899675750441849
0.0025                    0.0285                   4.891525074728103
0.0025                    0.0295                   4.882652743907532
0.0025                    0.0305                   4.875640615968605
0.0025                    0.0315                   4.872171295921987
0.0035                    -0.0315                  3.020110475356965
0.0035                    -0.0305                  3.0389658738846537
0.0035                    -0.0295                  3.0713574785813087
0.0035                    -0.0285                  3.111269462560765
0.0035                    -0.0275                  3.1545071507887674
0.0035                    -0.0265                  3.1988864750148602
0.0035                    -0.0255                  3.2435165842739515
0.0035                    -0.0245                  3.288091417613694
0.0035                    -0.0235                  3.3325164462246195
0.0035                    -0.0225                  3.376763844154483
0.0035                    -0.0215                  3.4208211707019474
0.0035                    -0.0205                  3.4646736492536245
0.0035                    -0.0195                  3.508300097486384
0.0035                    -0.0185                  3.5516761753503068
0.0035                    -0.0175                  3.5947837491846135
0.0035                    -0.0165                  3.6376265278941684
0.0035                    -0.0155                  3.680250330516653
0.0035                    -0.0145                  3.7227646486404646
0.0035                    -0.0135                  3.7653597288397553
0.0035                    -0.0125                  3.8083109576660172
0.0035                    -0.0115                  3.8519619291904164
0.0035                    -0.0105                  3.896680170693527
0.0035                    -0.0095                  3.942787497705821
0.0035                    -0.0085                  3.990480074775914
0.0035                    -0.0075                  4.039765458770016
0.0035                    -0.0065                  4.09044773565012
0.0035                    -0.0055                  4.142181719066614
0.0035                    -0.0045                  4.194590815430928
0.0035                    -0.0035                  4.247402544450378
0.0035                    -0.0025                  4.300524121513171
0.0035                    -0.0015                  4.354002397416089
0.0035                    -5.0E-4                  4.407873352602615
0.0035                    5.0E-4                   4.461966094515282
0.0035                    0.0015                   4.515714888198721
0.0035                    0.0025                   4.5679229376733765
0.0035                    0.0035                   4.616439897524753
0.0035                    0.0045                   4.6580449964760575
0.0035                    0.0055                   4.6893580839105695
0.0035                    0.0065                   4.708452919859283
0.0035                    0.0075                   4.716704544122247
0.0035                    0.0085                   4.718127130152398
0.0035                    0.0095                   4.716016144727652
0.0035                    0.0105                   4.711840475834487
0.0035                    0.0115                   4.706538550641153
0.0035                    0.0125                   4.701904966467218
0.0035                    0.0135                   4.700822986569122
0.0035                    0.0145                   4.709215647280754
0.0035                    0.0155                   4.734250327322007
0.0035                    0.0165                   4.770819157112415
0.0035                    0.0175                   4.802230403296659
0.0035                    0.0185                   4.821579824213669
0.0035                    0.0195                   4.834042154263832
0.0035                    0.0205                   4.844321730398259
0.0035                    0.0215                   4.8540384516963
0.0035                    0.0225                   4.86348373232215
0.0035                    0.0235                   4.871073562583193
0.0035                    0.0245                   4.8745462947701546
0.0035                    0.0255                   4.873032298014712
0.0035                    0.0265                   4.866996940691016
0.0035                    0.0275                   4.857920733480364
0.0035                    0.0285                   4.847485356543947
0.0035                    0.0295                   4.837704662071558
0.0035                    0.0305                   4.830401884471742
0.0035                    0.0315                   4.826582014974474
0.0045                    -0.0315                  2.9828271734360494
0.0045                    -0.0305                  2.999501958510578
0.0045                    -0.0295                  3.0293408222761364
0.0045                    -0.0285                  3.067848212538561
0.0045                    -0.0275                  3.1112753060896545
0.0045                    -0.0265                  3.1570336337127607
0.0045                    -0.0255                  3.203651367805601
0.0045                    -0.0245                  3.250423513676317
0.0045                    -0.0235                  3.297043421098461
0.0045                    -0.0225                  3.34337760419833
0.0045                    -0.0215                  3.3893595792192137
0.0045                    -0.0205                  3.434944626742821
0.0045                    -0.0195                  3.4800919865283473
0.0045                    -0.0185                  3.524760941054284
0.0045                    -0.0175                  3.568916716029893
0.0045                    -0.0165                  3.6125458442754437
0.0045                    -0.0155                  3.6556805706889284
0.0045                    -0.0145                  3.6984292104763092
0.0045                    -0.0135                  3.7410061116084035
0.0045                    -0.0125                  3.7837515465009153
0.0045                    -0.0115                  3.8271295788164252
0.0045                    -0.0105                  3.8716918747112055
0.0045                    -0.0095                  3.918000093413894
0.0045                    -0.0085                  3.9665127159264784
0.0045                    -0.0075                  4.017463002802458
0.0045                    -0.0065                  4.070773238657127
0.0045                    -0.0055                  4.126053166047041
0.0045                    -0.0045                  4.182708808333374
0.0045                    -0.0035                  4.240144028419901
0.0045                    -0.0025                  4.297966183162983
0.0045                    -0.0015                  4.356050646437702
0.0045                    -5.0E-4                  4.414388423684368
0.0045                    5.0E-4                   4.472745928478464
0.0045                    0.0015                   4.53026088953531
0.0045                    0.0025                   4.585140936796454
0.0045                    0.0035                   4.634501890031744
0.0045                    0.0045                   4.674520056803289
0.0045                    0.0055                   4.702229474504866
0.0045                    0.0065                   4.717282285828201
0.0045                    0.0075                   4.723091848632562
0.0045                    0.0085                   4.724211186573951
0.0045                    0.0095                   4.722656638952895
0.0045                    0.0105                   4.718998988065957
0.0045                    0.0115                   4.7140514896235945
0.0045                    0.0125                   4.709981094851219
0.0045                    0.0135                   4.7114178898505905
0.0045                    0.0145                   4.723782326642036
0.0045                    0.0155                   4.7471062261610095
0.0045                    0.0165                   4.773501998319043
0.0045                    0.0175                   4.793974198409452
0.0045                    0.0185                   4.807791941666676
0.0045                    0.0195                   4.8187887075514935
0.0045                    0.0205                   4.828192802346415
0.0045                    0.0215                   4.836065877044592
0.0045                    0.0225                   4.841836706874773
0.0045                    0.0235                   4.844239942818817
0.0045                    0.0245                   4.842586427304048
0.0045                    0.0255                   4.836919365627095
0.0045                    0.0265                   4.8276639906453065
0.0045                    0.0275                   4.816085441038989
0.0045                    0.0285                   4.804010974866906
0.0045                    0.0295                   4.79322787675348
0.0045                    0.0305                   4.785143301888626
0.0045                    0.0315                   4.780842807208666
0.0055                    -0.0315                  2.9443369195431943
0.0055                    -0.0305                  2.959272102290138
0.0055                    -0.0295                  2.98666270541592
0.0055                    -0.0285                  3.0231183908626433
0.0055                    -0.0275                  3.065567602124289
0.0055                    -0.0265                  3.111548818622086
0.0055                    -0.0255                  3.1593127793760765
0.0055                    -0.0245                  3.2077817498768533
0.0055                    -0.0235                  3.2563588919117463
0.0055                    -0.0225                  3.3047241786817017
0.0055                    -0.0215                  3.3526969206664385
0.0055                    -0.0205                  3.4001621255690577
0.0055                    -0.0195                  3.447034831837439
0.0055                    -0.0185                  3.4932443581046027
0.0055                    -0.0175                  3.5387311277917908
0.0055                    -0.0165                  3.583455292565203
0.0055                    -0.0155                  3.6274184199402866
0.0055                    -0.0145                  3.6706975648843527
0.0055                    -0.0135                  3.713486621744284
0.0055                    -0.0125                  3.7561351104606486
0.0055                    -0.0115                  3.799170760033536
0.0055                    -0.0105                  3.843289740243744
0.0055                    -0.0095                  3.8892971327230126
0.0055                    -0.0085                  3.937985373815015
0.0055                    -0.0075                  3.9899595630284903
0.0055                    -0.0065                  4.045453015533472
0.0055                    -0.0055                  4.104205050237486
0.0055                    -0.0045                  4.16547347559923
0.0055                    -0.0035                  4.228215562677885
0.0055                    -0.0025                  4.291410833124318
0.0055                    -0.0015                  4.354371029116269
0.0055                    -5.0E-4                  4.4167668151278345
0.0055                    5.0E-4                   4.47830024417258
0.0055                    0.0015                   4.538099411060751
0.0055                    0.0025                   4.59414114871078
0.0055                    0.0035                   4.643163102534118
0.0055                    0.0045                   4.681456106966645
0.0055                    0.0055                   4.706988569978639
0.0055                    0.0065                   4.7207077337651375
0.0055                    0.0075                   4.726708780732771
0.0055                    0.0085                   4.729006034938975
0.0055                    0.0095                   4.728641386100278
0.0055                    0.0105                   4.725464886174128
0.0055                    0.0115                   4.7202211606968225
0.0055                    0.0125                   4.716359982158712
0.0055                    0.0135                   4.7188267884463375
0.0055                    0.0145                   4.730233181971542
0.0055                    0.0155                   4.748352471014461
0.0055                    0.0165                   4.76695071271703
0.0055                    0.0175                   4.781813284794094
0.0055                    0.0185                   4.794022377215629
0.0055                    0.0195                   4.805022737041702
0.0055                    0.0205                   4.81426319417465
0.0055                    0.0215                   4.820528933825116
0.0055                    0.0225                   4.822363312904556
0.0055                    0.0235                   4.819189010844569
0.0055                    0.0245                   4.811675649022577
0.0055                    0.0255                   4.80091083916392
0.0055                    0.0265                   4.787927686291832
0.0055                    0.0275                   4.773924603694781
0.0055                    0.0285                   4.760299494051791
0.0055                    0.0295                   4.7484276275707735
0.0055                    0.0305                   4.739586774378809
0.0055                    0.0315                   4.734890247303729
0.0065                    -0.0315                  2.904927311022277
0.0065                    -0.0305                  2.9184565672158795
0.0065                    -0.0295                  2.9436748091579443
0.0065                    -0.0285                  2.9779435235036154
0.0065                    -0.0275                  3.0187909899579553
0.0065                    -0.0265                  3.0640886463491697
0.0065                    -0.0255                  3.1121110912890275
0.0065                    -0.0245                  3.16158924052214
0.0065                    -0.0235                  3.211674400153754
0.0065                    -0.0225                  3.2618291928289613
0.0065                    -0.0215                  3.3117124783930785
0.0065                    -0.0205                  3.361097706506483
0.0065                    -0.0195                  3.409825224307169
0.0065                    -0.0185                  3.457775657708668
0.0065                    -0.0175                  3.5048552518338276
0.0065                    -0.0165                  3.5509917795671466
0.0065                    -0.0155                  3.596144813200235
0.0065                    -0.0145                  3.640334366233171
0.0065                    -0.0135                  3.683687279658455
0.0065                    -0.0125                  3.7264937037946475
0.0065                    -0.0115                  3.7692596097988824
0.0065                    -0.0105                  3.812736882931987
0.0065                    -0.0095                  3.8579088243001998
0.0065                    -0.0085                  3.9059028637817077
0.0065                    -0.0075                  3.957805139641902
0.0065                    -0.0065                  4.0143871280835395
0.0065                    -0.0055                  4.07581382384396
0.0065                    -0.0045                  4.14144894628474
0.0065                    -0.0035                  4.209870844869997
0.0065                    -0.0025                  4.279152769900043
0.0065                    -0.0015                  4.347427588060782
0.0065                    -5.0E-4                  4.413488551714297
0.0065                    5.0E-4                   4.476836976768704
0.0065                    0.0015                   4.53712983328968
0.0065                    0.0025                   4.593046639284418
0.0065                    0.0035                   4.641578361895223
0.0065                    0.0045                   4.679292017535027
0.0065                    0.0055                   4.704691537779233
0.0065                    0.0065                   4.719505659504528
0.0065                    0.0075                   4.727657952498946
0.0065                    0.0085                   4.73190604165961
0.0065                    0.0095                   4.732271348508883
0.0065                    0.0105                   4.728149050487935
0.0065                    0.0115                   4.721379086178404