% Model:              Benchmark260518.mph
% Version:            COMSOL 6.2.0.339
% Date:               May 20 2026, 06:28
% Dimension:          2
% Nodes:              4096
% Expressions:        1
% Description:        压力
% Length unit:        m
% x                       y                        p (Pa)
5.0E-4                    -0.0315                  2.8274533532543096
5.0E-4                    -0.0305                  2.848774271918469
5.0E-4                    -0.0295                  2.8778448687320464
5.0E-4                    -0.0285                  2.909573452873577
5.0E-4                    -0.0275                  2.9427355742918326
5.0E-4                    -0.0265                  2.9769113762499235
5.0E-4                    -0.0255                  3.011865673209191
5.0E-4                    -0.0245                  3.047440847054377
5.0E-4                    -0.0235                  3.0835308637394934
5.0E-4                    -0.0225                  3.120069615854093
5.0E-4                    -0.0215                  3.1570037049984507
5.0E-4                    -0.0205                  3.1942880017083723
5.0E-4                    -0.0195                  3.2318952103279894
5.0E-4                    -0.0185                  3.2698036305659235
5.0E-4                    -0.0175                  3.307993125365378
5.0E-4                    -0.0165                  3.3464552529934113
5.0E-4                    -0.0155                  3.385190137663932
5.0E-4                    -0.0145                  3.4242010092280655
5.0E-4                    -0.0135                  3.4634951701695997
5.0E-4                    -0.0125                  3.5030842147568895
5.0E-4                    -0.0115                  3.54297453799311
5.0E-4                    -0.0105                  3.583160485012862
5.0E-4                    -0.0095                  3.623625730869065
5.0E-4                    -0.0085                  3.664338064136013
5.0E-4                    -0.0075                  3.705247729172996
5.0E-4                    -0.0065                  3.746294935157308
5.0E-4                    -0.0055                  3.787416641540901
5.0E-4                    -0.0045                  3.82855362425091
5.0E-4                    -0.0035                  3.869658938038535
5.0E-4                    -0.0025                  3.910699545843258
5.0E-4                    -0.0015                  3.9516570363838186
5.0E-4                    -5.0E-4                  3.9925349116542987
5.0E-4                    5.0E-4                   4.033356194670366
5.0E-4                    0.0015                   4.0741597316999325
5.0E-4                    0.0025                   4.115003252695172
5.0E-4                    0.0035                   4.155954403371654
5.0E-4                    0.0045                   4.197067656613444
5.0E-4                    0.0055                   4.238340904287087
5.0E-4                    0.0065                   4.279677218580459
5.0E-4                    0.0075                   4.320786380854244
5.0E-4                    0.0085                   4.361350470372001
5.0E-4                    0.0095                   4.4009157397678
5.0E-4                    0.0105                   4.437993360453897
5.0E-4                    0.0115                   4.470179146136083
5.0E-4                    0.0125                   4.495012147797663
5.0E-4                    0.0135                   4.510413495795051
5.0E-4                    0.0145                   4.516014211804541
5.0E-4                    0.0155                   4.5147034841547296
5.0E-4                    0.0165                   4.5106062660190664
5.0E-4                    0.0175                   4.505223847288975
5.0E-4                    0.0185                   4.500033906166197
5.0E-4                    0.0195                   4.516501836065218
5.0E-4                    0.0205                   4.607546949560147
5.0E-4                    0.0215                   4.75445664489029
5.0E-4                    0.0225                   4.870354123010277
5.0E-4                    0.0235                   4.93296306530944
5.0E-4                    0.0245                   4.965522268061052
5.0E-4                    0.0255                   4.983833316787319
5.0E-4                    0.0265                   4.993108871039827
5.0E-4                    0.0275                   4.9906460410203195
5.0E-4                    0.0285                   4.973791821085886
5.0E-4                    0.0295                   4.947783669090745
5.0E-4                    0.0305                   4.9206176741276835
5.0E-4                    0.0315                   4.899998083939089
0.0015                    -0.0315                  2.805970485935271
0.0015                    -0.0305                  2.827323293431171
0.0015                    -0.0295                  2.8583995529749027
0.0015                    -0.0285                  2.892491132619852
0.0015                    -0.0275                  2.9276892658633136
0.0015                    -0.0265                  2.9634912092107184
0.0015                    -0.0255                  2.9997412020085537
0.0015                    -0.0245                  3.036367097152092
0.0015                    -0.0235                  3.073325169580611
0.0015                    -0.0225                  3.110587363204681
0.0015                    -0.0215                  3.1481326553175006
0.0015                    -0.0205                  3.1859409781338592
0.0015                    -0.0195                  3.223993891351333
0.0015                    -0.0185                  3.262275424328676
0.0015                    -0.0175                  3.3007715031020775
0.0015                    -0.0165                  3.339473973223031
0.0015                    -0.0155                  3.378385029115285
0.0015                    -0.0145                  3.4175183907994144
0.0015                    -0.0135                  3.456900180849381
0.0015                    -0.0125                  3.4965673972730293
0.0015                    -0.0115                  3.536561451734818
0.0015                    -0.0105                  3.5769176869212416
0.0015                    -0.0095                  3.6176542151676028
0.0015                    -0.0085                  3.6587616529710503
0.0015                    -0.0075                  3.7001963197911047
0.0015                    -0.0065                  3.741881861200862
0.0015                    -0.0055                  3.7837191612410668
0.0015                    -0.0045                  3.8256008967749677
0.0015                    -0.0035                  3.8674265007050592
0.0015                    -0.0025                  3.9091139137796835
0.0015                    -0.0015                  3.950607499838873
0.0015                    -5.0E-4                  3.991882283844467
0.0015                    5.0E-4                   4.032946160859355
0.0015                    0.0015                   4.073844560062409
0.0015                    0.0025                   4.114671969119465
0.0015                    0.0035                   4.155587573133167
0.0015                    0.0045                   4.196823706743707
0.0015                    0.0055                   4.238667524869268
0.0015                    0.0065                   4.281377419147653
0.0015                    0.0075                   4.325065705843529
0.0015                    0.0085                   4.369450376113821
0.0015                    0.0095                   4.413269674802155
0.0015                    0.0105                   4.453877709942954
0.0015                    0.0115                   4.487737100988082
0.0015                    0.0125                   4.5114792036423
0.0015                    0.0135                   4.523312701756023
0.0015                    0.0145                   4.524655073350489
0.0015                    0.0155                   4.520003902607759
0.0015                    0.0165                   4.513130354502624
0.0015                    0.0175                   4.505952950965683
0.0015                    0.0185                   4.502207062497979
0.0015                    0.0195                   4.505627562192121
0.0015                    0.0205                   4.592566138193185
0.0015                    0.0215                   4.742518301328845
0.0015                    0.0225                   4.844276876845108
0.0015                    0.0235                   4.894813103649197
0.0015                    0.0245                   4.918992581988786
0.0015                    0.0255                   4.9342304600771465
0.0015                    0.0265                   4.945435499576958
0.0015                    0.0275                   4.9513839521455
0.0015                    0.0285                   4.946490196842669
0.0015                    0.0295                   4.927220388363198
0.0015                    0.0305                   4.900134897036732
0.0015                    0.0315                   4.879131595871687
0.0025                    -0.0315                  2.7763663608119695
0.0025                    -0.0305                  2.7958130980749907
0.0025                    -0.0295                  2.826937381845715
0.0025                    -0.0285                  2.862965057228335
0.0025                    -0.0275                  2.9006187243285027
0.0025                    -0.0265                  2.9387542170409007
0.0025                    -0.0255                  2.97704175133466
0.0025                    -0.0245                  3.0154073200644333
0.0025                    -0.0235                  3.053849202483282
0.0025                    -0.0225                  3.0923824250771546
0.0025                    -0.0215                  3.1310227637097086
0.0025                    -0.0205                  3.1697801485785138
0.0025                    -0.0195                  3.2086550936062412
0.0025                    -0.0185                  3.2476405549155696
0.0025                    -0.0175                  3.2867265752574597
0.0025                    -0.0165                  3.3259058296157904
0.0025                    -0.0155                  3.3651822819678037
0.0025                    -0.0145                  3.404580395367109
0.0025                    -0.0135                  3.44415090364101
0.0025                    -0.0125                  3.4839716799613845
0.0025                    -0.0115                  3.5241419200288098
0.0025                    -0.0105                  3.564767336910162
0.0025                    -0.0095                  3.6059370608510664
0.0025                    -0.0085                  3.647698296880588
0.0025                    -0.0075                  3.6900356314112424
0.0025                    -0.0065                  3.732861991396164
0.0025                    -0.0055                  3.7760266293981273
0.0025                    -0.0045                  3.819338247077554
0.0025                    -0.0035                  3.862595713687689
0.0025                    -0.0025                  3.9056178605848326
0.0025                    -0.0015                  3.948264930995243
0.0025                    -5.0E-4                  3.990449840866884
0.0025                    5.0E-4                   4.032144850397979
0.0025                    0.0015                   4.073391574508431
0.0025                    0.0025                   4.114324379669377
0.0025                    0.0035                   4.155213513241667
0.0025                    0.0045                   4.19651475214806
0.0025                    0.0055                   4.238887865625027
0.0025                    0.0065                   4.283117341995357
0.0025                    0.0075                   4.329798587533056
0.0025                    0.0085                   4.378664390973835
0.0025                    0.0095                   4.42768397410746
0.0025                    0.0105                   4.472571893396951
0.0025                    0.0115                   4.507999939238669
0.0025                    0.0125                   4.529865734822223
0.0025                    0.0135                   4.537978328545947
0.0025                    0.0145                   4.536308633175999
0.0025                    0.0155                   4.528965954609832
0.0025                    0.0165                   4.5193001093871565
0.0025                    0.0175                   4.511500260644847
0.0025                    0.0185                   4.512439950773462
0.0025                    0.0195                   4.549574539969786
0.0025                    0.0205                   4.647378676780264
0.0025                    0.0215                   4.759801427337831
0.0025                    0.0225                   4.833046085617915
0.0025                    0.0235                   4.869729812364472
0.0025                    0.0245                   4.8880576809114
0.0025                    0.0255                   4.900705013108248
0.0025                    0.0265                   4.910548838902744
0.0025                    0.0275                   4.915610402349108
0.0025                    0.0285                   4.911111513449802
0.0025                    0.0295                   4.893884886904486
0.0025                    0.0305                   4.868873662139651
0.0025                    0.0315                   4.849771804565208
0.0035                    -0.0315                  2.74364644840354
0.0035                    -0.0305                  2.760916364927194
0.0035                    -0.0295                  2.790300421186371
0.0035                    -0.0285                  2.826447962229286
0.0035                    -0.0275                  2.8656096287231447
0.0035                    -0.0265                  2.905801557004804
0.0035                    -0.0255                  2.9462068490496742
0.0035                    -0.0245                  2.986552117798076
0.0035                    -0.0235                  3.0267766368140254
0.0035                    -0.0225                  3.066893610475813
0.0035                    -0.0215                  3.106935692395473
0.0035                    -0.0205                  3.1469331828282208
0.0035                    -0.0195                  3.186904405639877
0.0035                    -0.0185                  3.2268529861700395
0.0035                    -0.0175                  3.266771570880599
0.0035                    -0.0165                  3.3066506246270926
0.0035                    -0.0155                  3.346491305797277
0.0035                    -0.0145                  3.3863209543275143
0.0035                    -0.0135                  3.4262070087343632
0.0035                    -0.0125                  3.4662647767099033
0.0035                    -0.0115                  3.5066550440777844
0.0035                    -0.0105                  3.5475679540279814
0.0035                    -0.0095                  3.589191839735366
0.0035                    -0.0085                  3.6316708247505947
0.0035                    -0.0075                  3.675061448895651
0.0035                    -0.0065                  3.719302067998309
0.0035                    -0.0055                  3.7642073946516805
0.0035                    -0.0045                  3.809493098570117
0.0035                    -0.0035                  3.8548240002479512
0.0035                    -0.0025                  3.8998702880057174
0.0035                    -0.0015                  3.9443548684650507
0.0035                    -5.0E-4                  3.9880828184274653
0.0035                    5.0E-4                   4.030955810126297
0.0035                    0.0015                   4.072983192647231
0.0035                    0.0025                   4.1143048863978775
0.0035                    0.0035                   4.155242656878979
0.0035                    0.0045                   4.19637722985944
0.0035                    0.0055                   4.238603927992525
0.0035                    0.0065                   4.283068772916987
0.0035                    0.0075                   4.330801185123966
0.0035                    0.0085                   4.381880371911037
0.0035                    0.0095                   4.434208126349701
0.0035                    0.0105                   4.482546386223159
0.0035                    0.0115                   4.5202241530629985
0.0035                    0.0125                   4.542439519813702
0.0035                    0.0135                   4.550384765497705
0.0035                    0.0145                   4.548841331082171
0.0035                    0.0155                   4.541101260612777
0.0035                    0.0165                   4.531125189077786
0.0035                    0.0175                   4.526631717152762
0.0035                    0.0185                   4.5430834094285775
0.0035                    0.0195                   4.601775396376306
0.0035                    0.0205                   4.692900230018761
0.0035                    0.0215                   4.774827840560616
0.0035                    0.0225                   4.824675116291116
0.0035                    0.0235                   4.849359055588176
0.0035                    0.0245                   4.863775159161022
0.0035                    0.0255                   4.875034902136785
0.0035                    0.0265                   4.883189944829322
0.0035                    0.0275                   4.8848648804027395
0.0035                    0.0285                   4.876064434131549
0.0035                    0.0295                   4.856746298788797
0.0035                    0.0305                   4.833073054891157
0.0035                    0.0315                   4.816242964664159
0.0045                    -0.0315                  2.7092136701306604
0.0045                    -0.0305                  2.7246210069073205
0.0045                    -0.0295                  2.7518256347413574
0.0045                    -0.0285                  2.786764340392868
0.0045                    -0.0275                  2.826091340583347
0.0045                    -0.0265                  2.8674629139404564
0.0045                    -0.0255                  2.909545835103219
0.0045                    -0.0245                  2.951716123649736
0.0045                    -0.0235                  2.9937315844352366
0.0045                    -0.0225                  3.035526880632679
0.0045                    -0.0215                  3.0771092101884236
0.0045                    -0.0205                  3.1185078005975284
0.0045                    -0.0195                  3.159749117692948
0.0045                    -0.0185                  3.2008451923174364
0.0045                    -0.0175                  3.24179142769617
0.0045                    -0.0165                  3.282573497317066
0.0045                    -0.0155                  3.323182379128055
0.0045                    -0.0145                  3.3636352440685506
0.0045                    -0.0135                  3.4039979846999677
0.0045                    -0.0125                  3.444403117299589
0.0045                    -0.0115                  3.4850564578070133
0.0045                    -0.0105                  3.5262267131679157
0.0045                    -0.0095                  3.568213620222254
0.0045                    -0.0085                  3.6112941925824926
0.0045                    -0.0075                  3.65565471451742
0.0045                    -0.0065                  3.701326203850203
0.0045                    -0.0055                  3.7481466205265916
0.0045                    -0.0045                  3.7957682505322348
0.0045                    -0.0035                  3.843712810171068
0.0045                    -0.0025                  3.89145770896281
0.0045                    -0.0015                  3.938524803406013
0.0045                    -5.0E-4                  3.9845447516187744
0.0045                    5.0E-4                   4.029287878471019
0.0045                    0.0015                   4.072674536039426
0.0045                    0.0025                   4.114786128288307
0.0045                    0.0035                   4.155894559511494
0.0045                    0.0045                   4.196531518760924
0.0045                    0.0055                   4.2375708005712935
0.0045                    0.0065                   4.28020940823461
0.0045                    0.0075                   4.325759267468801
0.0045                    0.0085                   4.37501461474136
0.0045                    0.0095                   4.426894353506687
0.0045                    0.0105                   4.477107823698146
0.0045                    0.0115                   4.519483133014803
0.0045                    0.0125                   4.547305277643279
0.0045                    0.0135                   4.560319392963849
0.0045                    0.0145                   4.5627281800886115
0.0045                    0.0155                   4.5569419132503075
0.0045                    0.0165                   4.549488682561233
0.0045                    0.0175                   4.554307806893199
0.0045                    0.0185                   4.588272646902793
0.0045                    0.0195                   4.6527113051125735
0.0045                    0.0205                   4.72523205696196
0.0045                    0.0215                   4.780601511452753
0.0045                    0.0225                   4.812594449214006
0.0045                    0.0235                   4.830439180645909
0.0045                    0.0245                   4.8430865729232115
0.0045                    0.0255                   4.85334039990673
0.0045                    0.0265                   4.859298657629175
0.0045                    0.0275                   4.856437984870462
0.0045                    0.0285                   4.842132132997601
0.0045                    0.0295                   4.819306708325106
0.0045                    0.0305                   4.795262635952478
0.0045                    0.0315                   4.779546206675683
0.0055                    -0.0315                  2.673694288105807
0.0055                    -0.0305                  2.68757241654627
0.0055                    -0.0295                  2.7126954228404694
0.0055                    -0.0285                  2.7459010494389196
0.0055                    -0.0275                  2.784406779493188
0.0055                    -0.0265                  2.8259718577918767
0.0055                    -0.0255                  2.8690086602438187
0.0055                    -0.0245                  2.9125601689121883
0.0055                    -0.0235                  2.9561325146328454
0.0055                    -0.0225                  2.999509167875055
0.0055                    -0.0215                  3.042619251799411
0.0055                    -0.0205                  3.0854590723866275
0.0055                    -0.0195                  3.128047145228329
0.0055                    -0.0185                  3.1703984652998036
0.0055                    -0.0175                  3.212511713797332
0.0055                    -0.0165                  3.254368335216209
0.0055                    -0.0155                  3.2959439970757147
0.0055                    -0.0145                  3.337231454917269
0.0055                    -0.0135                  3.378270733892281
0.0055                    -0.0125                  3.419179279086694
0.0055                    -0.0115                  3.460173084106919
0.0055                    -0.0105                  3.5015702646472944
0.0055                    -0.0095                  3.543769603562722
0.0055                    -0.0085                  3.5871981947455462
0.0055                    -0.0075                  3.632227752798178
0.0055                    -0.0065                  3.6790722583247604
0.0055                    -0.0055                  3.7276967675174344
0.0055                    -0.0045                  3.777775332173489
0.0055                    -0.0035                  3.8287238304116546
0.0055                    -0.0025                  3.8798033585000162
0.0055                    -0.0015                  3.9302594797590613
0.0055                    -5.0E-4                  3.979447155188213
0.0055                    5.0E-4                   4.0269013579359045
0.0055                    0.0015                   4.072351873843981
0.0055                    0.0025                   4.115718455486751
0.0055                    0.0035                   4.157116004031334
0.0055                    0.0045                   4.19687574951437
0.0055                    0.0055                   4.23562535394653
0.0055                    0.0065                   4.274401111491172
0.0055                    0.0075                   4.314596079114531
0.0055                    0.0085                   4.357758272435143
0.0055                    0.0095                   4.404806225361682
0.0055                    0.0105                   4.454206834008073
0.0055                    0.0115                   4.502097991693211
0.0055                    0.0125                   4.540733159879023
0.0055                    0.0135                   4.565014024404728
0.0055                    0.0145                   4.574341621514534
0.0055                    0.0155                   4.57111486361003
0.0055                    0.0165                   4.568652324843767
0.0055                    0.0175                   4.584859629649901
0.0055                    0.0185                   4.627182595468612
0.0055                    0.0195                   4.684557138303568
0.0055                    0.0205                   4.737665985780123
0.0055                    0.0215                   4.77416896076784
0.0055                    0.0225                   4.796139251899985
0.0055                    0.0235                   4.811741321166457
0.0055                    0.0245                   4.824185442283304
0.0055                    0.0255                   4.833260338542749
0.0055                    0.0265                   4.835726623696325
0.0055                    0.0275                   4.827301778056407
0.0055                    0.0285                   4.807555826918957
0.0055                    0.0295                   4.781244756353682
0.0055                    0.0305                   4.75600421158935
0.0055                    0.0315                   4.740416986370079
0.0065                    -0.0315                  2.6373718128897865
0.0065                    -0.0305                  2.650016692511228
0.0065                    -0.0295                  2.673295077681045
0.0065                    -0.0285                  2.7046807635042907
0.0065                    -0.0275                  2.741869374889994
0.0065                    -0.0265                  2.782882965633617
0.0065                    -0.0255                  2.826135479345499
0.0065                    -0.0245                  2.8704875370117953
0.0065                    -0.0235                  2.9152190890110914
0.0065                    -0.0225                  2.9599299842931286
0.0065                    -0.0215                  3.004428325862828
0.0065                    -0.0205                  3.048642897512268
0.0065                    -0.0195                  3.0925630322805784
0.0065                    -0.0185                  3.1361981789758433
0.0065                    -0.0175                  3.1795512443977327
0.0065                    -0.0165                  3.222604490907562
0.0065                    -0.0155                  3.265320121119654
0.0065                    -0.0145                  3.307657833400384
0.0065                    -0.0135                  3.3496082092176964
0.0065                    -0.0125                  3.391235168651312
0.0065                    -0.0115                  3.432716009671146
0.0065                    -0.0105                  3.4743666926948586
0.0065                    -0.0095                  3.5166420322819327
0.0065                    -0.0085                  3.560101364431283
0.0065                    -0.0075                  3.605330158539142
0.0065                    -0.0065                  3.6528146278562703
0.0065                    -0.0055                  3.7027890615231227
0.0065                    -0.0045                  3.7551064346396563
0.0065                    -0.0035                  3.8091943332887177
0.0065                    -0.0025                  3.864130725257608
0.0065                    -0.0015                  3.9188176993461594
0.0065                    -5.0E-4                  3.9721878437347593
0.0065                    5.0E-4                   4.023362350312115
0.0065                    0.0015                   4.071711067654558
0.0065                    0.0025                   4.116840296279102
0.0065                    0.0035                   4.158591403939646
0.0065                    0.0045                   4.197061660579441
0.0065                    0.0055                   4.232627031552197
0.0065                    0.0065                   4.266118541072739
0.0065                    0.0075                   4.299095423720842
0.0065                    0.0085                   4.333608115168833
0.0065                    0.0095                   4.3721680404242225
0.0065                    0.0105                   4.416440295336949
0.0065                    0.0115                   4.46635835988984