% Model:              Benchmark260518.mph
% Version:            COMSOL 6.2.0.339
% Date:               May 20 2026, 08:01
% Dimension:          2
% Nodes:              4096
% Expressions:        1
% Description:        压力
% Length unit:        m
% x                       y                        p (Pa)
5.0E-4                    -0.0315                  2.6745931841679473
5.0E-4                    -0.0305                  2.725983293890287
5.0E-4                    -0.0295                  2.796039601921769
5.0E-4                    -0.0285                  2.8722698620715077
5.0E-4                    -0.0275                  2.952053054607594
5.0E-4                    -0.0265                  3.034397600050994
5.0E-4                    -0.0255                  3.1185818629191493
5.0E-4                    -0.0245                  3.204173367337215
5.0E-4                    -0.0235                  3.2909233420467587
5.0E-4                    -0.0225                  3.378791040689637
5.0E-4                    -0.0215                  3.4679743115868327
5.0E-4                    -0.0205                  3.558845862429828
5.0E-4                    -0.0195                  3.6517871007343574
5.0E-4                    -0.0185                  3.746980060769702
5.0E-4                    -0.0175                  3.8443375987272423
5.0E-4                    -0.0165                  3.9436001202838957
5.0E-4                    -0.0155                  4.0445060275273255
5.0E-4                    -0.0145                  4.14683013618416
5.0E-4                    -0.0135                  4.250093269844353
5.0E-4                    -0.0125                  4.353664479007374
5.0E-4                    -0.0115                  4.455427368226287
5.0E-4                    -0.0105                  4.548838630662803
5.0E-4                    -0.0095                  4.625050395199223
5.0E-4                    -0.0085                  4.675144039880424
5.0E-4                    -0.0075                  4.6990474552791195
5.0E-4                    -0.0065                  4.707179426772925
5.0E-4                    -0.0055                  4.70784205037476
5.0E-4                    -0.0045                  4.704846322055943
5.0E-4                    -0.0035                  4.699710332090082
5.0E-4                    -0.0025                  4.692755416825733
5.0E-4                    -0.0015                  4.684318064326527
5.0E-4                    -5.0E-4                  4.675387814346214
5.0E-4                    5.0E-4                   4.667271662230211
5.0E-4                    0.0015                   4.661213608904334
5.0E-4                    0.0025                   4.658329904952771
5.0E-4                    0.0035                   4.659423940509255
5.0E-4                    0.0045                   4.664914664255962
5.0E-4                    0.0055                   4.674760507160349
5.0E-4                    0.0065                   4.688194683602703
5.0E-4                    0.0075                   4.70328994757262
5.0E-4                    0.0085                   4.716599690671419
5.0E-4                    0.0095                   4.723542967186651
5.0E-4                    0.0105                   4.719863694890956
5.0E-4                    0.0115                   4.703953557661136
5.0E-4                    0.0125                   4.677725398338386
5.0E-4                    0.0135                   4.645588034792006
5.0E-4                    0.0145                   4.613063678277523
5.0E-4                    0.0155                   4.585083583357229
5.0E-4                    0.0165                   4.564222702355706
5.0E-4                    0.0175                   4.550244450492996
5.0E-4                    0.0185                   4.542169604090139
5.0E-4                    0.0195                   4.550856126538056
5.0E-4                    0.0205                   4.647583480840413
5.0E-4                    0.0215                   4.835427248226113
5.0E-4                    0.0225                   4.986281880599264
5.0E-4                    0.0235                   5.046381105078773
5.0E-4                    0.0245                   5.0518051396429
5.0E-4                    0.0255                   5.03717650732815
5.0E-4                    0.0265                   5.024470044737292
5.0E-4                    0.0275                   5.018454728930459
5.0E-4                    0.0285                   5.015389678511827
5.0E-4                    0.0295                   5.0125005466981385
5.0E-4                    0.0305                   5.009031319614557
5.0E-4                    0.0315                   5.005920577196541
0.0015                    -0.0315                  2.62269465368165
0.0015                    -0.0305                  2.673881290264827
0.0015                    -0.0295                  2.748547148495503
0.0015                    -0.0285                  2.830348028594059
0.0015                    -0.0275                  2.9148944750249686
0.0015                    -0.0265                  3.0011748789334862
0.0015                    -0.0255                  3.0886970044173827
0.0015                    -0.0245                  3.177007197236716
0.0015                    -0.0235                  3.265728380052547
0.0015                    -0.0225                  3.3546841933036036
0.0015                    -0.0215                  3.444076430780466
0.0015                    -0.0205                  3.534593391122134
0.0015                    -0.0195                  3.627300043413023
0.0015                    -0.0185                  3.7232230736177696
0.0015                    -0.0175                  3.822823664409376
0.0015                    -0.0165                  3.9258405729978456
0.0015                    -0.0155                  4.03164672017323
0.0015                    -0.0145                  4.13971375618198
0.0015                    -0.0135                  4.2495684409298695
0.0015                    -0.0125                  4.36001004605941
0.0015                    -0.0115                  4.467294705985429
0.0015                    -0.0105                  4.563266647994896
0.0015                    -0.0095                  4.638214574975192
0.0015                    -0.0085                  4.683706655068131
0.0015                    -0.0075                  4.703277520176876
0.0015                    -0.0065                  4.709625023447645
0.0015                    -0.0055                  4.709697926766306
0.0015                    -0.0045                  4.706417420327264
0.0015                    -0.0035                  4.70082259906333
0.0015                    -0.0025                  4.692779189784372
0.0015                    -0.0015                  4.682699338157885
0.0015                    -5.0E-4                  4.672073957747872
0.0015                    5.0E-4                   4.662690193882521
0.0015                    0.0015                   4.655940521030268
0.0015                    0.0025                   4.652707103250384
0.0015                    0.0035                   4.653375366106816
0.0015                    0.0045                   4.657969483172387
0.0015                    0.0055                   4.666244811137022
0.0015                    0.0065                   4.6775978892703725
0.0015                    0.0075                   4.690653328014217
0.0015                    0.0085                   4.702743633472426
0.0015                    0.0095                   4.709929967851176
0.0015                    0.0105                   4.707983341103823
0.0015                    0.0115                   4.694548479373882
0.0015                    0.0125                   4.6705129385623545
0.0015                    0.0135                   4.639876831183896
0.0015                    0.0145                   4.608230604510424
0.0015                    0.0155                   4.580889498241504
0.0015                    0.0165                   4.560922833716066
0.0015                    0.0175                   4.548523394420504
0.0015                    0.0185                   4.545774772035562
0.0015                    0.0195                   4.567729463712061
0.0015                    0.0205                   4.712904026175151
0.0015                    0.0215                   4.939177058729344
0.0015                    0.0225                   5.081841001625588
0.0015                    0.0235                   5.119723245293698
0.0015                    0.0245                   5.096398494726673
0.0015                    0.0255                   5.057969490821824
0.0015                    0.0265                   5.030332586403517
0.0015                    0.0275                   5.018610953130426
0.0015                    0.0285                   5.014638666266471
0.0015                    0.0295                   5.010943994285544
0.0015                    0.0305                   5.006218216315821
0.0015                    0.0315                   5.0026682559716384
0.0025                    -0.0315                  2.5515839615230926
0.0025                    -0.0305                  2.597382610559176
0.0025                    -0.0295                  2.671318056323663
0.0025                    -0.0285                  2.7571289004634565
0.0025                    -0.0275                  2.847189822552163
0.0025                    -0.0265                  2.939018488095539
0.0025                    -0.0255                  3.0317611546116545
0.0025                    -0.0245                  3.12475803065282
0.0025                    -0.0235                  3.217302527566671
0.0025                    -0.0225                  3.3088512647527257
0.0025                    -0.0215                  3.399381322607826
0.0025                    -0.0205                  3.4897722803795874
0.0025                    -0.0195                  3.5819468183684786
0.0025                    -0.0185                  3.6784764208829857
0.0025                    -0.0175                  3.7814526069813046
0.0025                    -0.0165                  3.891294010111286
0.0025                    -0.0155                  4.006565102838401
0.0025                    -0.0145                  4.125059190753025
0.0025                    -0.0135                  4.244901566460177
0.0025                    -0.0125                  4.363419568309549
0.0025                    -0.0115                  4.475187543601567
0.0025                    -0.0105                  4.571215731699627
0.0025                    -0.0095                  4.642293254763074
0.0025                    -0.0085                  4.68429110745889
0.0025                    -0.0075                  4.7041611184212435
0.0025                    -0.0065                  4.712046975381792
0.0025                    -0.0055                  4.711825384485611
0.0025                    -0.0045                  4.705495668710581
0.0025                    -0.0035                  4.694350899279579
0.0025                    -0.0025                  4.679818261932835
0.0025                    -0.0015                  4.66445488610157
0.0025                    -5.0E-4                  4.650930952876903
0.0025                    5.0E-4                   4.641039359407563
0.0025                    0.0015                   4.635439633196799
0.0025                    0.0025                   4.633966932153606
0.0025                    0.0035                   4.635871934441502
0.0025                    0.0045                   4.640146567373382
0.0025                    0.0055                   4.646070001685502
0.0025                    0.0065                   4.653358421211761
0.0025                    0.0075                   4.661831349702439
0.0025                    0.0085                   4.6707590521560105
0.0025                    0.0095                   4.678150990818453
0.0025                    0.0105                   4.680749866862548
0.0025                    0.0115                   4.6751970366538185
0.0025                    0.0125                   4.660155262050655
0.0025                    0.0135                   4.63779731368245
0.0025                    0.0145                   4.6127329618299076
0.0025                    0.0155                   4.590635342674436
0.0025                    0.0165                   4.576638733551521
0.0025                    0.0175                   4.577301562417783
0.0025                    0.0185                   4.60739355396022
0.0025                    0.0195                   4.712140930251383
0.0025                    0.0205                   4.91513630753238
0.0025                    0.0215                   5.119412874010146
0.0025                    0.0225                   5.223928036276778
0.0025                    0.0235                   5.224042272149134
0.0025                    0.0245                   5.162644748389045
0.0025                    0.0255                   5.092230211777888
0.0025                    0.0265                   5.042841105708986
0.0025                    0.0275                   5.0205082545677495
0.0025                    0.0285                   5.012656560702396
0.0025                    0.0295                   5.007024612646497
0.0025                    0.0305                   5.00143512497292
0.0025                    0.0315                   4.9980932679853005
0.0035                    -0.0315                  2.474172974478816
0.0035                    -0.0305                  2.5135822128769236
0.0035                    -0.0295                  2.5819235549121515
0.0035                    -0.0285                  2.666711418931545
0.0035                    -0.0275                  2.7593772194039845
0.0035                    -0.0265                  2.8556157778078255
0.0035                    -0.0255                  2.953543709406053
0.0035                    -0.0245                  3.0519996729726775
0.0035                    -0.0235                  3.149796497293077
0.0035                    -0.0225                  3.2457832932412085
0.0035                    -0.0215                  3.3393282349241544
0.0035                    -0.0205                  3.4309469069287095
0.0035                    -0.0195                  3.5229328566135054
0.0035                    -0.0185                  3.6193404268159988
0.0035                    -0.0175                  3.724957346534078
0.0035                    -0.0165                  3.8425925772730825
0.0035                    -0.0155                  3.9705861943911875
0.0035                    -0.0145                  4.103274458717738
0.0035                    -0.0135                  4.233996278121459
0.0035                    -0.0125                  4.358137861526872
0.0035                    -0.0115                  4.470854141028358
0.0035                    -0.0105                  4.5639079968614915
0.0035                    -0.0095                  4.630439704014887
0.0035                    -0.0085                  4.672108400883091
0.0035                    -0.0075                  4.69650519628312
0.0035                    -0.0065                  4.707383283548588
0.0035                    -0.0055                  4.70425448153451
0.0035                    -0.0045                  4.6892863594903265
0.0035                    -0.0035                  4.667525000571501
0.0035                    -0.0025                  4.644371933543201
0.0035                    -0.0015                  4.624196835599778
0.0035                    -5.0E-4                  4.609975309655148
0.0035                    5.0E-4                   4.60315015674354
0.0035                    0.0015                   4.602861660119418
0.0035                    0.0025                   4.606840837243591
0.0035                    0.0035                   4.612458285906325
0.0035                    0.0045                   4.617501325308686
0.0035                    0.0055                   4.620791037553938
0.0035                    0.0065                   4.622501282655893
0.0035                    0.0075                   4.624028920840919
0.0035                    0.0085                   4.627166091203589
0.0035                    0.0095                   4.633049162053071
0.0035                    0.0105                   4.64138782731211
0.0035                    0.0115                   4.650018331219808
0.0035                    0.0125                   4.6557185907898315
0.0035                    0.0135                   4.656351346782024
0.0035                    0.0145                   4.653010353825286
0.0035                    0.0155                   4.650752614308651
0.0035                    0.0165                   4.659126005771321
0.0035                    0.0175                   4.6940911971207955
0.0035                    0.0185                   4.7799553160262676
0.0035                    0.0195                   4.93876592000366
0.0035                    0.0205                   5.142865499182641
0.0035                    0.0215                   5.30994415596123
0.0035                    0.0225                   5.377970293980874
0.0035                    0.0235                   5.340856726851184
0.0035                    0.0245                   5.239802249939168
0.0035                    0.0255                   5.132523552590544
0.0035                    0.0265                   5.057013045967579
0.0035                    0.0275                   5.021156289139948
0.0035                    0.0285                   5.008265407264018
0.0035                    0.0295                   5.001376474710333
0.0035                    0.0305                   4.996122171636787
0.0035                    0.0315                   4.993637831547395
0.0045                    -0.0315                  2.393504829130831
0.0045                    -0.0305                  2.4276210625190155
0.0045                    -0.0295                  2.48929468771163
0.0045                    -0.0285                  2.569543363231451
0.0045                    -0.0275                  2.660965486102107
0.0045                    -0.0265                  2.758699271390164
0.0045                    -0.0255                  2.860030876891871
0.0045                    -0.0245                  2.963313380675818
0.0045                    -0.0235                  3.0669704099186825
0.0045                    -0.0225                  3.1691561137019413
0.0045                    -0.0215                  3.2682381964372516
0.0045                    -0.0205                  3.3637205400343126
0.0045                    -0.0195                  3.4572809373765474
0.0045                    -0.0185                  3.5537258064614505
0.0045                    -0.0175                  3.6599101708676995
0.0045                    -0.0165                  3.7827142513530143
0.0045                    -0.0155                  3.923727346189437
0.0045                    -0.0145                  4.073215996845946
0.0045                    -0.0135                  4.21595885408839
0.0045                    -0.0125                  4.345060377990298
0.0045                    -0.0115                  4.457827832338891
0.0045                    -0.0105                  4.546832327197947
0.0045                    -0.0095                  4.608411499833479
0.0045                    -0.0085                  4.6493282286764925
0.0045                    -0.0075                  4.676229135467346
0.0045                    -0.0065                  4.6861993151528125
0.0045                    -0.0055                  4.675925776467118
0.0045                    -0.0045                  4.65061997397101
0.0045                    -0.0035                  4.619502965795617
0.0045                    -0.0025                  4.591195470515508
0.0045                    -0.0015                  4.572115341505164
0.0045                    -5.0E-4                  4.564265875030499
0.0045                    5.0E-4                   4.566245271668027
0.0045                    0.0015                   4.57472675069695
0.0045                    0.0025                   4.585734514856153
0.0045                    0.0035                   4.595665863542743
0.0045                    0.0045                   4.60184516324955
0.0045                    0.0055                   4.602914403431585
0.0045                    0.0065                   4.599390387255935
0.0045                    0.0075                   4.593954755836542
0.0045                    0.0085                   4.590669638034438
0.0045                    0.0095                   4.593671204082595
0.0045                    0.0105                   4.6060453152544
0.0045                    0.0115                   4.628749400640356
0.0045                    0.0125                   4.65974081753451
0.0045                    0.0135                   4.694027084151948
0.0045                    0.0145                   4.727533531181657
0.0045                    0.0155                   4.761693281172076
0.0045                    0.0165                   4.80632657469631
0.0045                    0.0175                   4.87886584934511
0.0045                    0.0185                   4.995664667528572
0.0045                    0.0195                   5.156050619958227
0.0045                    0.0205                   5.326132476038752
0.0045                    0.0215                   5.452479792462022
0.0045                    0.0225                   5.492072026096774
0.0045                    0.0235                   5.429620174906972
0.0045                    0.0245                   5.2932623157533865
0.0045                    0.0255                   5.148848720745326
0.0045                    0.0265                   5.0517746271747335
0.0045                    0.0275                   5.0090619563166605
0.0045                    0.0285                   4.996869707740959
0.0045                    0.0295                   4.993466729872448
0.0045                    0.0305                   4.991034751364526
0.0045                    0.0315                   4.989927108428004
0.0055                    -0.0315                  2.3106394392876934
0.0055                    -0.0305                  2.3409763206829255
0.0055                    -0.0295                  2.396924352691218
0.0055                    -0.0285                  2.4716285402677736
0.0055                    -0.0275                  2.5591292069805838
0.0055                    -0.0265                  2.655107772547412
0.0055                    -0.0255                  2.7568829317941197
0.0055                    -0.0245                  2.8628729414436975
0.0055                    -0.0235                  2.9716301182045015
0.0055                    -0.0225                  3.0810093567290586
0.0055                    -0.0215                  3.188137706720326
0.0055                    -0.0205                  3.2907799948869627
0.0055                    -0.0195                  3.3890686725584764
0.0055                    -0.0185                  3.4866232348565793
0.0055                    -0.0175                  3.5905628484293484
0.0055                    -0.0165                  3.7132524449940076
0.0055                    -0.0155                  3.8632961181403314
0.0055                    -0.0145                  4.029976926987867
0.0055                    -0.0135                  4.190089389422292
0.0055                    -0.0125                  4.330821319014195
0.0055                    -0.0115                  4.44730142042653
0.0055                    -0.0105                  4.532463861382828
0.0055                    -0.0095                  4.587994887332648
0.0055                    -0.0085                  4.624692272935928
0.0055                    -0.0075                  4.647260825832515
0.0055                    -0.0065                  4.649863220925605
0.0055                    -0.0055                  4.630309736881917
0.0055                    -0.0045                  4.596964716507813
0.0055                    -0.0035                  4.562625260726033
0.0055                    -0.0025                  4.538392222085013
0.0055                    -0.0015                  4.529082797981004
0.0055                    -5.0E-4                  4.532818815776494
0.0055                    5.0E-4                   4.544756703109131
0.0055                    0.0015                   4.560329564440858
0.0055                    0.0025                   4.575767955073145
0.0055                    0.0035                   4.587963359300839
0.0055                    0.0045                   4.594522919061718
0.0055                    0.0055                   4.594209363272775
0.0055                    0.0065                   4.587731753404894
0.0055                    0.0075                   4.578362039921268
0.0055                    0.0085                   4.571539393184579
0.0055                    0.0095                   4.57309079719763
0.0055                    0.0105                   4.587813944786562
0.0055                    0.0115                   4.619238075929298
0.0055                    0.0125                   4.6683179533669765
0.0055                    0.0135                   4.7305919515488695
0.0055                    0.0145                   4.797962161599539
0.0055                    0.0155                   4.866168828008293
0.0055                    0.0165                   4.939880472225443
0.0055                    0.0175                   5.030468805839261
0.0055                    0.0185                   5.147011152356409
0.0055                    0.0195                   5.283242299302433
0.0055                    0.0205                   5.412615225804124
0.0055                    0.0215                   5.502182781888939
0.0055                    0.0225                   5.520707826001243
0.0055                    0.0235                   5.441777540579685
0.0055                    0.0245                   5.275954692237413
0.0055                    0.0255                   5.104029949749722
0.0055                    0.0265                   5.001733939478077
0.0055                    0.0275                   4.967615921191354
0.0055                    0.0285                   4.96788889025203
0.0055                    0.0295                   4.977257429193254
0.0055                    0.0305                   4.983591426161011
0.0055                    0.0315                   4.98555474849754
0.0065                    -0.0315                  2.22611470560953
0.0065                    -0.0305                  2.254195343812289
0.0065                    -0.0295                  2.3062224831995017
0.0065                    -0.0285                  2.3761358631749583
0.0065                    -0.0275                  2.4588089242964917
0.0065                    -0.0265                  2.5506614641782344
0.0065                    -0.0255                  2.6496723108747404
0.0065                    -0.0245                  2.755078462816879
0.0065                    -0.0235                  2.8664081875086413
0.0065                    -0.0225                  2.982136901263299
0.0065                    -0.0215                  3.0987208922324503
0.0065                    -0.0205                  3.2113090480664783
0.0065                    -0.0195                  3.3173067018786906
0.0065                    -0.0185                  3.417973623286851
0.0065                    -0.0175                  3.520347019804124
0.0065                    -0.0165                  3.640933919863465
0.0065                    -0.0155                  3.7943737556073054
0.0065                    -0.0145                  3.9745734046030927
0.0065                    -0.0135                  4.156642925993812
0.0065                    -0.0125                  4.3182545397215
0.0065                    -0.0115                  4.445876341330787
0.0065                    -0.0105                  4.532078817642654
0.0065                    -0.0095                  4.583253057369303
0.0065                    -0.0085                  4.612375629822158
0.0065                    -0.0075                  4.622888788071825
0.0065                    -0.0065                  4.61152564437994
0.0065                    -0.0055                  4.580880306634704
0.0065                    -0.0045                  4.543631276491414
0.0065                    -0.0035                  4.515452096128195
0.0065                    -0.0025                  4.503864212724934
0.0065                    -0.0015                  4.50644377832621
0.0065                    -5.0E-4                  4.517870237259216
0.0065                    5.0E-4                   4.5341692293984295
0.0065                    0.0015                   4.552034636584248
0.0065                    0.0025                   4.56819808886849
0.0065                    0.0035                   4.579917551840626
0.0065                    0.0045                   4.585289619959996
0.0065                    0.0055                   4.583360835219078
0.0065                    0.0065                   4.575384512476681
0.0065                    0.0075                   4.565685555442984
0.0065                    0.0085                   4.560031413200062
0.0065                    0.0095                   4.563963499950222
0.0065                    0.0105                   4.582739621589294
0.0065                    0.0115                   4.621031158022569
0.0065                    0.0125                   4.680538070145985