% Model:              Benchmark260518.mph
% Version:            COMSOL 6.2.0.339
% Date:               May 20 2026, 06:36
% Dimension:          2
% Nodes:              4096
% Expressions:        1
% Description:        压力
% Length unit:        m
% x                       y                        p (Pa)
5.0E-4                    -0.0315                  4.301288053236356
5.0E-4                    -0.0305                  4.335350159468796
5.0E-4                    -0.0295                  4.381610534092111
5.0E-4                    -0.0285                  4.431883114046004
5.0E-4                    -0.0275                  4.48422232791893
5.0E-4                    -0.0265                  4.537790483456412
5.0E-4                    -0.0255                  4.592078860944108
5.0E-4                    -0.0245                  4.6468141049518605
5.0E-4                    -0.0235                  4.701834346945089
5.0E-4                    -0.0225                  4.757106121192795
5.0E-4                    -0.0215                  4.812086784899693
5.0E-4                    -0.0205                  4.864803609996803
5.0E-4                    -0.0195                  4.912068003964846
5.0E-4                    -0.0185                  4.950609134671393
5.0E-4                    -0.0175                  4.9767846710691215
5.0E-4                    -0.0165                  4.990507415584827
5.0E-4                    -0.0155                  4.996123070146129
5.0E-4                    -0.0145                  4.996939230865489
5.0E-4                    -0.0135                  4.994683376901634
5.0E-4                    -0.0125                  4.990982886046588
5.0E-4                    -0.0115                  4.98781320267523
5.0E-4                    -0.0105                  4.986621762866184
5.0E-4                    -0.0095                  4.986870384565481
5.0E-4                    -0.0085                  4.985973575541401
5.0E-4                    -0.0075                  4.9809188731217
5.0E-4                    -0.0065                  4.970221413609099
5.0E-4                    -0.0055                  4.9544744670261744
5.0E-4                    -0.0045                  4.94286167828298
5.0E-4                    -0.0035                  4.960277987451099
5.0E-4                    -0.0025                  5.014638303511697
5.0E-4                    -0.0015                  5.073912050867427
5.0E-4                    -5.0E-4                  5.105087228806889
5.0E-4                    5.0E-4                   5.094322858282854
5.0E-4                    0.0015                   5.039426842133932
5.0E-4                    0.0025                   4.954400452422719
5.0E-4                    0.0035                   4.887598566279307
5.0E-4                    0.0045                   4.866994897836904
5.0E-4                    0.0055                   4.868737415903057
5.0E-4                    0.0065                   4.873772519972076
5.0E-4                    0.0075                   4.878303878191728
5.0E-4                    0.0085                   4.882455539958295
5.0E-4                    0.0095                   4.886548932892808
5.0E-4                    0.0105                   4.88928839210048
5.0E-4                    0.0115                   4.887062647824447
5.0E-4                    0.0125                   4.876281116159582
5.0E-4                    0.0135                   4.854818008916071
5.0E-4                    0.0145                   4.821854830179297
5.0E-4                    0.0155                   4.777957683121804
5.0E-4                    0.0165                   4.724919394757562
5.0E-4                    0.0175                   4.665281572333567
5.0E-4                    0.0185                   4.601715715331442
5.0E-4                    0.0195                   4.536128918839297
5.0E-4                    0.0205                   4.469554037273124
5.0E-4                    0.0215                   4.402679989117152
5.0E-4                    0.0225                   4.336005065377021
5.0E-4                    0.0235                   4.269766202385327
5.0E-4                    0.0245                   4.204092991485375
5.0E-4                    0.0255                   4.139192669737833
5.0E-4                    0.0265                   4.075395418345929
5.0E-4                    0.0275                   4.013162483411218
5.0E-4                    0.0285                   3.9530860810423127
5.0E-4                    0.0295                   3.8959322279915476
5.0E-4                    0.0305                   3.8436443333596153
5.0E-4                    0.0315                   3.8052990237921533
0.0015                    -0.0315                  4.26715614048029
0.0015                    -0.0305                  4.302038029550679
0.0015                    -0.0295                  4.352832311425155
0.0015                    -0.0285                  4.408483997008283
0.0015                    -0.0275                  4.4657412414257225
0.0015                    -0.0265                  4.523634867014844
0.0015                    -0.0255                  4.5817753370284695
0.0015                    -0.0245                  4.6400318753739604
0.0015                    -0.0235                  4.698411083388762
0.0015                    -0.0225                  4.756744587736321
0.0015                    -0.0215                  4.814049307000814
0.0015                    -0.0205                  4.867943680405017
0.0015                    -0.0195                  4.914869208019164
0.0015                    -0.0185                  4.9517899309434865
0.0015                    -0.0175                  4.97638734715416
0.0015                    -0.0165                  4.990028143843598
0.0015                    -0.0155                  4.996610887366433
0.0015                    -0.0145                  4.997710843460327
0.0015                    -0.0135                  4.994238648277442
0.0015                    -0.0125                  4.987952880241832
0.0015                    -0.0115                  4.98174725702649
0.0015                    -0.0105                  4.978362166067964
0.0015                    -0.0095                  4.978226041685405
0.0015                    -0.0085                  4.979016311207941
0.0015                    -0.0075                  4.977304886474249
0.0015                    -0.0065                  4.971287979031814
0.0015                    -0.0055                  4.96475224953521
0.0015                    -0.0045                  4.969443247398752
0.0015                    -0.0035                  5.011932539541304
0.0015                    -0.0025                  5.090151782545903
0.0015                    -0.0015                  5.162385171261222
0.0015                    -5.0E-4                  5.197856121628577
0.0015                    5.0E-4                   5.182624488879041
0.0015                    0.0015                   5.115022260966729
0.0015                    0.0025                   5.007071651241459
0.0015                    0.0035                   4.907719860378602
0.0015                    0.0045                   4.868931889727876
0.0015                    0.0055                   4.869213735856923
0.0015                    0.0065                   4.873342481115107
0.0015                    0.0075                   4.878998623015236
0.0015                    0.0085                   4.884876938019342
0.0015                    0.0095                   4.891238588107903
0.0015                    0.0105                   4.897206071466979
0.0015                    0.0115                   4.899234542307853
0.0015                    0.0125                   4.8934349422116075
0.0015                    0.0135                   4.876901960722771
0.0015                    0.0145                   4.84744889001559
0.0015                    0.0155                   4.80448718128193
0.0015                    0.0165                   4.749308557441114
0.0015                    0.0175                   4.6848552516466535
0.0015                    0.0185                   4.614839590699887
0.0015                    0.0195                   4.542460401946036
0.0015                    0.0205                   4.469860689032354
0.0015                    0.0215                   4.398034038625807
0.0015                    0.0225                   4.3271119390245545
0.0015                    0.0235                   4.2569051755210445
0.0015                    0.0245                   4.187367219010921
0.0015                    0.0255                   4.118716603446811
0.0015                    0.0265                   4.051340714784992
0.0015                    0.0275                   3.9855988115571415
0.0015                    0.0285                   3.92177715507424
0.0015                    0.0295                   3.8604851997569005
0.0015                    0.0305                   3.8047741435244227
0.0015                    0.0315                   3.766534189155628
0.0025                    -0.0315                  4.220030133316461
0.0025                    -0.0305                  4.2531589850163645
0.0025                    -0.0295                  4.3063338960313695
0.0025                    -0.0285                  4.368053161937802
0.0025                    -0.0275                  4.432514801114142
0.0025                    -0.0265                  4.497467163740874
0.0025                    -0.0255                  4.562118091387965
0.0025                    -0.0245                  4.626210515499876
0.0025                    -0.0235                  4.689595929133584
0.0025                    -0.0225                  4.75175238825413
0.0025                    -0.0215                  4.8111365868818625
0.0025                    -0.0205                  4.8647471303473235
0.0025                    -0.0195                  4.909379360420597
0.0025                    -0.0185                  4.943101989363495
0.0025                    -0.0175                  4.966703200428544
0.0025                    -0.0165                  4.983002595130809
0.0025                    -0.0155                  4.991982704812641
0.0025                    -0.0145                  4.991131449638289
0.0025                    -0.0135                  4.98108589798596
0.0025                    -0.0125                  4.9667523016373725
0.0025                    -0.0115                  4.954217302271819
0.0025                    -0.0105                  4.948008466253045
0.0025                    -0.0095                  4.949715986703854
0.0025                    -0.0085                  4.957865334472958
0.0025                    -0.0075                  4.969346077372393
0.0025                    -0.0065                  4.982643105597694
0.0025                    -0.0055                  5.003236607422018
0.0025                    -0.0045                  5.045100509673671
0.0025                    -0.0035                  5.118480685787334
0.0025                    -0.0025                  5.207892599587655
0.0025                    -0.0015                  5.282083363199057
0.0025                    -5.0E-4                  5.316721610778419
0.0025                    5.0E-4                   5.297444774104246
0.0025                    0.0015                   5.221520304298891
0.0025                    0.0025                   5.100482552216586
0.0025                    0.0035                   4.972466277898265
0.0025                    0.0045                   4.894955956883427
0.0025                    0.0055                   4.874224683096731
0.0025                    0.0065                   4.874796228619832
0.0025                    0.0075                   4.881342017858907
0.0025                    0.0085                   4.889888579553946
0.0025                    0.0095                   4.898932358649944
0.0025                    0.0105                   4.90716753414252
0.0025                    0.0115                   4.912281043186058
0.0025                    0.0125                   4.911243119417104
0.0025                    0.0135                   4.90058405626395
0.0025                    0.0145                   4.876484415890893
0.0025                    0.0155                   4.835942679618346
0.0025                    0.0165                   4.778633860580905
0.0025                    0.0175                   4.70785275877525
0.0025                    0.0185                   4.629001566852475
0.0025                    0.0195                   4.54732646072447
0.0025                    0.0205                   4.466269872700509
0.0025                    0.0215                   4.386823107225938
0.0025                    0.0225                   4.308577689333392
0.0025                    0.0235                   4.231155127000025
0.0025                    0.0245                   4.154702549739312
0.0025                    0.0255                   4.079794594862907
0.0025                    0.0265                   4.006942676056828
0.0025                    0.0275                   3.9363394602351014
0.0025                    0.0285                   3.868107767161416
0.0025                    0.0295                   3.8035570049492993
0.0025                    0.0305                   3.747957232489025
0.0025                    0.0315                   3.7132474722015734
0.0035                    -0.0315                  4.167654838161026
0.0035                    -0.0305                  4.19888907476394
0.0035                    -0.0295                  4.252213219605132
0.0035                    -0.0285                  4.3180735020018775
0.0035                    -0.0275                  4.389484449606607
0.0035                    -0.0265                  4.462369652055332
0.0035                    -0.0255                  4.534701608376739
0.0035                    -0.0245                  4.605459360450064
0.0035                    -0.0235                  4.673866776274194
0.0035                    -0.0225                  4.738802228188867
0.0035                    -0.0215                  4.798277412237135
0.0035                    -0.0205                  4.849372405371243
0.0035                    -0.0195                  4.890591075856522
0.0035                    -0.0185                  4.921702096423899
0.0035                    -0.0175                  4.945478709502991
0.0035                    -0.0165                  4.964239581351376
0.0035                    -0.0155                  4.972382864479963
0.0035                    -0.0145                  4.964122324187423
0.0035                    -0.0135                  4.942729721391527
0.0035                    -0.0125                  4.91775185985171
0.0035                    -0.0115                  4.898485967840948
0.0035                    -0.0105                  4.89142265081324
0.0035                    -0.0095                  4.899127782612445
0.0035                    -0.0085                  4.921055973506906
0.0035                    -0.0075                  4.95590212409225
0.0035                    -0.0065                  5.003221203154987
0.0035                    -0.0055                  5.065806214289876
0.0035                    -0.0045                  5.14743590124386
0.0035                    -0.0035                  5.244267364525891
0.0035                    -0.0025                  5.339433164468309
0.0035                    -0.0015                  5.4114709003924295
0.0035                    -5.0E-4                  5.443331812039176
0.0035                    5.0E-4                   5.42271607479977
0.0035                    0.0015                   5.3442888852787975
0.0035                    0.0025                   5.215789463789375
0.0035                    0.0035                   5.067143477370845
0.0035                    0.0045                   4.951291070880015
0.0035                    0.0055                   4.89678332243212
0.0035                    0.0065                   4.883573012281341
0.0035                    0.0075                   4.887192219173826
0.0035                    0.0085                   4.896748778093189
0.0035                    0.0095                   4.906798657561902
0.0035                    0.0105                   4.915391367800806
0.0035                    0.0115                   4.921491763518282
0.0035                    0.0125                   4.923049282357149
0.0035                    0.0135                   4.916214225316455
0.0035                    0.0145                   4.895427376471405
0.0035                    0.0155                   4.855536795036425
0.0035                    0.0165                   4.795402966517799
0.0035                    0.0175                   4.718277584801312
0.0035                    0.0185                   4.631377551886846
0.0035                    0.0195                   4.54246587086726
0.0035                    0.0205                   4.454424315406932
0.0035                    0.0215                   4.367050863367108
0.0035                    0.0225                   4.279827832716734
0.0035                    0.0235                   4.193076842396911
0.0035                    0.0245                   4.108180697267667
0.0035                    0.0255                   4.02645876842307
0.0035                    0.0265                   3.9484799511986246
0.0035                    0.0275                   3.8740963131756727
0.0035                    0.0285                   3.8034131652984873
0.0035                    0.0295                   3.738647580341282
0.0035                    0.0305                   3.6858317687445186
0.0035                    0.0315                   3.6547159479453306
0.0045                    -0.0315                  4.111971535945306
0.0045                    -0.0305                  4.141902581626881
0.0045                    -0.0295                  4.194926329055908
0.0045                    -0.0285                  4.263368482284056
0.0045                    -0.0275                  4.340459115637797
0.0045                    -0.0265                  4.420864471294457
0.0045                    -0.0255                  4.500903470317174
0.0045                    -0.0245                  4.578151647405644
0.0045                    -0.0235                  4.650769757392482
0.0045                    -0.0225                  4.7168588467005605
0.0045                    -0.0215                  4.774262937770212
0.0045                    -0.0205                  4.821249510240075
0.0045                    -0.0195                  4.858689796806379
0.0045                    -0.0185                  4.888232067201969
0.0045                    -0.0175                  4.91227705468877
0.0045                    -0.0165                  4.929963426417987
0.0045                    -0.0155                  4.932055944422576
0.0045                    -0.0145                  4.913780698053299
0.0045                    -0.0135                  4.88260211358544
0.0045                    -0.0125                  4.85208805356697
0.0045                    -0.0115                  4.834111886815132
0.0045                    -0.0105                  4.833884945665188
0.0045                    -0.0095                  4.8518408078075685
0.0045                    -0.0085                  4.888163522635334
0.0045                    -0.0075                  4.944668317683615
0.0045                    -0.0065                  5.023196383763876
0.0045                    -0.0055                  5.123693349032081
0.0045                    -0.0045                  5.239973837097305
0.0045                    -0.0035                  5.356422523489904
0.0045                    -0.0025                  5.454464991036738
0.0045                    -0.0015                  5.522337969117517
0.0045                    -5.0E-4                  5.552781411653883
0.0045                    5.0E-4                   5.535284002178742
0.0045                    0.0015                   5.459609980159202
0.0045                    0.0025                   5.328609106469688
0.0045                    0.0035                   5.169629783479255
0.0045                    0.0045                   5.028198261404128
0.0045                    0.0055                   4.939501093353078
0.0045                    0.0065                   4.903467336309143
0.0045                    0.0075                   4.898011817302849
0.0045                    0.0085                   4.9047636306148465
0.0045                    0.0095                   4.913922747732116
0.0045                    0.0105                   4.921760505458074
0.0045                    0.0115                   4.927646826903735
0.0045                    0.0125                   4.930708971840595
0.0045                    0.0135                   4.926253573266935
0.0045                    0.0145                   4.905411502105696
0.0045                    0.0155                   4.8608593247393905
0.0045                    0.0165                   4.793023636102216
0.0045                    0.0175                   4.707625719627955
0.0045                    0.0185                   4.614210634807548
0.0045                    0.0195                   4.522036370635891
0.0045                    0.0205                   4.430809513085123
0.0045                    0.0215                   4.336602601587751
0.0045                    0.0225                   4.239674008392961
0.0045                    0.0235                   4.143025288407824
0.0045                    0.0245                   4.050179071419043
0.0045                    0.0255                   3.9633035769950298
0.0045                    0.0265                   3.882520182516986
0.0045                    0.0275                   3.8067922984936757
0.0045                    0.0285                   3.735938309593389
0.0045                    0.0295                   3.6724419403410646
0.0045                    0.0305                   3.622072996873313
0.0045                    0.0315                   3.593165601203
0.0055                    -0.0315                  4.053817074877277
0.0055                    -0.0305                  4.082856220387661
0.0055                    -0.0295                  4.135599891358131
0.0055                    -0.0285                  4.205826519195844
0.0055                    -0.0275                  4.287396120247337
0.0055                    -0.0265                  4.374398689822513
0.0055                    -0.0255                  4.461609596330363
0.0055                    -0.0245                  4.54482375268816
0.0055                    -0.0235                  4.620784185200826
0.0055                    -0.0225                  4.686878530327409
0.0055                    -0.0215                  4.7410730912379435
0.0055                    -0.0205                  4.783428922262215
0.0055                    -0.0195                  4.81660358501684
0.0055                    -0.0185                  4.844163530687682
0.0055                    -0.0175                  4.8675166146293565
0.0055                    -0.0165                  4.881456706404278
0.0055                    -0.0155                  4.876889663836467
0.0055                    -0.0145                  4.852636151266097
0.0055                    -0.0135                  4.820567234231925
0.0055                    -0.0125                  4.796953067217534
0.0055                    -0.0115                  4.790724947569653
0.0055                    -0.0105                  4.801837514337699
0.0055                    -0.0095                  4.829278518128316
0.0055                    -0.0085                  4.875616002809257
0.0055                    -0.0075                  4.9452262108539795
0.0055                    -0.0065                  5.041638367613913
0.0055                    -0.0055                  5.164612698234273
0.0055                    -0.0045                  5.303190707245254
0.0055                    -0.0035                  5.432664735853436
0.0055                    -0.0025                  5.530269344356832
0.0055                    -0.0015                  5.592205989433859
0.0055                    -5.0E-4                  5.622139290511971
0.0055                    5.0E-4                   5.610861683863539
0.0055                    0.0015                   5.540126953236953
0.0055                    0.0025                   5.406740984339818
0.0055                    0.0035                   5.239571438548072
0.0055                    0.0045                   5.085382602475214
0.0055                    0.0055                   4.97766305482352
0.0055                    0.0065                   4.922766570364569
0.0055                    0.0075                   4.906358626159882
0.0055                    0.0085                   4.909930010662943
0.0055                    0.0095                   4.9200827245214365
0.0055                    0.0105                   4.92891625396571
0.0055                    0.0115                   4.935014122973358
0.0055                    0.0125                   4.938693215993364
0.0055                    0.0135                   4.935326871088316
0.0055                    0.0145                   4.912187058109096
0.0055                    0.0155                   4.857863994638949
0.0055                    0.0165                   4.776067951993841
0.0055                    0.0175                   4.679749970680848
0.0055                    0.0185                   4.5808580014990605
0.0055                    0.0195                   4.486516204765757
0.0055                    0.0205                   4.39283285946233
0.0055                    0.0215                   4.292446428020668
0.0055                    0.0225                   4.186504768157441
0.0055                    0.0235                   4.08168966902739
0.0055                    0.0245                   3.9839454805703394
0.0055                    0.0255                   3.8956659846999298
0.0055                    0.0265                   3.8152580532411404
0.0055                    0.0275                   3.7401575393117845
0.0055                    0.0285                   3.669752322453018
0.0055                    0.0295                   3.606783568059056
0.0055                    0.0305                   3.5572409301113717
0.0055                    0.0315                   3.5291120976416024
0.0065                    -0.0315                  3.993697175268351
0.0065                    -0.0305                  4.022075883810127
0.0065                    -0.0295                  4.074460523891842
0.0065                    -0.0285                  4.145755562596234
0.0065                    -0.0275                  4.230624235165925
0.0065                    -0.0265                  4.323140721816845
0.0065                    -0.0255                  4.416933587564007
0.0065                    -0.0245                  4.505903600130273
0.0065                    -0.0235                  4.58507551546734
0.0065                    -0.0225                  4.651106493975432
0.0065                    -0.0215                  4.702623657586444
0.0065                    -0.0205                  4.741424318505431
0.0065                    -0.0195                  4.770919223362142
0.0065                    -0.0185                  4.795429861876228
0.0065                    -0.0175                  4.816343134620517
0.0065                    -0.0165                  4.827105753488327
0.0065                    -0.0155                  4.820035215494851
0.0065                    -0.0145                  4.797719932931912
0.0065                    -0.0135                  4.775107476016943
0.0065                    -0.0125                  4.7655053616901775
0.0065                    -0.0115                  4.77057129672
0.0065                    -0.0105                  4.788119971817818
0.0065                    -0.0095                  4.820741919954273
0.0065                    -0.0085                  4.874487031013553
0.0065                    -0.0075                  4.954539915017655
0.0065                    -0.0065                  5.063361356592084
0.0065                    -0.0055                  5.197862987629708
0.0065                    -0.0045                  5.342901360697355
0.0065                    -0.0035                  5.4711023289854745
0.0065                    -0.0025                  5.560586003010853
0.0065                    -0.0015                  5.613029726763831
0.0065                    -5.0E-4                  5.6397685924954235
0.0065                    5.0E-4                   5.631876507449067
0.0065                    0.0015                   5.5620595702950455
0.0065                    0.0025                   5.421966214673572
0.0065                    0.0035                   5.2473711324286185
0.0065                    0.0045                   5.090314619571446
0.0065                    0.0055                   4.97942153133639
0.0065                    0.0065                   4.9186574593566545
0.0065                    0.0075                   4.898536137282159
0.0065                    0.0085                   4.904224268976971
0.0065                    0.0095                   4.921872764936035
0.0065                    0.0105                   4.9405023295673
0.0065                    0.0115                   4.954066072867763
0.0065                    0.0125                   4.959641813245032
0.0065                    0.0135                   4.951632432307648