% Model:              Benchmark260518.mph
% Version:            COMSOL 6.2.0.339
% Date:               May 19 2026, 06:04
% Dimension:          2
% Nodes:              4096
% Expressions:        1
% Description:        压力
% Length unit:        m
% x                       y                        p (Pa)
% mirrored_by_python_y_to_minus_y, coord_match_decimals=12
0.0005 -0.0315 4.18352463507
0.0005 -0.0305 4.21049366122
0.0005 -0.0295 4.24746979836
0.0005 -0.0285 4.28795983601
0.0005 -0.0275 4.33013259823
0.0005 -0.0265 4.37327096748
0.0005 -0.0255 4.41695225724
0.0005 -0.0245 4.46080189806
0.0005 -0.0235 4.50447553432
0.0005 -0.0225 4.54755540967
0.0005 -0.0215 4.58958542414
0.0005 -0.0205 4.63019905997
0.0005 -0.0195 4.66889456958
0.0005 -0.0185 4.70461079024
0.0005 -0.0175 4.73575844301
0.0005 -0.0165 4.76066457033
0.0005 -0.0155 4.77793600588
0.0005 -0.0145 4.7867577093
0.0005 -0.0135 4.78814315884
0.0005 -0.0125 4.78539898445
0.0005 -0.0115 4.78121913266
0.0005 -0.0105 4.77672935885
0.0005 -0.0095 4.77561309981
0.0005 -0.0085 4.77832377193
0.0005 -0.0075 4.72274103432
0.0005 -0.0065 4.64658231467
0.0005 -0.0055 4.62343718796
0.0005 -0.0045 4.61894293769
0.0005 -0.0035 4.63022524507
0.0005 -0.0025 4.66879730751
0.0005 -0.0015 4.72921083742
0.0005 -0.0005 4.78987358062
0.0005 0.0005 4.83156739176
0.0005 0.0015 4.847416536
0.0005 0.0025 4.84321226059
0.0005 0.0035 4.83223508981
0.0005 0.0045 4.82527389973
0.0005 0.0055 4.82549261857
0.0005 0.0065 4.82978037816
0.0005 0.0075 4.83296501371
0.0005 0.0085 4.83115050367
0.0005 0.0095 4.82174014074
0.0005 0.0105 4.80169827618
0.0005 0.0115 4.76836031725
0.0005 0.0125 4.72493452651
0.0005 0.0135 4.67713784812
0.0005 0.0145 4.62859326685
0.0005 0.0155 4.58202778122
0.0005 0.0165 4.53803087277
0.0005 0.0175 4.49598079634
0.0005 0.0185 4.4553088224
0.0005 0.0195 4.41566924612
0.0005 0.0205 4.37679396521
0.0005 0.0215 4.33851082748
0.0005 0.0225 4.30071676963
0.0005 0.0235 4.26336120396
0.0005 0.0245 4.2264546852
0.0005 0.0255 4.19003764571
0.0005 0.0265 4.15418576751
0.0005 0.0275 4.11904264747
0.0005 0.0285 4.084858291
0.0005 0.0295 4.05208622397
0.0005 0.0305 4.02200956016
0.0005 0.0315 3.99992928959
0.0015 -0.0315 4.15670214
0.0015 -0.0305 4.1842065365
0.0015 -0.0295 4.22457420326
0.0015 -0.0285 4.26927532865
0.0015 -0.0275 4.31571407342
0.0015 -0.0265 4.36303748991
0.0015 -0.0255 4.41089287117
0.0015 -0.0245 4.45903855258
0.0015 -0.0235 4.50720767623
0.0015 -0.0225 4.55506647632
0.0015 -0.0215 4.60220909765
0.0015 -0.0205 4.64807054155
0.0015 -0.0195 4.69163667992
0.0015 -0.0185 4.73118578951
0.0015 -0.0175 4.76436333421
0.0015 -0.0165 4.78856749755
0.0015 -0.0155 4.80172142875
0.0015 -0.0145 4.80349452589
0.0015 -0.0135 4.7974616264
0.0015 -0.0125 4.78956147038
0.0015 -0.0115 4.78362221478
0.0015 -0.0105 4.77721014166
0.0015 -0.0095 4.78734275299
0.0015 -0.0085 4.8307430745
0.0015 -0.0075 4.7891926992
0.0015 -0.0065 4.66475207259
0.0015 -0.0055 4.6091676311
0.0015 -0.0045 4.60503225293
0.0015 -0.0035 4.6118338412
0.0015 -0.0025 4.6479933445
0.0015 -0.0015 4.70938198869
0.0015 -0.0005 4.77054531984
0.0015 0.0005 4.81031259914
0.0015 0.0015 4.8241971448
0.0015 0.0025 4.82055918385
0.0015 0.0035 4.81276449913
0.0015 0.0045 4.81060626983
0.0015 0.0055 4.81639572751
0.0015 0.0065 4.8259789549
0.0015 0.0075 4.83254296289
0.0015 0.0085 4.83081709138
0.0015 0.0095 4.81840474599
0.0015 0.0105 4.79415424207
0.0015 0.0115 4.75613145463
0.0015 0.0125 4.70860575449
0.0015 0.0135 4.6588031337
0.0015 0.0145 4.61016080482
0.0015 0.0155 4.56480229502
0.0015 0.0165 4.52250946872
0.0015 0.0175 4.48230803423
0.0015 0.0185 4.44336029374
0.0015 0.0195 4.40510627193
0.0015 0.0205 4.3672136629
0.0015 0.0215 4.32949076011
0.0015 0.0225 4.29183856316
0.0015 0.0235 4.25422466869
0.0015 0.0245 4.21665871423
0.0015 0.0255 4.17917641709
0.0015 0.0265 4.14183939661
0.0015 0.0275 4.10475289217
0.0015 0.0285 4.06812784187
0.0015 0.0295 4.03254734801
0.0015 0.0305 4.00006750622
0.0015 0.0315 3.97774553331
0.0025 -0.0315 4.1197486135
0.0025 -0.0305 4.1458263211
0.0025 -0.0295 4.18801614356
0.0025 -0.0285 4.2375961719
0.0025 -0.0275 4.29025783748
0.0025 -0.0265 4.34437425071
0.0025 -0.0255 4.39935169099
0.0025 -0.0245 4.4549312786
0.0025 -0.0235 4.51089960007
0.0025 -0.0225 4.56694469808
0.0025 -0.0215 4.62251260366
0.0025 -0.0205 4.6765790593
0.0025 -0.0195 4.72736757212
0.0025 -0.0185 4.77218093009
0.0025 -0.0175 4.80756335162
0.0025 -0.0165 4.82994625238
0.0025 -0.0155 4.83702154053
0.0025 -0.0145 4.82994752452
0.0025 -0.0135 4.81503823245
0.0025 -0.0125 4.79982628334
0.0025 -0.0115 4.78717433889
0.0025 -0.0105 4.77949845789
0.0025 -0.0095 4.83226420011
0.0025 -0.0085 4.97439267896
0.0025 -0.0075 4.99544301779
0.0025 -0.0065 4.79915291872
0.0025 -0.0055 4.63715831186
0.0025 -0.0045 4.6002079467
0.0025 -0.0035 4.60367321629
0.0025 -0.0025 4.63684572775
0.0025 -0.0015 4.69146552846
0.0025 -0.0005 4.74133066417
0.0025 0.0005 4.76823201064
0.0025 0.0015 4.77343960463
0.0025 0.0025 4.76823321128
0.0025 0.0035 4.76404808817
0.0025 0.0045 4.76781743877
0.0025 0.0055 4.78073628718
0.0025 0.0065 4.79899611809
0.0025 0.0075 4.81428530723
0.0025 0.0085 4.81618400772
0.0025 0.0095 4.79930550983
0.0025 0.0105 4.76628798811
0.0025 0.0115 4.72150259169
0.0025 0.0125 4.67110497312
0.0025 0.0135 4.62147798375
0.0025 0.0145 4.57525524711
0.0025 0.0155 4.53318304688
0.0025 0.0165 4.49437937815
0.0025 0.0175 4.45754952631
0.0025 0.0185 4.42157531542
0.0025 0.0195 4.38569784771
0.0025 0.0205 4.34947517669
0.0025 0.0215 4.3126827184
0.0025 0.0225 4.27523188786
0.0025 0.0235 4.23711475534
0.0025 0.0245 4.19836724328
0.0025 0.0255 4.15905277477
0.0025 0.0265 4.11926912169
0.0025 0.0275 4.07920623039
0.0025 0.0285 4.03934272572
0.0025 0.0295 4.00103276633
0.0025 0.0305 3.96787503181
0.0025 0.0315 3.94713890861
0.0035 -0.0315 4.07878132707
0.0035 -0.0305 4.10348358446
0.0035 -0.0295 4.14597181254
0.0035 -0.0285 4.19914558261
0.0035 -0.0275 4.25799740286
0.0035 -0.0265 4.31979022573
0.0035 -0.0255 4.38328353876
0.0035 -0.0245 4.44791988529
0.0035 -0.0235 4.51334516724
0.0035 -0.0225 4.57908695246
0.0035 -0.0215 4.64424666661
0.0035 -0.0205 4.70718524421
0.0035 -0.0195 4.76525008811
0.0035 -0.0185 4.81468918337
0.0035 -0.0175 4.85120302835
0.0035 -0.0165 4.87116996147
0.0035 -0.0155 4.87339672735
0.0035 -0.0145 4.86093838168
0.0035 -0.0135 4.84006571849
0.0035 -0.0125 4.81559970368
0.0035 -0.0115 4.79368011962
0.0035 -0.0105 4.79488681418
0.0035 -0.0095 4.9475800043
0.0035 -0.0085 5.2538512621
0.0035 -0.0075 5.38308593416
0.0035 -0.0065 5.15741440154
0.0035 -0.0055 4.85764277509
0.0035 -0.0045 4.71046001518
0.0035 -0.0035 4.66849921175
0.0035 -0.0025 4.67653961488
0.0035 -0.0015 4.70031622528
0.0035 -0.0005 4.71704202651
0.0035 0.0005 4.71927864078
0.0035 0.0015 4.71211365999
0.0035 0.0025 4.703409896
0.0035 0.0035 4.69965547952
0.0035 0.0045 4.70505884507
0.0035 0.0055 4.72082753851
0.0035 0.0065 4.74415354704
0.0035 0.0075 4.76595210367
0.0035 0.0085 4.77245089448
0.0035 0.0095 4.75384407853
0.0035 0.0105 4.71381242803
0.0035 0.0115 4.66448184658
0.0035 0.0125 4.61502363008
0.0035 0.0135 4.56955199788
0.0035 0.0145 4.52881368396
0.0035 0.0155 4.49207997211
0.0035 0.0165 4.45813974613
0.0035 0.0175 4.42558863488
0.0035 0.0185 4.39321574932
0.0035 0.0195 4.36015188608
0.0035 0.0205 4.3258700369
0.0035 0.0215 4.29011125582
0.0035 0.0225 4.25279781053
0.0035 0.0235 4.21396116921
0.0035 0.0245 4.17369697922
0.0035 0.0255 4.13215484131
0.0035 0.0265 4.08958524658
0.0035 0.0275 4.04649251178
0.0035 0.0285 4.00399410384
0.0035 0.0295 3.96447619624
0.0035 0.0305 3.9322074125
0.0035 0.0315 3.91317340241
0.0045 -0.0315 4.0353434448
0.0045 -0.0305 4.05943267965
0.0045 -0.0295 4.10228121837
0.0045 -0.0285 4.15814910892
0.0045 -0.0275 4.22232998448
0.0045 -0.0265 4.2914773871
0.0045 -0.0255 4.3635855553
0.0045 -0.0245 4.43753716238
0.0045 -0.0235 4.51257635093
0.0045 -0.0225 4.58785773704
0.0045 -0.0215 4.66201353277
0.0045 -0.0205 4.73271469632
0.0045 -0.0195 4.79641455653
0.0045 -0.0185 4.8486234448
0.0045 -0.0175 4.88510177092
0.0045 -0.0165 4.9035119606
0.0045 -0.0155 4.90487433941
0.0045 -0.0145 4.89229280318
0.0045 -0.0135 4.86910657333
0.0045 -0.0125 4.83994703407
0.0045 -0.0115 4.8178735388
0.0045 -0.0105 4.87408604421
0.0045 -0.0095 5.17278049749
0.0045 -0.0085 5.63385981425
0.0045 -0.0075 5.87116209578
0.0045 -0.0065 5.6851958024
0.0045 -0.0055 5.29180187955
0.0045 -0.0045 4.98708739936
0.0045 -0.0035 4.83125895274
0.0045 -0.0025 4.76400511869
0.0045 -0.0015 4.73090686501
0.0045 -0.0005 4.70772114896
0.0045 0.0005 4.68750917289
0.0045 0.0015 4.67084784738
0.0045 0.0025 4.65876649218
0.0045 0.0035 4.65202685834
0.0045 0.0045 4.6521058392
0.0045 0.0055 4.66104459546
0.0045 0.0065 4.67869868874
0.0045 0.0075 4.69781037192
0.0045 0.0085 4.70384011263
0.0045 0.0095 4.68477824877
0.0045 0.0105 4.64440157184
0.0045 0.0115 4.59666276042
0.0045 0.0125 4.55150013187
0.0045 0.0135 4.5120256879
0.0045 0.0145 4.47759427776
0.0045 0.0155 4.44682334793
0.0045 0.0165 4.41811317988
0.0045 0.0175 4.39000940211
0.0045 0.0185 4.3612695233
0.0045 0.0195 4.33097405064
0.0045 0.0205 4.29854295284
0.0045 0.0215 4.26369288679
0.0045 0.0225 4.22636078831
0.0045 0.0235 4.1866294743
0.0045 0.0245 4.14468363011
0.0045 0.0255 4.10082754217
0.0045 0.0265 4.05559775129
0.0045 0.0275 4.0099989946
0.0045 0.0285 3.96586232188
0.0045 0.0295 3.92615732725
0.0045 0.0305 3.89495600503
0.0045 0.0315 3.87712630901
0.0055 -0.0315 3.99003599251
0.0055 -0.0305 4.01425028698
0.0055 -0.0295 4.05809765816
0.0055 -0.0285 4.11657621816
0.0055 -0.0275 4.18537043591
0.0055 -0.0265 4.26100098556
0.0055 -0.0255 4.34092301965
0.0055 -0.0245 4.42337657095
0.0055 -0.0235 4.50700323653
0.0055 -0.0225 4.5903896234
0.0055 -0.0215 4.6715918334
0.0055 -0.0205 4.74765104305
0.0055 -0.0195 4.81443113223
0.0055 -0.0185 4.86743367266
0.0055 -0.0175 4.90399222165
0.0055 -0.0165 4.92370009852
0.0055 -0.0155 4.92919559458
0.0055 -0.0145 4.92319803715
0.0055 -0.0135 4.90259157891
0.0055 -0.0125 4.87343563266
0.0055 -0.0115 4.8697967834
0.0055 -0.0105 5.00014804533
0.0055 -0.0095 5.39066832389
0.0055 -0.0085 5.91574584839
0.0055 -0.0075 6.21111503481
0.0055 -0.0065 6.07368114408
0.0055 -0.0055 5.65988391424
0.0055 -0.0045 5.25581515824
0.0055 -0.0035 4.99179068853
0.0055 -0.0025 4.84488755686
0.0055 -0.0015 4.76294581514
0.0055 -0.0005 4.71332084436
0.0055 0.0005 4.68088392078
0.0055 0.0015 4.65903651536
0.0055 0.0025 4.64389344202
0.0055 0.0035 4.63311620275
0.0055 0.0045 4.62574023109
0.0055 0.0055 4.62258385702
0.0055 0.0065 4.62548742842
0.0055 0.0075 4.63206654766
0.0055 0.0085 4.63093261276
0.0055 0.0095 4.61024427152
0.0055 0.0105 4.57331093125
0.0055 0.0115 4.531745616
0.0055 0.0125 4.49245022648
0.0055 0.0135 4.4580483515
0.0055 0.0145 4.428482621
0.0055 0.0155 4.40248305885
0.0055 0.0165 4.37817966593
0.0055 0.0175 4.35387731683
0.0055 0.0185 4.32823068085
0.0055 0.0195 4.30024484993
0.0055 0.0205 4.26929140935
0.0055 0.0215 4.23506553606
0.0055 0.0225 4.19751382929
0.0055 0.0235 4.15676183248
0.0055 0.0245 4.11309172415
0.0055 0.0255 4.06701784486
0.0055 0.0265 4.01945376929
0.0055 0.0275 3.97193085437
0.0055 0.0285 3.92677262953
0.0055 0.0295 3.88709100182
0.0055 0.0305 3.85661232306
0.0055 0.0315 3.83950752453
0.0065 -0.0315 3.94310001611
0.0065 -0.0305 3.96800851745
0.0065 -0.0295 4.01351496769
0.0065 -0.0285 4.07488298881
0.0065 -0.0275 4.14794465602
0.0065 -0.0265 4.22915860885
0.0065 -0.0255 4.31564313737
0.0065 -0.0245 4.40508594244
0.0065 -0.0235 4.49547191435
0.0065 -0.0225 4.58469456066
0.0065 -0.0215 4.67014855547
0.0065 -0.0205 4.74840211327
0.0065 -0.0195 4.81533907922
0.0065 -0.0185 4.8678153829
0.0065 -0.0175 4.90568268733
0.0065 -0.0165 4.93066224643
0.0065 -0.0155 4.94614879318
0.0065 -0.0145 4.94816867089
0.0065 -0.0135 4.92591582005
0.0065 -0.0125 4.89103017393
0.0065 -0.0115 4.89620863259
0.0065 -0.0105 5.03602323513
0.0065 -0.0095 5.39547891065
0.0065 -0.0085 5.88228494981
0.0065 -0.0075 6.18377463475
0.0065 -0.0065 6.10657625948
0.0065 -0.0055 5.76070420681
0.0065 -0.0045 5.36760144783
0.0065 -0.0035 5.07337649187
0.0065 -0.0025 4.89481240194
0.0065 -0.0015 4.79094514564
0.0065 -0.0005 4.72762413856
0.0065 0.0005 4.68764144901
0.0065 0.0015 4.66128027955
0.0065 0.0025 4.64248177402
0.0065 0.0035 4.6275692048
0.0065 0.0045 4.61438624282
0.0065 0.0055 4.60211914758
0.0065 0.0065 4.5914610427
0.0065 0.0075 4.58255205885
0.0065 0.0085 4.57033671962
0.0065 0.0095 4.54625188688
0.0065 0.0105 4.51168955632
0.0065 0.0115 4.47600094722
0.0065 0.0125 4.44272302549
0.0065 0.0135 4.4125766797
0.0065 0.0145 4.38629276339
0.0065 0.0155 4.36310077598
0.0065 0.0165 4.34155239755
0.0065 0.0175 4.31975021066
0.0065 0.0185 4.29614718545
0.0065 0.0195 4.26965541244
0.0065 0.0205 4.2395930453
0.0065 0.0215 4.20562106521
0.0065 0.0225 4.16764928877
0.0065 0.0235 4.12577876031
0.0065 0.0245 4.08036462135
0.0065 0.0255 4.03216554748
0.0065 0.0265 3.98249764833
0.0065 0.0275 3.93333134623
0.0065 0.0285 3.88727301039
0.0065 0.0295 3.84743537562
0.0065 0.0305 3.81728558892
0.0065 0.0315 3.80056254118
0.0075 -0.0315 3.89457966484
0.0075 -0.0305 3.92054357587
0.0075 -0.0295 3.96818282057
0.0075 -0.0285 4.03273486963
0.0075 -0.0275 4.10992491006
0.0075 -0.0265 4.19600030374
0.0075 -0.0255 4.2877397547
0.0075 -0.0245 4.38236102565
0.0075 -0.0235 4.47727074435
0.0075 -0.0225 4.56968727348
0.0075 -0.0215 4.65633961328
0.0075 -0.0205 4.73351901749
0.0075 -0.0195 4.79785214693
0.0075 -0.0185 4.84910405572
0.0075 -0.0175 4.88877168738
0.0075 -0.0165 4.92137950907
0.0075 -0.0155 4.94621909854
0.0075 -0.0145 4.94388752838
0.0075 -0.0135 4.90329793116
0.0075 -0.0125 4.8486911192
0.0075 -0.0115 4.83584265714
0.0075 -0.0105 4.93331932466
0.0075 -0.0095 5.19700456722
0.0075 -0.0085 5.57458929822
0.0075 -0.0075 5.84952263751
0.0075 -0.0065 5.86918671138
0.0075 -0.0055 5.66824726527
0.0075 -0.0045 5.37054817966
0.0075 -0.0035 5.10672513134
0.0075 -0.0025 4.92811465125
0.0075 -0.0015 4.81668202221
0.0075 -0.0005 4.74509058414
0.0075 0.0005 4.69779014934
0.0075 0.0015 4.66542168188
0.0075 0.0025 4.64147075428
0.0075 0.0035 4.62143524567
0.0075 0.0045 4.60247473188
0.0075 0.0055 4.58352617942
0.0075 0.0065 4.56449260588
0.0075 0.0075 4.54507024041
0.0075 0.0085 4.52349239949
0.0075 0.0095 4.49587300015
0.0075 0.0105 4.46246562351
0.0075 0.0115 4.43010278562
0.0075 0.0125 4.40165299658
0.0075 0.0135 4.37564077873
0.0075 0.0145 4.35206957359
0.0075 0.0155 4.3306326778
0.0075 0.0165 4.31027004311
0.0075 0.0175 4.28943999948
0.0075 0.0185 4.26653669759
0.0075 0.0195 4.24047140163
0.0075 0.0205 4.21059598091
0.0075 0.0215 4.17650805639
0.0075 0.0225 4.13792590511
0.0075 0.0235 4.0947846763
0.0075 0.0245 4.04748656859
0.0075 0.0255 3.99706926102
0.0075 0.0265 3.94525726296
0.0075 0.0275 3.89439489584
0.0075 0.0285 3.8472951123
0.0075 0.0295 3.80705963914
0.0075 0.0305 3.77695944008
0.0075 0.0315 3.760417203
0.0085 -0.0315 3.84442520025
0.0085 -0.0305 3.87155802953
0.0085 -0.0295 3.92149809923
0.0085 -0.0285 3.98935058263
0.0085 -0.0275 4.07056930341
0.0085 -0.0265 4.16099202863
0.0085 -0.0255 4.25689656576
0.0085 -0.0245 4.35497431811
0.0085 -0.0235 4.45213434383
0.0085 -0.0225 4.54511962538
0.0085 -0.0215 4.63017633963
0.0085 -0.0205 4.70354464101
0.0085 -0.0195 4.76317274489
0.0085 -0.0185 4.81172167298
0.0085 -0.0175 4.85257422511
0.0085 -0.0165 4.88942915746
0.0085 -0.0155 4.91083167615
0.0085 -0.0145 4.8892159415
0.0085 -0.0135 4.82219466162
0.0085 -0.0125 4.74918702465
0.0085 -0.0115 4.73018826565
0.0085 -0.0105 4.80068974038
0.0085 -0.0095 4.97544142831
0.0085 -0.0085 5.2342248555
0.0085 -0.0075 5.4632942115
0.0085 -0.0065 5.55463205112
0.0085 -0.0055 5.48762175902
0.0085 -0.0045 5.31026667667
0.0085 -0.0035 5.11173731352
0.0085 -0.0025 4.95128264495
0.0085 -0.0015 4.83779941715
0.0085 -0.0005 4.75959524337
0.0085 0.0005 4.70514035755
0.0085 0.0015 4.66589589892
0.0085 0.0025 4.63540290667
0.0085 0.0035 4.60904124784
0.0085 0.0045 4.5839663412
0.0085 0.0055 4.55916898823
0.0085 0.0065 4.53438296631
0.0085 0.0075 4.50899692735
0.0085 0.0085 4.48248329943
0.0085 0.0095 4.45399736986
0.0085 0.0105 4.42308499305
0.0085 0.0115 4.39317776727
0.0085 0.0125 4.36776311099
0.0085 0.0135 4.34533773528
0.0085 0.0145 4.32433499898
0.0085 0.0155 4.30447276812
0.0085 0.0165 4.28467520669
0.0085 0.0175 4.26365613395
0.0085 0.0185 4.24018932883
0.0085 0.0195 4.21347454796
0.0085 0.0205 4.18312963414
0.0085 0.0215 4.14859629506
0.0085 0.0225 4.10912648548
0.0085 0.0235 4.06437913252
0.0085 0.0245 4.01481477776
0.0085 0.0255 3.96182555735
0.0085 0.0265 3.90758740194
0.0085 0.0275 3.85482399932
0.0085 0.0285 3.80652838576
0.0085 0.0295 3.76576280832
0.0085 0.0305 3.73559565636
0.0085 0.0315 3.71915642443
0.0095 -0.0315 3.79256593127
0.0095 -0.0305 3.82070935172
0.0095 -0.0295 3.87272538668
0.0095 -0.0285 3.94366730847
0.0095 -0.0275 4.02871034559
0.0095 -0.0265 4.1231476324
0.0095 -0.0255 4.22252585099
0.0095 -0.0245 4.32279332065
0.0095 -0.0235 4.42028965884
0.0095 -0.0225 4.51150715055
0.0095 -0.0215 4.59275441859
0.0095 -0.0205 4.66053134351
0.0095 -0.0195 4.71430439491
0.0095 -0.0185 4.75786476732
0.0095 -0.0175 4.79706777946
0.0095 -0.0165 4.83088540902
0.0095 -0.0155 4.83776895274
0.0095 -0.0145 4.79470974202
0.0095 -0.0135 4.71379976346
0.0095 -0.0125 4.64784184085
0.0095 -0.0115 4.64291846879
0.0095 -0.0105 4.70044956374
0.0095 -0.0095 4.81441437337
0.0095 -0.0085 4.98268351702
0.0095 -0.0075 5.15335120121
0.0095 -0.0065 5.25681737395
0.0095 -0.0055 5.26670209983
0.0095 -0.0045 5.19354977866
0.0095 -0.0035 5.07435099442
0.0095 -0.0025 4.94999127899
0.0095 -0.0015 4.84443502887
0.0095 -0.0005 4.76341234652
0.0095 0.0005 4.70305832523
0.0095 0.0015 4.65712635714
0.0095 0.0025 4.61992014636
0.0095 0.0035 4.5873121255
0.0095 0.0045 4.55694606151
0.0095 0.0055 4.52758391099
0.0095 0.0065 4.4985772658
0.0095 0.0075 4.46985252089
0.0095 0.0085 4.44211674811
0.0095 0.0095 4.41559059389
0.0095 0.0105 4.38941646567
0.0095 0.0115 4.36385273846
0.0095 0.0125 4.34077909178
0.0095 0.0135 4.32052103143
0.0095 0.0145 4.30156452502
0.0095 0.0155 4.2829668289
0.0095 0.0165 4.26357667837
0.0095 0.0175 4.24180390873
0.0095 0.0185 4.21689986437
0.0095 0.0195 4.18893578015
0.0095 0.0205 4.15767719383
0.0095 0.0215 4.12221817377
0.0095 0.0225 4.08135434445
0.0095 0.0235 4.03438321848
0.0095 0.0245 3.98193115626
0.0095 0.0255 3.92585203802
0.0095 0.0265 3.86887961109
0.0095 0.0275 3.81411503691
0.0095 0.0285 3.7646444878
0.0095 0.0295 3.72339958239
0.0095 0.0305 3.69319274151
0.0095 0.0315 3.67685735319
0.0105 -0.0315 3.73897164833
0.0105 -0.0305 3.76771944159
0.0105 -0.0295 3.82116410547
0.0105 -0.0285 3.89452613518
0.0105 -0.0275 3.98289277664
0.0105 -0.0265 4.08106664158
0.0105 -0.0255 4.18369501356
0.0105 -0.0245 4.28564926439
0.0105 -0.0235 4.38240550239
0.0105 -0.0225 4.47020029772
0.0105 -0.0215 4.54598442042
0.0105 -0.0205 4.60749783507
0.0105 -0.0195 4.65594127172
0.0105 -0.0185 4.69420923514
0.0105 -0.0175 4.72748925696
0.0105 -0.0165 4.75241372204
0.0105 -0.0155 4.74565994025
0.0105 -0.0145 4.69227784149
0.0105 -0.0135 4.61916831914
0.0105 -0.0125 4.57635863419
0.0105 -0.0115 4.5814260355
0.0105 -0.0105 4.62316857752
0.0105 -0.0095 4.69872672651
0.0105 -0.0085 4.80380995565
0.0105 -0.0075 4.91707514495
0.0105 -0.0065 5.0080316814
0.0105 -0.0055 5.05217347886
0.0105 -0.0045 5.04204464626
0.0105 -0.0035 4.98710865151
0.0105 -0.0025 4.90687598316
0.0105 -0.0015 4.82221938249
0.0105 -0.0005 4.74671172618
0.0105 0.0005 4.68457444453
0.0105 0.0015 4.63418175701
0.0105 0.0025 4.59206212635
0.0105 0.0035 4.55511053661
0.0105 0.0045 4.52131468136
0.0105 0.0055 4.48934843886
0.0105 0.0065 4.45838593077
0.0105 0.0075 4.42922848626
0.0105 0.0085 4.40309524204
0.0105 0.0095 4.37989160346
0.0105 0.0105 4.35944206517
0.0105 0.0115 4.34081379488
0.0105 0.0125 4.3217873182
0.0105 0.0135 4.3023704798
0.0105 0.0145 4.28369813175
0.0105 0.0155 4.26526943197
0.0105 0.0165 4.24559406455
0.0105 0.0175 4.22263130114
0.0105 0.0185 4.19563972877
0.0105 0.0195 4.16598338078
0.0105 0.0205 4.13365111431
0.0105 0.0215 4.09669734995
0.0105 0.0225 4.05357765604
0.0105 0.0235 4.00356282469
0.0105 0.0245 3.94753042862
0.0105 0.0255 3.88800169879
0.0105 0.0265 3.82831734096
0.0105 0.0275 3.77180703037
0.0105 0.0285 3.7214664618
0.0105 0.0295 3.67996162908
0.0105 0.0305 3.6498124011
0.0105 0.0315 3.63359686725
0.0115 -0.0315 3.68368808861
0.0115 -0.0305 3.71248832235
0.0115 -0.0295 3.76637637997
0.0115 -0.0285 3.84097322933
0.0115 -0.0275 3.93162231397
0.0115 -0.0265 4.03298324303
0.0115 -0.0255 4.13892702099
0.0115 -0.0245 4.24296646791
0.0115 -0.0235 4.33920178818
0.0115 -0.0225 4.42328866259
0.0115 -0.0215 4.49294353426
0.0115 -0.0205 4.54818442038
0.0115 -0.0195 4.59187657379
0.0115 -0.0185 4.62621058984
0.0115 -0.0175 4.6534115752
0.0115 -0.0165 4.66951428595
0.0115 -0.0155 4.65728154383
0.0115 -0.0145 4.60860573868
0.0115 -0.0135 4.55439847523
0.0115 -0.0125 4.53079227916
0.0115 -0.0115 4.53749298966
0.0115 -0.0105 4.56356875776
0.0115 -0.0095 4.60965295162
0.0115 -0.0085 4.6731258239
0.0115 -0.0075 4.74417926294
0.0115 -0.0065 4.81178517343
0.0115 -0.0055 4.86086632562
0.0115 -0.0045 4.87937754679
0.0115 -0.0035 4.86450553845
0.0115 -0.0025 4.82235624061
0.0115 -0.0015 4.76440899986
0.0115 -0.0005 4.70254538467
0.0115 0.0005 4.64473406834
0.0115 0.0015 4.59399270685
0.0115 0.0025 4.55010485196
0.0115 0.0035 4.51167581441
0.0115 0.0045 4.47727290443
0.0115 0.0055 4.445930649
0.0115 0.0065 4.41673113552
0.0115 0.0075 4.3903126289
0.0115 0.0085 4.36741678222
0.0115 0.0095 4.34816373376
0.0115 0.0105 4.33366729529
0.0115 0.0115 4.32332826315
0.0115 0.0125 4.31212579806
0.0115 0.0135 4.29502861085
0.0115 0.0145 4.27396496123
0.0115 0.0155 4.25258737355
0.0115 0.0165 4.2304986838
0.0115 0.0175 4.20528694409
0.0115 0.0185 4.17587808392
0.0115 0.0195 4.14380204907
0.0115 0.0205 4.10923688225
0.0115 0.0215 4.06972737538
0.0115 0.0225 4.02329144644
0.0115 0.0235 3.96939421868
0.0115 0.0245 3.90948751543
0.0115 0.0255 3.84686007187
0.0115 0.0265 3.78518176059
0.0115 0.0275 3.72770821446
0.0115 0.0285 3.67707757274
0.0115 0.0295 3.6356042243
0.0115 0.0305 3.60557254168
0.0115 0.0315 3.5894373458
0.0125 -0.0315 3.62682883606
0.0125 -0.0305 3.65515980959
0.0125 -0.0295 3.70840284816
0.0125 -0.0285 3.78265169193
0.0125 -0.0275 3.87382994792
0.0125 -0.0265 3.97704989863
0.0125 -0.0255 4.08604115705
0.0125 -0.0245 4.1931623422
0.0125 -0.0235 4.29062597863
0.0125 -0.0225 4.37279805642
0.0125 -0.0215 4.43786245208
0.0125 -0.0205 4.48784262533
0.0125 -0.0195 4.52686538426
0.0125 -0.0185 4.5582999286
0.0125 -0.0175 4.58317813942
0.0125 -0.0165 4.59789486068
0.0125 -0.0155 4.58993116743
0.0125 -0.0145 4.55359004884
0.0125 -0.0135 4.51536523169
0.0125 -0.0125 4.50103123734
0.0125 -0.0115 4.50537042703
0.0125 -0.0105 4.51891261662
0.0125 -0.0095 4.54248597972
0.0125 -0.0085 4.57600359217
0.0125 -0.0075 4.61607128542
0.0125 -0.0065 4.65894639421
0.0125 -0.0055 4.69714269759
0.0125 -0.0045 4.72158583891
0.0125 -0.0035 4.72577789359
0.0125 -0.0025 4.70864724227
0.0125 -0.0015 4.67417194116
0.0125 -0.0005 4.62929574585
0.0125 0.0005 4.58116721715
0.0125 0.0015 4.53494048966
0.0125 0.0025 4.49318536253
0.0125 0.0035 4.45657371181
0.0125 0.0045 4.42487568444
0.0125 0.0055 4.39767127036
0.0125 0.0065 4.37407791293
0.0125 0.0075 4.35333486498
0.0125 0.0085 4.33565880608
0.0125 0.0095 4.32181223885
0.0125 0.0105 4.31341978395
0.0125 0.0115 4.3116347219
0.0125 0.0125 4.31156280676
0.0125 0.0135 4.30202471856
0.0125 0.0145 4.27897306962
0.0125 0.0155 4.24956328919
0.0125 0.0165 4.21987413232
0.0125 0.0175 4.18958274197
0.0125 0.0185 4.15665956919
0.0125 0.0195 4.12075750437
0.0125 0.0205 4.08174169751
0.0125 0.0215 4.03785973817
0.0125 0.0225 3.98660986066
0.0125 0.0235 3.92830324936
0.0125 0.0245 3.86544724261
0.0125 0.0255 3.80121465369
0.0125 0.0265 3.73919755361
0.0125 0.0275 3.68203599144
0.0125 0.0285 3.63182800723
0.0125 0.0295 3.59060776639
0.0125 0.0305 3.56060545039
0.0125 0.0315 3.5443949957
0.0135 -0.0315 3.568521329
0.0135 -0.0305 3.59608981833
0.0135 -0.0295 3.6478425272
0.0135 -0.0285 3.72012096916
0.0135 -0.0275 3.80947892971
0.0135 -0.0265 3.91203351901
0.0135 -0.0255 4.02247010483
0.0135 -0.0245 4.13311942229
0.0135 -0.0235 4.23458897624
0.0135 -0.0225 4.31900483664
0.0135 -0.0215 4.38395446105
0.0135 -0.0205 4.43253658781
0.0135 -0.0195 4.46977927602
0.0135 -0.0185 4.50014029352
0.0135 -0.0175 4.52697476341
0.0135 -0.0165 4.55052907055
0.0135 -0.0155 4.55368811284
0.0135 -0.0145 4.52586628227
0.0135 -0.0135 4.49398576036
0.0135 -0.0125 4.48116525646
0.0135 -0.0115 4.48147665902
0.0135 -0.0105 4.48538189411
0.0135 -0.0095 4.49155815286
0.0135 -0.0085 4.5015254223
0.0135 -0.0075 4.51657365151
0.0135 -0.0065 4.53634133774
0.0135 -0.0055 4.5578223326
0.0135 -0.0045 4.57576981496
0.0135 -0.0035 4.58436582268
0.0135 -0.0025 4.57970188956
0.0135 -0.0015 4.56121066619
0.0135 -0.0005 4.53150628931
0.0135 0.0005 4.4951489594
0.0135 0.0015 4.45699375074
0.0135 0.0025 4.42090121729
0.0135 0.0035 4.38930673991
0.0135 0.0045 4.36341916214
0.0135 0.0055 4.34337635921
0.0135 0.0065 4.32830648535
0.0135 0.0075 4.31653293231
0.0135 0.0085 4.30741735572
0.0135 0.0095 4.30098804697
0.0135 0.0105 4.29893218615
0.0135 0.0115 4.30554981158
0.0135 0.0125 4.31824046714
0.0135 0.0135 4.3211018669
0.0135 0.0145 4.30026840294
0.0135 0.0155 4.26001822871
0.0135 0.0165 4.21463049345
0.0135 0.0175 4.17270812116
0.0135 0.0185 4.13332718485
0.0135 0.0195 4.09223416625
0.0135 0.0205 4.04727492005
0.0135 0.0215 3.99725640546
0.0135 0.0225 3.94001433041
0.0135 0.0235 3.87751778625
0.0135 0.0245 3.8137326279
0.0135 0.0255 3.75074931003
0.0135 0.0265 3.69075901863
0.0135 0.0275 3.63538135661
0.0135 0.0285 3.58623210212
0.0135 0.0295 3.54527324471
0.0135 0.0305 3.51498471337
0.0135 0.0315 3.49839938838
0.0145 -0.0315 3.50882449402
0.0145 -0.0305 3.53571468174
0.0145 -0.0295 3.58570724308
0.0145 -0.0285 3.65487456592
0.0145 -0.0275 3.74000576661
0.0145 -0.0265 3.83830499843
0.0145 -0.0255 3.94642572046
0.0145 -0.0245 4.05872284697
0.0145 -0.0235 4.16590873983
0.0145 -0.0225 4.25835237287
0.0145 -0.0215 4.33060614422
0.0145 -0.0205 4.38419751903
0.0145 -0.0195 4.42513838688
0.0145 -0.0185 4.4595321064
0.0145 -0.0175 4.49712942543
0.0145 -0.0165 4.53904866726
0.0145 -0.0155 4.55374480793
0.0145 -0.0145 4.52455529643
0.0145 -0.0135 4.48657680663
0.0145 -0.0125 4.46833161708
0.0145 -0.0115 4.46314772743
0.0145 -0.0105 4.45829765239
0.0145 -0.0095 4.45016264498
0.0145 -0.0085 4.44086331927
0.0145 -0.0075 4.43442741767
0.0145 -0.0065 4.43310299952
0.0145 -0.0055 4.43681342942
0.0145 -0.0045 4.4429988847
0.0145 -0.0035 4.44744049766
0.0145 -0.0025 4.44583700058
0.0145 -0.0015 4.43554825718
0.0145 -0.0005 4.41644623947
0.0145 0.0005 4.39068610552
0.0145 0.0015 4.36179863074
0.0145 0.0025 4.33361503726
0.0145 0.0035 4.30945939097
0.0145 0.0045 4.29164242409
0.0145 0.0055 4.28105891009
0.0145 0.0065 4.2769907267
0.0145 0.0075 4.27748206877
0.0145 0.0085 4.28005228149
0.0145 0.0095 4.28291610006
0.0145 0.0105 4.28791978061
0.0145 0.0115 4.30242624002
0.0145 0.0125 4.32714408741
0.0145 0.0135 4.34289893774
0.0145 0.0145 4.32645699297
0.0145 0.0155 4.27472323972
0.0145 0.0165 4.2064578044
0.0145 0.0175 4.14376694973
0.0145 0.0185 4.09359420469
0.0145 0.0195 4.04853186588
0.0145 0.0205 3.99944674482
0.0145 0.0215 3.94282622302
0.0145 0.0225 3.88021874358
0.0145 0.0235 3.81635240755
0.0145 0.0245 3.75496412337
0.0145 0.0255 3.69649702
0.0145 0.0265 3.64084647649
0.0145 0.0275 3.58851926109
0.0145 0.0285 3.54075848188
0.0145 0.0295 3.49975943948
0.0145 0.0305 3.46863623685
0.0145 0.0315 3.45125695732
0.0155 -0.0315 3.44764030996
0.0155 -0.0305 3.47436535306
0.0155 -0.0295 3.52308259922
0.0155 -0.0285 3.5889261595
0.0155 -0.0275 3.66819415296
0.0155 -0.0265 3.75854806755
0.0155 -0.0255 3.85880107163
0.0155 -0.0245 3.96716399121
0.0155 -0.0235 4.07823502493
0.0155 -0.0225 4.18365564338
0.0155 -0.0215 4.27137877703
0.0155 -0.0205 4.33690732928
0.0155 -0.0195 4.38814019861
0.0155 -0.0185 4.4373821952
0.0155 -0.0175 4.50105690709
0.0155 -0.0165 4.56767021402
0.0155 -0.0155 4.58928250656
0.0155 -0.0145 4.54960073215
0.0155 -0.0135 4.49353419301
0.0155 -0.0125 4.46154966356
0.0155 -0.0115 4.44750411702
0.0155 -0.0105 4.43293356795
0.0155 -0.0095 4.41187951349
0.0155 -0.0085 4.38613381484
0.0155 -0.0075 4.36118084593
0.0155 -0.0065 4.34147867922
0.0155 -0.0055 4.32863153753
0.0155 -0.0045 4.32181291315
0.0155 -0.0035 4.31794666066
0.0155 -0.0025 4.31324881141
0.0155 -0.0015 4.30470351225
0.0155 -0.0005 4.29099115861
0.0155 0.0005 4.27274507719
0.0155 0.0015 4.25221395976
0.0155 0.0025 4.23257459269
0.0155 0.0035 4.2171544167
0.0155 0.0045 4.20875040617
0.0155 0.0055 4.20888780711
0.0155 0.0065 4.2171781441
0.0155 0.0075 4.23170099115
0.0155 0.0085 4.24782416116
0.0155 0.0095 4.26153706602
0.0155 0.0105 4.27478849365
0.0155 0.0115 4.29598519432
0.0155 0.0125 4.32749543615
0.0155 0.0135 4.3502093271
0.0155 0.0145 4.33582010162
0.0155 0.0155 4.27321238534
0.0155 0.0165 4.18050291473
0.0155 0.0175 4.09102180701
0.0155 0.0185 4.0251767825
0.0155 0.0195 3.97755854385
0.0155 0.0205 3.92980555566
0.0155 0.0215 3.87223684175
0.0155 0.0225 3.80911866865
0.0155 0.0235 3.74825381678
0.0155 0.0245 3.69250122278
0.0155 0.0255 3.64059930348
0.0155 0.0265 3.59073369893
0.0155 0.0275 3.54204904583
0.0155 0.0285 3.4955246461
0.0155 0.0295 3.4538899606
0.0155 0.0305 3.42125762198
0.0155 0.0315 3.4026259763
0.0165 -0.0315 3.38464321035
0.0165 -0.0305 3.41206894322
0.0165 -0.0295 3.46071995872
0.0165 -0.0285 3.52409867821
0.0165 -0.0275 3.59726713065
0.0165 -0.0265 3.67740408849
0.0165 -0.0255 3.76451382153
0.0165 -0.0245 3.86118323436
0.0165 -0.0235 3.9686783971
0.0165 -0.0225 4.0843460447
0.0165 -0.0215 4.19163895044
0.0165 -0.0205 4.2758396061
0.0165 -0.0195 4.34495841888
0.0165 -0.0185 4.42303924282
0.0165 -0.0175 4.5256227542
0.0165 -0.0165 4.6188162493
0.0165 -0.0155 4.64383735695
0.0165 -0.0145 4.59034864844
0.0165 -0.0135 4.5112394507