% Model:              Benchmark260518.mph
% Version:            COMSOL 6.2.0.339
% Date:               May 21 2026, 10:09
% Dimension:          2
% Nodes:              4096
% Expressions:        1
% Description:        压力
% Length unit:        m
% x                       y                        p (Pa)
% mirrored_by_python_y_to_minus_y, coord_match_decimals=12
0.0005 -0.0315 4.42699720017
0.0005 -0.0305 4.44455275631
0.0005 -0.0295 4.46853666173
0.0005 -0.0285 4.49458872385
0.0005 -0.0275 4.52181392129
0.0005 -0.0265 4.54990564737
0.0005 -0.0255 4.57865931568
0.0005 -0.0245 4.6079543468
0.0005 -0.0235 4.63769382306
0.0005 -0.0225 4.66779500811
0.0005 -0.0215 4.69817782892
0.0005 -0.0205 4.72875654948
0.0005 -0.0195 4.75941680195
0.0005 -0.0185 4.79005218382
0.0005 -0.0175 4.82055450868
0.0005 -0.0165 4.85096701415
0.0005 -0.0155 4.88148328191
0.0005 -0.0145 4.91177334763
0.0005 -0.0135 4.94057334998
0.0005 -0.0125 4.96610526241
0.0005 -0.0115 4.98090329065
0.0005 -0.0105 4.98157468314
0.0005 -0.0095 4.97499106449
0.0005 -0.0085 4.96743298069
0.0005 -0.0075 4.96171622125
0.0005 -0.0065 4.95651892207
0.0005 -0.0055 4.94729681958
0.0005 -0.0045 4.93348285737
0.0005 -0.0035 4.92140224212
0.0005 -0.0025 4.91348148114
0.0005 -0.0015 4.90205014302
0.0005 -0.0005 4.87927241378
0.0005 0.0005 4.84381223747
0.0005 0.0015 4.79817501145
0.0005 0.0025 4.74637352405
0.0005 0.0035 4.69196358701
0.0005 0.0045 4.63701254351
0.0005 0.0055 4.58192275368
0.0005 0.0065 4.52687084581
0.0005 0.0075 4.47208320709
0.0005 0.0085 4.41774366479
0.0005 0.0095 4.36401650607
0.0005 0.0105 4.31104188108
0.0005 0.0115 4.25890134356
0.0005 0.0125 4.20761954843
0.0005 0.0135 4.15717679097
0.0005 0.0145 4.1075201989
0.0005 0.0155 4.05857121597
0.0005 0.0165 4.01024096607
0.0005 0.0175 3.96245910579
0.0005 0.0185 3.91517690144
0.0005 0.0195 3.86836518048
0.0005 0.0205 3.82201795182
0.0005 0.0215 3.77615081013
0.0005 0.0225 3.73079624066
0.0005 0.0235 3.68599943573
0.0005 0.0245 3.6418140474
0.0005 0.0255 3.59831654309
0.0005 0.0265 3.55564535357
0.0005 0.0275 3.5139956453
0.0005 0.0285 3.47368259757
0.0005 0.0295 3.43515233905
0.0005 0.0305 3.3996981614
0.0005 0.0315 3.37373713399
0.0015 -0.0315 4.40938879513
0.0015 -0.0305 4.42697195043
0.0015 -0.0295 4.45268377038
0.0015 -0.0285 4.48078508115
0.0015 -0.0275 4.50969487807
0.0015 -0.0265 4.53908077662
0.0015 -0.0255 4.56885671157
0.0015 -0.0245 4.59899410949
0.0015 -0.0235 4.62948381468
0.0015 -0.0225 4.66031276073
0.0015 -0.0215 4.69144694551
0.0015 -0.0205 4.72281255891
0.0015 -0.0195 4.75428571863
0.0015 -0.0185 4.78569306338
0.0015 -0.0175 4.8168545609
0.0015 -0.0165 4.84758864569
0.0015 -0.0155 4.87751533759
0.0015 -0.0145 4.90559110238
0.0015 -0.0135 4.92922756245
0.0015 -0.0125 4.94358660973
0.0015 -0.0115 4.94674298319
0.0015 -0.0105 4.94346913054
0.0015 -0.0095 4.93930251792
0.0015 -0.0085 4.93770584118
0.0015 -0.0075 4.94015837948
0.0015 -0.0065 4.94402445811
0.0015 -0.0055 4.9422005706
0.0015 -0.0045 4.93184202676
0.0015 -0.0035 4.9222536186
0.0015 -0.0025 4.91510480916
0.0015 -0.0015 4.90313384432
0.0015 -0.0005 4.88156312298
0.0015 0.0005 4.8466470417
0.0015 0.0015 4.80004559829
0.0015 0.0025 4.74596798051
0.0015 0.0035 4.688512715
0.0015 0.0045 4.63038075717
0.0015 0.0055 4.57256963435
0.0015 0.0065 4.5153581612
0.0015 0.0075 4.45892662046
0.0015 0.0085 4.4034613651
0.0015 0.0095 4.34912423289
0.0015 0.0105 4.29601341454
0.0015 0.0115 4.24413602983
0.0015 0.0125 4.19340759893
0.0015 0.0135 4.14367566425
0.0015 0.0145 4.09475476244
0.0015 0.0155 4.04645911822
0.0015 0.0165 3.99863335974
0.0015 0.0175 3.95116897095
0.0015 0.0185 3.90400642841
0.0015 0.0195 3.85712835516
0.0015 0.0205 3.81054855841
0.0015 0.0215 3.76429947928
0.0015 0.0225 3.71841945555
0.0015 0.0235 3.67294239431
0.0015 0.0245 3.6278963226
0.0015 0.0255 3.58331591918
0.0015 0.0265 3.53925271486
0.0015 0.0275 3.49578906784
0.0015 0.0285 3.45307366579
0.0015 0.0295 3.41158789196
0.0015 0.0305 3.37363517537
0.0015 0.0315 3.34766555283
0.0025 -0.0315 4.38525445857
0.0025 -0.0305 4.40117459908
0.0025 -0.0295 4.42692910332
0.0025 -0.0285 4.45668840891
0.0025 -0.0275 4.48765158398
0.0025 -0.0265 4.51891740668
0.0025 -0.0255 4.55029712514
0.0025 -0.0245 4.58181207556
0.0025 -0.0235 4.61354312016
0.0025 -0.0225 4.64557338632
0.0025 -0.0215 4.67794564142
0.0025 -0.0205 4.71062329618
0.0025 -0.0195 4.74345873158
0.0025 -0.0185 4.77617843371
0.0025 -0.0175 4.80836627789
0.0025 -0.0165 4.83936666218
0.0025 -0.0155 4.86804208442
0.0025 -0.0145 4.89232247661
0.0025 -0.0135 4.90901120289
0.0025 -0.0125 4.91616308061
0.0025 -0.0115 4.91626134179
0.0025 -0.0105 4.91343991094
0.0025 -0.0095 4.91081851722
0.0025 -0.0085 4.91151621845
0.0025 -0.0075 4.91791778091
0.0025 -0.0065 4.92906526501
0.0025 -0.0055 4.93622091297
0.0025 -0.0045 4.93061549697
0.0025 -0.0035 4.91946918136
0.0025 -0.0025 4.90929640683
0.0025 -0.0015 4.89628292837
0.0025 -0.0005 4.8754671912
0.0025 0.0005 4.84193188053
0.0025 0.0015 4.79518659465
0.0025 0.0025 4.73869518647
0.0025 0.0035 4.67736767849
0.0025 0.0045 4.61468894106
0.0025 0.0055 4.5524978532
0.0025 0.0065 4.4915941269
0.0025 0.0075 4.43237102547
0.0025 0.0085 4.37509617072
0.0025 0.0095 4.31992707116
0.0025 0.0105 4.2668631518
0.0025 0.0115 4.21572708952
0.0025 0.0125 4.16619251081
0.0025 0.0135 4.11785023579
0.0025 0.0145 4.07028612845
0.0025 0.0155 4.02314607548
0.0025 0.0165 3.97617231905
0.0025 0.0175 3.92921253351
0.0025 0.0185 3.8822094289
0.0025 0.0195 3.83517670032
0.0025 0.0205 3.78816805695
0.0025 0.0215 3.74124692727
0.0025 0.0225 3.6944624606
0.0025 0.0235 3.64783654785
0.0025 0.0245 3.60136425626
0.0025 0.0255 3.55502283312
0.0025 0.0265 3.50879327566
0.0025 0.0275 3.46271836482
0.0025 0.0285 3.41711160448
0.0025 0.0295 3.37329981915
0.0025 0.0305 3.33538230982
0.0025 0.0315 3.3119236648
0.0035 -0.0315 4.35896970412
0.0035 -0.0305 4.37290267971
0.0035 -0.0295 4.39708895354
0.0035 -0.0285 4.42689231862
0.0035 -0.0275 4.45905710696
0.0035 -0.0265 4.49194413825
0.0035 -0.0255 4.52495099397
0.0035 -0.0245 4.55796815336
0.0035 -0.0235 4.59108354771
0.0035 -0.0225 4.62444548709
0.0035 -0.0215 4.65817651388
0.0035 -0.0205 4.69229644326
0.0035 -0.0195 4.72664860189
0.0035 -0.0185 4.76082735042
0.0035 -0.0175 4.79408953914
0.0035 -0.0165 4.825230484
0.0035 -0.0155 4.85239588895
0.0035 -0.0145 4.87310364891
0.0035 -0.0135 4.88545800458
0.0035 -0.0125 4.89005986275
0.0035 -0.0115 4.88985830024
0.0035 -0.0105 4.88788731707
0.0035 -0.0095 4.88630770553
0.0035 -0.0085 4.88720316698
0.0035 -0.0075 4.8924410796
0.0035 -0.0065 4.90229659568
0.0035 -0.0055 4.90989991471
0.0035 -0.0045 4.90640686201
0.0035 -0.0035 4.89776463657
0.0035 -0.0025 4.8893932455
0.0035 -0.0015 4.87734698174
0.0035 -0.0005 4.85737450683
0.0035 0.0005 4.82482346428
0.0035 0.0015 4.77824004177
0.0035 0.0025 4.72005840217
0.0035 0.0035 4.65524309552
0.0035 0.0045 4.58795449646
0.0035 0.0055 4.52090733889
0.0035 0.0065 4.45572140471
0.0035 0.0075 4.39333127243
0.0035 0.0085 4.33423373867
0.0035 0.0095 4.27856777138
0.0035 0.0105 4.22612676251
0.0035 0.0115 4.17640418732
0.0035 0.0125 4.12870273178
0.0035 0.0135 4.08227416935
0.0035 0.0145 4.03644282082
0.0035 0.0155 3.99068488716
0.0035 0.0165 3.94465978807
0.0035 0.0175 3.89820335637
0.0035 0.0185 3.85129405052
0.0035 0.0195 3.80400280033
0.0035 0.0205 3.75643841241
0.0035 0.0215 3.70870057933
0.0035 0.0225 3.66084970813
0.0035 0.0235 3.61289729286
0.0035 0.0245 3.56481529281
0.0035 0.0255 3.51656685327
0.0035 0.0265 3.46817734026
0.0035 0.0275 3.41990953987
0.0035 0.0285 3.37269719101
0.0035 0.0295 3.32895757748
0.0035 0.0305 3.2934533508
0.0035 0.0315 3.27297516571
0.0045 -0.0315 4.33148956317
0.0045 -0.0305 4.34376405363
0.0045 -0.0295 4.36595706759
0.0045 -0.0285 4.39461706873
0.0045 -0.0275 4.42679717349
0.0045 -0.0265 4.46052066467
0.0045 -0.0255 4.49473060768
0.0045 -0.0245 4.52902400855
0.0045 -0.0235 4.56336679471
0.0045 -0.0225 4.59789555478
0.0045 -0.0215 4.63278064129
0.0045 -0.0205 4.6681038698
0.0045 -0.0195 4.70372748868
0.0045 -0.0185 4.73915074227
0.0045 -0.0175 4.77336837722
0.0045 -0.0165 4.80475578797
0.0045 -0.0155 4.83110991412
0.0045 -0.0145 4.85029284538
0.0045 -0.0135 4.86150313994
0.0045 -0.0125 4.86596997828
0.0045 -0.0115 4.86635290843
0.0045 -0.0105 4.86522890166
0.0045 -0.0095 4.86422608793
0.0045 -0.0085 4.86432884261
0.0045 -0.0075 4.86517578905
0.0045 -0.0065 4.86540900014
0.0045 -0.0055 4.86416322989
0.0045 -0.0045 4.86240274431
0.0045 -0.0035 4.86101603324
0.0045 -0.0025 4.85715223788
0.0045 -0.0015 4.84765824569
0.0045 -0.0005 4.82867697341
0.0045 0.0005 4.79610643784
0.0045 0.0015 4.74890817854
0.0045 0.0025 4.68902770184
0.0045 0.0035 4.62097519988
0.0045 0.0045 4.54923852138
0.0045 0.0055 4.47744241344
0.0045 0.0065 4.40816816381
0.0045 0.0075 4.34303830716
0.0045 0.0085 4.28282587149
0.0045 0.0095 4.22755675221
0.0045 0.0105 4.17664467601
0.0045 0.0115 4.12909619178
0.0045 0.0125 4.0837570168
0.0045 0.0135 4.03952786889
0.0045 0.0145 3.99550792017
0.0045 0.0155 3.95106384481
0.0045 0.0165 3.90583935024
0.0045 0.0175 3.85971980521
0.0045 0.0185 3.81276497862
0.0045 0.0195 3.76512689466
0.0045 0.0205 3.71697297594
0.0045 0.0215 3.66843106335
0.0045 0.0225 3.61956450568
0.0045 0.0235 3.57037772548
0.0045 0.0245 3.52085171084
0.0045 0.0255 3.47101824655
0.0045 0.0265 3.4211042392
0.0045 0.0275 3.37180738538
0.0045 0.0285 3.32472676134
0.0045 0.0295 3.28277411088
0.0045 0.0305 3.25025818732
0.0045 0.0315 3.23223741837
0.0055 -0.0315 4.30316358971
0.0055 -0.0305 4.31411479801
0.0055 -0.0295 4.33441644977
0.0055 -0.0285 4.36144659007
0.0055 -0.0275 4.39276137604
0.0055 -0.0265 4.42644605826
0.0055 -0.0255 4.46119615699
0.0055 -0.0245 4.49629957673
0.0055 -0.0235 4.53149838323
0.0055 -0.0225 4.56681852123
0.0055 -0.0215 4.60241361988
0.0055 -0.0205 4.63841028871
0.0055 -0.0195 4.67473247693
0.0055 -0.0185 4.71090601119
0.0055 -0.0175 4.7458786403
0.0055 -0.0165 4.77794292283
0.0055 -0.0155 4.80495323368
0.0055 -0.0145 4.82502366891
0.0055 -0.0135 4.83742833604
0.0055 -0.0125 4.84318662824
0.0055 -0.0115 4.84468431409
0.0055 -0.0105 4.84437355684
0.0055 -0.0095 4.84381292537
0.0055 -0.0085 4.84349016302
0.0055 -0.0075 4.8417306895
0.0055 -0.0065 4.83590686442
0.0055 -0.0055 4.82867557245
0.0055 -0.0045 4.82584851147
0.0055 -0.0035 4.82545402124
0.0055 -0.0025 4.82195144693
0.0055 -0.0015 4.81271684544
0.0055 -0.0005 4.79309146558
0.0055 0.0005 4.75896854273
0.0055 0.0015 4.70968813808
0.0055 0.0025 4.64695924392
0.0055 0.0035 4.57489623493
0.0055 0.0045 4.49841909109
0.0055 0.0055 4.42210850032
0.0055 0.0065 4.34951537822
0.0055 0.0075 4.28284916436
0.0055 0.0085 4.22294969373
0.0055 0.0095 4.16945684521
0.0055 0.0105 4.12116812235
0.0055 0.0115 4.0764878856
0.0055 0.0125 4.03380835402
0.0055 0.0135 3.9917538015
0.0055 0.0145 3.94930303291
0.0055 0.0155 3.90582486339
0.0055 0.0165 3.86105053591
0.0055 0.0175 3.81499428837
0.0055 0.0185 3.7678408993
0.0055 0.0195 3.71983126851
0.0055 0.0205 3.67117461487
0.0055 0.0215 3.62200235803
0.0055 0.0225 3.57236518166
0.0055 0.0235 3.52226875817
0.0055 0.0245 3.47174723565
0.0055 0.0255 3.42098485733
0.0055 0.0265 3.37050622132
0.0055 0.0275 3.32143171165
0.0055 0.0285 3.27570660385
0.0055 0.0295 3.23615416567
0.0055 0.0305 3.20636938771
0.0055 0.0315 3.19024143372
0.0065 -0.0315 4.27418118585
0.0065 -0.0305 4.28404514238
0.0065 -0.0295 4.30264646767
0.0065 -0.0285 4.32793714282
0.0065 -0.0275 4.35791367858
0.0065 -0.0265 4.39088221163
0.0065 -0.0255 4.4255039409
0.0065 -0.0245 4.46085815526
0.0065 -0.0235 4.49643790426
0.0065 -0.0225 4.53207379603
0.0065 -0.0215 4.56781788869
0.0065 -0.0205 4.60379936574
0.0065 -0.0195 4.64004511584
0.0065 -0.0185 4.67626996688
0.0065 -0.0175 4.71167915249
0.0065 -0.0165 4.74487022087
0.0065 -0.0155 4.77392977268
0.0065 -0.0145 4.79683554902
0.0065 -0.0135 4.8122569546
0.0065 -0.0125 4.82059330217
0.0065 -0.0115 4.82388451323
0.0065 -0.0105 4.82465584122
0.0065 -0.0095 4.82483423179
0.0065 -0.0085 4.82543606466
0.0065 -0.0075 4.82540331931
0.0065 -0.0065 4.8215248579
0.0065 -0.0055 4.81447537798
0.0065 -0.0045 4.80780841027
0.0065 -0.0035 4.80101890596
0.0065 -0.0025 4.79228993017
0.0065 -0.0015 4.77904743908
0.0065 -0.0005 4.75573980573
0.0065 0.0005 4.71790193734
0.0065 0.0015 4.66423452529
0.0065 0.0025 4.59627210661
0.0065 0.0035 4.51832575257
0.0065 0.0045 4.43619950309
0.0065 0.0055 4.3556351565
0.0065 0.0065 4.28102410057
0.0065 0.0075 4.21476001112
0.0065 0.0085 4.15719342486
0.0065 0.0095 4.10710302218
0.0065 0.0105 4.06245244445
0.0065 0.0115 4.02104976177
0.0065 0.0125 3.98095235479
0.0065 0.0135 3.94066405669
0.0065 0.0145 3.89920429204
0.0065 0.0155 3.85609842378
0.0065 0.0165 3.81129257501
0.0065 0.0175 3.76500589644
0.0065 0.0185 3.71756642758
0.0065 0.0195 3.66927876978
0.0065 0.0205 3.62034980711
0.0065 0.0215 3.570874768
0.0065 0.0225 3.52087285123
0.0065 0.0235 3.47036139303
0.0065 0.0245 3.41946464566
0.0065 0.0255 3.36855853662
0.0065 0.0265 3.31844073051
0.0065 0.0275 3.27047639545
0.0065 0.0285 3.22664391004
0.0065 0.0295 3.18946943467
0.0065 0.0305 3.16197099626
0.0065 0.0315 3.14729909056
0.0075 -0.0315 4.24464249874
0.0075 -0.0305 4.25357689565
0.0075 -0.0295 4.27062792484
0.0075 -0.0285 4.29417564833
0.0075 -0.0275 4.32258063155
0.0075 -0.0265 4.35439306914
0.0075 -0.0255 4.38835311564
0.0075 -0.0245 4.42344452793
0.0075 -0.0235 4.45894721992
0.0075 -0.0225 4.49445070954
0.0075 -0.0215 4.52982055216
0.0075 -0.0205 4.56511976204
0.0075 -0.0195 4.60048142498
0.0075 -0.0185 4.63593386097
0.0075 -0.0175 4.67119563979
0.0075 -0.0165 4.70546011897
0.0075 -0.0155 4.73720067536
0.0075 -0.0145 4.76418827186
0.0075 -0.0135 4.78419040413
0.0075 -0.0125 4.79660120878
0.0075 -0.0115 4.80281213282
0.0075 -0.0105 4.80542236366
0.0075 -0.0095 4.80709781523
0.0075 -0.0085 4.81029629458
0.0075 -0.0075 4.81547229262
0.0075 -0.0065 4.81740291569
0.0075 -0.0055 4.81200812174
0.0075 -0.0045 4.80141775335
0.0075 -0.0035 4.78766374183
0.0075 -0.0025 4.77146170583
0.0075 -0.0015 4.75097588402
0.0075 -0.0005 4.72077339668
0.0075 0.0005 4.67624626933
0.0075 0.0015 4.61528386343
0.0075 0.0025 4.53914971597
0.0075 0.0035 4.45300963627
0.0075 0.0045 4.3642119476
0.0075 0.0055 4.27998690986
0.0075 0.0065 4.20532172019
0.0075 0.0075 4.14197835343
0.0075 0.0085 4.08892589543
0.0075 0.0095 4.04362874465
0.0075 0.0105 4.00317900113
0.0075 0.0115 3.96494031405
0.0075 0.0125 3.92684092733
0.0075 0.0135 3.88747164732
0.0075 0.0145 3.84610387264
0.0075 0.0155 3.80261154367
0.0075 0.0165 3.75727920848
0.0075 0.0175 3.71056538022
0.0075 0.0185 3.66290475245
0.0075 0.0195 3.61459485256
0.0075 0.0205 3.56577004427
0.0075 0.0215 3.51644152463
0.0075 0.0225 3.46657926711
0.0075 0.0235 3.41621976551
0.0075 0.0245 3.36559033435
0.0075 0.0255 3.31523767731
0.0075 0.0265 3.26613272341
0.0075 0.0275 3.21971283079
0.0075 0.0285 3.1778486117
0.0075 0.0295 3.14278259277
0.0075 0.0305 3.11712846037
0.0075 0.0315 3.10356302425
0.0085 -0.0315 4.21465824012
0.0085 -0.0305 4.22272907374
0.0085 -0.0295 4.2382963745
0.0085 -0.0285 4.26008050673
0.0085 -0.0275 4.2867557783
0.0085 -0.0265 4.31711248745
0.0085 -0.0255 4.35001967863
0.0085 -0.0245 4.38444748536
0.0085 -0.0235 4.41952166789
0.0085 -0.0225 4.4545855133
0.0085 -0.0215 4.48924968054
0.0085 -0.0205 4.5234151756
0.0085 -0.0195 4.55725010067
0.0085 -0.0185 4.59109458721
0.0085 -0.0175 4.62526790691
0.0085 -0.0165 4.65974064673
0.0085 -0.0155 4.6936637669
0.0085 -0.0145 4.72496553753
0.0085 -0.0135 4.75066966273
0.0085 -0.0125 4.76887797138
0.0085 -0.0115 4.77971028689
0.0085 -0.0105 4.78552449724
0.0085 -0.0095 4.78999259715
0.0085 -0.0085 4.79771242483
0.0085 -0.0075 4.8108496723
0.0085 -0.0065 4.82135965619
0.0085 -0.0055 4.81959439981
0.0085 -0.0045 4.80597446671
0.0085 -0.0035 4.78491346818
0.0085 -0.0025 4.75931568199
0.0085 -0.0015 4.72869475537
0.0085 -0.0005 4.68821391972
0.0085 0.0005 4.63345662263
0.0085 0.0015 4.56256808846
0.0085 0.0025 4.47632473931
0.0085 0.0035 4.38069304732
0.0085 0.0045 4.28533737931
0.0085 0.0055 4.19920497438
0.0085 0.0065 4.12722683002
0.0085 0.0075 4.06926455317
0.0085 0.0085 4.02223615975
0.0085 0.0095 3.98226685953
0.0085 0.0105 3.94575358878
0.0085 0.0115 3.90984149641
0.0085 0.0125 3.8725426794
0.0085 0.0135 3.83278711074
0.0085 0.0145 3.79037751788
0.0085 0.0155 3.74573295698
0.0085 0.0165 3.69953471024
0.0085 0.0175 3.65242382128
0.0085 0.0185 3.60482871548
0.0085 0.0195 3.55692617847
0.0085 0.0205 3.50869513563
0.0085 0.0215 3.46001917465
0.0085 0.0225 3.41080797794
0.0085 0.0235 3.36112054273
0.0085 0.0245 3.31127741453
0.0085 0.0255 3.2619456197
0.0085 0.0265 3.21417729496
0.0085 0.0275 3.16939485958
0.0085 0.0285 3.12934263207
0.0085 0.0295 3.09604885392
0.0085 0.0305 3.07185581846
0.0085 0.0315 3.05913804622
0.0095 -0.0315 4.1843264198
0.0095 -0.0305 4.19153793857
0.0095 -0.0295 4.20560039151
0.0095 -0.0285 4.22553678796
0.0095 -0.0275 4.25030701181
0.0095 -0.0265 4.27894188229
0.0095 -0.0255 4.31047536591
0.0095 -0.0245 4.34393069239
0.0095 -0.0235 4.37834984321
0.0095 -0.0225 4.41286174255
0.0095 -0.0215 4.44678347014
0.0095 -0.0205 4.47974025401
0.0095 -0.0195 4.51177130218
0.0095 -0.0185 4.54335964591
0.0095 -0.0175 4.57530716662
0.0095 -0.0165 4.60839956762
0.0095 -0.0155 4.64279986082
0.0095 -0.0145 4.67722978438
0.0095 -0.0135 4.70867927544
0.0095 -0.0125 4.734177491
0.0095 -0.0115 4.75177858137
0.0095 -0.0105 4.7628164874
0.0095 -0.0095 4.77197022188
0.0095 -0.0085 4.78648606561
0.0095 -0.0075 4.80984693562
0.0095 -0.0065 4.83092828191
0.0095 -0.0055 4.83495865774
0.0095 -0.0045 4.81940909852
0.0095 -0.0035 4.78998861515
0.0095 -0.0025 4.75221567659
0.0095 -0.0015 4.70784982341
0.0095 -0.0005 4.65369999764
0.0095 0.0005 4.58579217953
0.0095 0.0015 4.50302349212
0.0095 0.0025 4.40672732525
0.0095 0.0035 4.30299153673
0.0095 0.0045 4.20397876597
0.0095 0.0055 4.12004834165
0.0095 0.0065 4.05368499993
0.0095 0.0075 4.00230070122
0.0095 0.0085 3.96133633331
0.0095 0.0095 3.92591457156
0.0095 0.0105 3.89202044311
0.0095 0.0115 3.85673123966
0.0095 0.0125 3.81834927039
0.0095 0.0135 3.77653114885
0.0095 0.0145 3.73192897896
0.0095 0.0155 3.68560722383
0.0095 0.0165 3.63855237244
0.0095 0.0175 3.59140399042
0.0095 0.0185 3.54440201672
0.0095 0.0195 3.49747066187
0.0095 0.0205 3.45036110702
0.0095 0.0215 3.40280530083
0.0095 0.0225 3.35465642652
0.0095 0.0235 3.30600280674
0.0095 0.0245 3.25724568908
0.0095 0.0255 3.20913400668
0.0095 0.0265 3.16275628282
0.0095 0.0275 3.11950194948
0.0095 0.0285 3.08101569317
0.0095 0.0295 3.04917658732
0.0095 0.0305 3.02614407566
0.0095 0.0315 3.01408609172
0.0105 -0.0315 4.15372475954
0.0105 -0.0305 4.16004771726
0.0105 -0.0295 4.17252604379
0.0105 -0.0285 4.1904657065
0.0105 -0.0275 4.21310173679
0.0105 -0.0265 4.23971393679
0.0105 -0.0255 4.26954088804
0.0105 -0.0245 4.30173125933
0.0105 -0.0235 4.33533402217
0.0105 -0.0225 4.36933847472
0.0105 -0.0215 4.40277801865
0.0105 -0.0205 4.43490238257
0.0105 -0.0195 4.46539421346
0.0105 -0.0185 4.49456129001
0.0105 -0.0175 4.52338566758
0.0105 -0.0165 4.553296047
0.0105 -0.0155 4.58561005962
0.0105 -0.0145 4.62050824226
0.0105 -0.0135 4.65595510177
0.0105 -0.0125 4.68890604612
0.0105 -0.0115 4.71517373391
0.0105 -0.0105 4.73377527615
0.0105 -0.0095 4.74977555264
0.0105 -0.0085 4.77274487464
0.0105 -0.0075 4.80659521878
0.0105 -0.0065 4.83789164245
0.0105 -0.0055 4.84823371061
0.0105 -0.0045 4.83164224062
0.0105 -0.0035 4.79381500903
0.0105 -0.0025 4.74237927488
0.0105 -0.0015 4.68154117344
0.0105 -0.0005 4.61098518964
0.0105 0.0005 4.5285651692
0.0105 0.0015 4.43402348218
0.0105 0.0025 4.32963037963
0.0105 0.0035 4.22201784813
0.0105 0.0045 4.12500713386
0.0105 0.0055 4.04849693404
0.0105 0.0065 3.99049807625
0.0105 0.0075 3.94576044165
0.0105 0.0085 3.90937657888
0.0105 0.0095 3.87643550249
0.0105 0.0105 3.84281735735
0.0105 0.0115 3.80549405007
0.0105 0.0125 3.76356973612
0.0105 0.0135 3.71796582199
0.0105 0.0145 3.67038369199
0.0105 0.0155 3.6223972505
0.0105 0.0165 3.57499576433
0.0105 0.0175 3.52852351346
0.0105 0.0185 3.48282674078
0.0105 0.0195 3.43746733305
0.0105 0.0205 3.39193319302
0.0105 0.0215 3.34581553635
0.0105 0.0225 3.29894035855
0.0105 0.0235 3.25144871243
0.0105 0.0245 3.20382751876
0.0105 0.0255 3.15689949863
0.0105 0.0265 3.11178546384
0.0105 0.0275 3.06985516497
0.0105 0.0285 3.03268540224
0.0105 0.0295 3.00204903921
0.0105 0.0305 2.97996883859
0.0105 0.0315 2.96845150543
0.0115 -0.0315 4.12290981129
0.0115 -0.0305 4.12831089775
0.0115 -0.0295 4.13910418707
0.0115 -0.0285 4.15486015746
0.0115 -0.0275 4.17508319454
0.0115 -0.0265 4.19931293282
0.0115 -0.0255 4.22703374625
0.0115 -0.0245 4.25759974907
0.0115 -0.0235 4.2901814379
0.0115 -0.0225 4.32375267669
0.0115 -0.0215 4.35714615218
0.0115 -0.0205 4.38920644041
0.0115 -0.0195 4.41905530717
0.0115 -0.0185 4.44643896861
0.0115 -0.0175 4.4720545144
0.0115 -0.0165 4.49762424386
0.0115 -0.0155 4.52542953269
0.0115 -0.0145 4.5573737615
0.0115 -0.0135 4.59346174132
0.0115 -0.0125 4.63153184198
0.0115 -0.0115 4.6663014695
0.0115 -0.0105 4.69383136815
0.0115 -0.0095 4.71789440656
0.0115 -0.0085 4.74858611252
0.0115 -0.0075 4.78962763988
0.0115 -0.0065 4.82787744488
0.0115 -0.0055 4.84396581313
0.0115 -0.0045 4.82887165316
0.0115 -0.0035 4.7864650803
0.0115 -0.0025 4.72453570973
0.0115 -0.0015 4.64792865491
0.0115 -0.0005 4.55875419134
0.0115 0.0005 4.46021335963
0.0115 0.0015 4.35599294712
0.0115 0.0025 4.24866069511
0.0115 0.0035 4.1449485669
0.0115 0.0045 4.05686952689
0.0115 0.0055 3.99010470504
0.0115 0.0065 3.9397307717
0.0115 0.0075 3.90013562479
0.0115 0.0085 3.8666443577
0.0115 0.0095 3.83376106546
0.0115 0.0105 3.79714315626
0.0115 0.0115 3.75445188216
0.0115 0.0125 3.70651265439
0.0115 0.0135 3.65597306253
0.0115 0.0145 3.60546494639
0.0115 0.0155 3.55659464488
0.0115 0.0165 3.50988354449
0.0115 0.0175 3.46506593569
0.0115 0.0185 3.42143373872
0.0115 0.0195 3.37813849568
0.0115 0.0205 3.33442808053
0.0115 0.0215 3.28981191509
0.0115 0.0225 3.24415226769
0.0115 0.0235 3.19769021787
0.0115 0.0245 3.15102586807
0.0115 0.0255 3.1050724713
0.0115 0.0265 3.06099906793
0.0115 0.0275 3.02017429742
0.0115 0.0285 2.98412588672
0.0115 0.0295 2.95453561187
0.0115 0.0305 2.93329929779
0.0115 0.0315 2.92226733136
0.0125 -0.0315 4.09194070601
0.0125 -0.0305 4.09639382037
0.0125 -0.0295 4.10541080675
0.0125 -0.0285 4.11879661526
0.0125 -0.0275 4.13631084328
0.0125 -0.0265 4.15775515665
0.0125 -0.0255 4.18289100821
0.0125 -0.0245 4.21135231152
0.0125 -0.0235 4.24255585569
0.0125 -0.0225 4.27562521251
0.0125 -0.0215 4.30936074565
0.0125 -0.0205 4.34230141362
0.0125 -0.0195 4.37293608611
0.0125 -0.0185 4.40013486089
0.0125 -0.0175 4.42378273548
0.0125 -0.0165 4.44535146633
0.0125 -0.0155 4.46783346444
0.0125 -0.0145 4.49438447684
0.0125 -0.0135 4.52717508026
0.0125 -0.0125 4.56581914531
0.0125 -0.0115 4.60546992178
0.0125 -0.0105 4.64023631686
0.0125 -0.0095 4.67093747639
0.0125 -0.0085 4.70579497088
0.0125 -0.0075 4.74918407608
0.0125 -0.0065 4.79137005657
0.0125 -0.0055 4.81432540908
0.0125 -0.0045 4.80547583565
0.0125 -0.0035 4.76390226424
0.0125 -0.0025 4.69537930103
0.0125 -0.0015 4.60514086532
0.0125 -0.0005 4.4984210457
0.0125 0.0005 4.38512896407
0.0125 0.0015 4.27477131069
0.0125 0.0025 4.1707923535
0.0125 0.0035 4.07790186788
0.0125 0.0045 4.00255998706
0.0125 0.0055 3.94473383142
0.0125 0.0065 3.89958952736
0.0125 0.0075 3.86330437532
0.0125 0.0085 3.83067977221
0.0125 0.0095 3.79475434634
0.0125 0.0105 3.75138086519
0.0125 0.0115 3.70034504339
0.0125 0.0125 3.64492068739
0.0125 0.0135 3.58966580157
0.0125 0.0145 3.53748479149
0.0125 0.0155 3.48929464163
0.0125 0.0165 3.4446875145
0.0125 0.0175 3.40256468101
0.0125 0.0185 3.36160301192
0.0125 0.0195 3.32058435076
0.0125 0.0205 3.27861437747
0.0125 0.0215 3.23523395947
0.0125 0.0225 3.19043663368
0.0125 0.0235 3.14462872789
0.0125 0.0245 3.09856546207
0.0125 0.0255 3.05327860938
0.0125 0.0265 3.01000352918
0.0125 0.0275 2.97011564737
0.0125 0.0285 2.93509042935
0.0125 0.0295 2.90650514382
0.0125 0.0305 2.8861071809
0.0125 0.0315 2.87556569773
0.0135 -0.0315 4.06088756453
0.0135 -0.0305 4.06437882406
0.0135 -0.0295 4.07156006329
0.0135 -0.0285 4.08242900589
0.0135 -0.0275 4.09696931304
0.0135 -0.0265 4.11522864456
0.0135 -0.0255 4.1372538266
0.0135 -0.0245 4.16300777278
0.0135 -0.0235 4.19226161966
0.0135 -0.0225 4.22446604456
0.0135 -0.0215 4.25862413792
0.0135 -0.0205 4.29321509952
0.0135 -0.0195 4.32624534789
0.0135 -0.0185 4.35559009901
0.0135 -0.0175 4.37990300139
0.0135 -0.0165 4.39979253667
0.0135 -0.0155 4.41827303453
0.0135 -0.0145 4.43935061771
0.0135 -0.0135 4.46689624904
0.0135 -0.0125 4.50200741753
0.0135 -0.0115 4.54057032263
0.0135 -0.0105 4.57741382761
0.0135 -0.0095 4.61094853432
0.0135 -0.0085 4.64615357999
0.0135 -0.0075 4.68878965653
0.0135 -0.0065 4.73301280509
0.0135 -0.0055 4.76218601878
0.0135 -0.0045 4.76030687153
0.0135 -0.0035 4.72125004413
0.0135 -0.0025 4.64760787277
0.0135 -0.0015 4.54597218395
0.0135 -0.0005 4.4269804368
0.0135 0.0005 4.30644031018
0.0135 0.0015 4.19631818232
0.0135 0.0025 4.09905334161
0.0135 0.0035 4.01702608234
0.0135 0.0045 3.95295090655
0.0135 0.0055 3.90384617553
0.0135 0.0065 3.86440592001
0.0135 0.0075 3.83045924091
0.0135 0.0085 3.79624824286
0.0135 0.0095 3.7536351325
0.0135 0.0105 3.70000035127
0.0135 0.0115 3.63921573833
0.0135 0.0125 3.57709600142
0.0135 0.0135 3.51923963646
0.0135 0.0145 3.46777829472
0.0135 0.0155 3.42233289256
0.0135 0.0165 3.38130022852
0.0135 0.0175 3.34268565271
0.0135 0.0185 3.30461242964
0.0135 0.0195 3.26563877097
0.0135 0.0205 3.22490700386
0.0135 0.0215 3.18214390014
0.0135 0.0225 3.13758133405
0.0135 0.0235 3.09186062164
0.0135 0.0245 3.04593808967
0.0135 0.0255 3.00099044314
0.0135 0.0265 2.95832520854
0.0135 0.0275 2.91931032702
0.0135 0.0285 2.8853388082
0.0135 0.0295 2.85784332905
0.0135 0.0305 2.8383780403
0.0135 0.0315 2.82838780552
0.0145 -0.0315 4.02981204346
0.0145 -0.0305 4.03235362208
0.0145 -0.0295 4.03769000413
0.0145 -0.0285 4.0459675295
0.0145 -0.0275 4.05734970845
0.0145 -0.0265 4.07209168526
0.0145 -0.0255 4.09050264706
0.0145 -0.0245 4.11288275298
0.0145 -0.0235 4.13941946201
0.0145 -0.0225 4.17003481744
0.0145 -0.0215 4.20418435681
0.0145 -0.0205 4.24063125079
0.0145 -0.0195 4.27726757809
0.0145 -0.0185 4.31117500446
0.0145 -0.0175 4.33947879558
0.0145 -0.0165 4.36148648633
0.0145 -0.0155 4.37948812505
0.0145 -0.0145 4.39760435158
0.0145 -0.0135 4.42034259678
0.0145 -0.0125 4.44928071929
0.0145 -0.0115 4.4821097429
0.0145 -0.0105 4.51618967566
0.0145 -0.0095 4.54892728865
0.0145 -0.0085 4.58194282987
0.0145 -0.0075 4.62089244689
0.0145 -0.0065 4.66326658617
0.0145 -0.0055 4.69375966489
0.0145 -0.0045 4.69460012362
0.0145 -0.0035 4.65661917668
0.0145 -0.0025 4.57997556785
0.0145 -0.0015 4.4723952819
0.0145 -0.0005 4.34867763411
0.0145 0.0005 4.22734856487
0.0145 0.0015 4.12089914007
0.0145 0.0025 4.03115083576
0.0145 0.0035 3.95743431329
0.0145 0.0045 3.90104574419
0.0145 0.0055 3.85961382757
0.0145 0.0065 3.82585314814
0.0145 0.0075 3.79295302796
0.0145 0.0085 3.75452670825
0.0145 0.0095 3.70246155401
0.0145 0.0105 3.63756353461
0.0145 0.0115 3.56879068539
0.0145 0.0125 3.50358387273
0.0145 0.0135 3.4467588226
0.0145 0.0145 3.3989368569
0.0145 0.0155 3.35823929006
0.0145 0.0165 3.32186336108
0.0145 0.0175 3.28700427848
0.0145 0.0185 3.25142184696
0.0145 0.0195 3.21371000828
0.0145 0.0205 3.17327914772
0.0145 0.0215 3.13019493923
0.0145 0.0225 3.08502421678
0.0145 0.0235 3.03871052886
0.0145 0.0245 2.9924534941
0.0145 0.0255 2.94758611721
0.0145 0.0265 2.90546725076
0.0145 0.0275 2.86741168231
0.0145 0.0285 2.83467145372
0.0145 0.0295 2.80847386523
0.0145 0.0305 2.79012208196
0.0145 0.0315 2.7807866541
0.0155 -0.0315 3.99876401279
0.0155 -0.0305 4.00039681937
0.0155 -0.0295 4.00393980928
0.0155 -0.0285 4.00964634285
0.0155 -0.0275 4.01780888036
0.0155 -0.0265 4.02883380787
0.0155 -0.0255 4.04323915767
0.0155 -0.0245 4.06162321151
0.0155 -0.0235 4.0845869893
0.0155 -0.0225 4.1125899497
0.0155 -0.0215 4.14572382823
0.0155 -0.0205 4.18338114554
0.0155 -0.0195 4.22382046581
0.0155 -0.0185 4.26381031115
0.0155 -0.0175 4.29909127752
0.0155 -0.0165 4.32728189339
0.0155 -0.0155 4.34876931458
0.0155 -0.0145 4.36679721895
0.0155 -0.0135 4.3860544695
0.0155 -0.0125 4.40840059405
0.0155 -0.0115 4.43442595546
0.0155 -0.0105 4.46372877806
0.0155 -0.0095 4.49345407376
0.0155 -0.0085 4.52321470812
0.0155 -0.0075 4.55641033301
0.0155 -0.0065 4.59227257822
0.0155 -0.0055 4.61745346855
0.0155 -0.0045 4.61480471198
0.0155 -0.0035 4.57511998908
0.0155 -0.0025 4.49797232651
0.0155 -0.0015 4.39158836122
0.0155 -0.0005 4.27086058871
0.0155 0.0005 4.15264245323
0.0155 0.0015 4.04944896891
0.0155 0.0025 3.96539732906
0.0155 0.0035 3.89866886698
0.0155 0.0045 3.84765205926
0.0155 0.0055 3.80968869174
0.0155 0.0065 3.77749822573
0.0155 0.0075 3.74261578321
0.0155 0.0085 3.69718902124
0.0155 0.0095 3.63529623213
0.0155 0.0105 3.56296047769
0.0155 0.0115 3.49177709114
0.0155 0.0125 3.42855639434
0.0155 0.0135 3.37652835894
0.0155 0.0145 3.33471855359
0.0155 0.0155 3.29996630881
0.0155 0.0165 3.26841575314
0.0155 0.0175 3.23666221895
0.0155 0.0185 3.20242501172
0.0155 0.0195 3.16465047858
0.0155 0.0205 3.1232104222
0.0155 0.0215 3.07862216622
0.0155 0.0225 3.03187545069
0.0155 0.0235 2.98428213741
0.0155 0.0245 2.9373111254
0.0155 0.0255 2.89242853647
0.0155 0.0265 2.85098206258
0.0155 0.0275 2.81415178207
0.0155 0.0285 2.78296696288
0.0155 0.0295 2.75837877459
0.0155 0.0305 2.74138174536
0.0155 0.0315 2.73282965065
0.0165 -0.0315 3.96778273881
0.0165 -0.0305 3.96856834104
0.0165 -0.0295 3.97042785192
0.0165 -0.0285 3.97368586409
0.0165 -0.0275 3.97871464458
0.0165 -0.0265 3.98600899829
0.0165 -0.0255 3.99622090097
0.0165 -0.0245 4.0101664042
0.0165 -0.0235 4.02878865656
0.0165 -0.0225 4.05305287598
0.0165 -0.0215 4.08373354364
0.0165 -0.0205 4.12105919797
0.0165 -0.0195 4.16410014063
0.0165 -0.0185 4.20992236009
0.0165 -0.0175 4.25349837149
0.0165 -0.0165 4.29043899701
0.0165 -0.0155 4.3179225517
0.0165 -0.0145 4.3380471363