% Model:              Benchmark260518.mph
% Version:            COMSOL 6.2.0.339
% Date:               May 18 2026, 23:07
% Dimension:          2
% Nodes:              4096
% Expressions:        1
% Description:        压力
% Length unit:        m
% x                       y                        p (Pa)
5.0E-4                    -0.0315                  3.821567373779534
5.0E-4                    -0.0305                  3.8415638252339295
5.0E-4                    -0.0295                  3.8687987679426215
5.0E-4                    -0.0285                  3.8984399331768445
5.0E-4                    -0.0275                  3.9294482063346283
5.0E-4                    -0.0265                  3.961443842457372
5.0E-4                    -0.0255                  3.9941928287658435
5.0E-4                    -0.0245                  4.027582728969599
5.0E-4                    -0.0235                  4.061559456425251
5.0E-4                    -0.0225                  4.096112159580821
5.0E-4                    -0.0215                  4.131248175645945
5.0E-4                    -0.0205                  4.1670049889557985
5.0E-4                    -0.0195                  4.203459358408078
5.0E-4                    -0.0185                  4.240725244455755
5.0E-4                    -0.0175                  4.278971283238869
5.0E-4                    -0.0165                  4.318435505777127
5.0E-4                    -0.0155                  4.359454129776598
5.0E-4                    -0.0145                  4.402473339201129
5.0E-4                    -0.0135                  4.448054637881232
5.0E-4                    -0.0125                  4.4969170197048
5.0E-4                    -0.0115                  4.549960064571321
5.0E-4                    -0.0105                  4.608159543969031
5.0E-4                    -0.0095                  4.671159682909782
5.0E-4                    -0.0085                  4.734988321696724
5.0E-4                    -0.0075                  4.793401655135348
5.0E-4                    -0.0065                  4.838232529468751
5.0E-4                    -0.0055                  4.865797812796051
5.0E-4                    -0.0045                  4.880296513139333
5.0E-4                    -0.0035                  4.8860803779534745
5.0E-4                    -0.0025                  4.88566086648224
5.0E-4                    -0.0015                  4.880547643968744
5.0E-4                    -5.0E-4                  4.8715044062379835
5.0E-4                    5.0E-4                   4.859399777061785
5.0E-4                    0.0015                   4.846219408204503
5.0E-4                    0.0025                   4.83402914810059
5.0E-4                    0.0035                   4.8300449071903095
5.0E-4                    0.0045                   4.857717871649897
5.0E-4                    0.0055                   4.921159167429637
5.0E-4                    0.0065                   4.977075418746368
5.0E-4                    0.0075                   5.00163877438114
5.0E-4                    0.0085                   5.007687447636563
5.0E-4                    0.0095                   5.006153862321104
5.0E-4                    0.0105                   5.003143773977738
5.0E-4                    0.0115                   4.998469590461773
5.0E-4                    0.0125                   4.989141247170305
5.0E-4                    0.0135                   4.973237223532103
5.0E-4                    0.0145                   4.947053188521414
5.0E-4                    0.0155                   4.9095023700051
5.0E-4                    0.0165                   4.864146094923902
5.0E-4                    0.0175                   4.814525114598601
5.0E-4                    0.0185                   4.763688927962665
5.0E-4                    0.0195                   4.712694350409012
5.0E-4                    0.0205                   4.661789435708854
5.0E-4                    0.0215                   4.611192093486661
5.0E-4                    0.0225                   4.561020546142418
5.0E-4                    0.0235                   4.511357974029199
5.0E-4                    0.0245                   4.462279931112857
5.0E-4                    0.0255                   4.413879427194616
5.0E-4                    0.0265                   4.366308956354315
5.0E-4                    0.0275                   4.319777287313435
5.0E-4                    0.0285                   4.2746484179236175
5.0E-4                    0.0295                   4.23148357938053
5.0E-4                    0.0305                   4.191791560232608
5.0E-4                    0.0315                   4.1626752361125146
0.0015                    -0.0315                  3.8014525712799982
0.0015                    -0.0305                  3.821484110200678
0.0015                    -0.0295                  3.850649377871387
0.0015                    -0.0285                  3.8825217261599536
0.0015                    -0.0275                  3.9153040721307995
0.0015                    -0.0265                  3.948559906422322
0.0015                    -0.0255                  3.9821390267355214
0.0015                    -0.0245                  4.015978643213444
0.0015                    -0.0235                  4.050062797772018
0.0015                    -0.0225                  4.084398754853962
0.0015                    -0.0215                  4.119005003071982
0.0015                    -0.0205                  4.153905938604921
0.0015                    -0.0195                  4.189137614481481
0.0015                    -0.0185                  4.224755692258649
0.0015                    -0.0175                  4.260854127178576
0.0015                    -0.0165                  4.29760570159592
0.0015                    -0.0155                  4.335315001484529
0.0015                    -0.0145                  4.374481642182709
0.0015                    -0.0135                  4.415854586322139
0.0015                    -0.0125                  4.4605324834672295
0.0015                    -0.0115                  4.510141412344223
0.0015                    -0.0105                  4.566811451804296
0.0015                    -0.0095                  4.632020157971676
0.0015                    -0.0085                  4.703356446493844
0.0015                    -0.0075                  4.773243203189526
0.0015                    -0.0065                  4.8283806782923735
0.0015                    -0.0055                  4.862329861986745
0.0015                    -0.0045                  4.880403704264183
0.0015                    -0.0035                  4.8873696988708435
0.0015                    -0.0025                  4.886391058413803
0.0015                    -0.0015                  4.880391350255263
0.0015                    -5.0E-4                  4.870956362788241
0.0015                    5.0E-4                   4.8589237433088925
0.0015                    0.0015                   4.84630903116487
0.0015                    0.0025                   4.838193218645877
0.0015                    0.0035                   4.842694224311288
0.0015                    0.0045                   4.889636500163698
0.0015                    0.0055                   4.966048663134581
0.0015                    0.0065                   5.015677242280999
0.0015                    0.0075                   5.027729127395261
0.0015                    0.0085                   5.018920149878619
0.0015                    0.0095                   5.005710442570329
0.0015                    0.0105                   4.996918161375066
0.0015                    0.0115                   4.991873937814606
0.0015                    0.0125                   4.985843649594253
0.0015                    0.0135                   4.973791635564719
0.0015                    0.0145                   4.95002391507761
0.0015                    0.0155                   4.913259377186426
0.0015                    0.0165                   4.866684296144489
0.0015                    0.0175                   4.814466936017915
0.0015                    0.0185                   4.760679309086037
0.0015                    0.0195                   4.707239837887747
0.0015                    0.0205                   4.654582421075963
0.0015                    0.0215                   4.602632902648219
0.0015                    0.0225                   4.551246594686775
0.0015                    0.0235                   4.500308657917996
0.0015                    0.0245                   4.449763576543249
0.0015                    0.0255                   4.399615833461003
0.0015                    0.0265                   4.349920953787301
0.0015                    0.0275                   4.300797389127913
0.0015                    0.0285                   4.252477143020965
0.0015                    0.0295                   4.205593901999821
0.0015                    0.0305                   4.162778700001011
0.0015                    0.0315                   4.133450769314694
0.0025                    -0.0315                  3.7738520773906874
0.0025                    -0.0305                  3.792036113534612
0.0025                    -0.0295                  3.8212196626423496
0.0025                    -0.0285                  3.8548444117320697
0.0025                    -0.0275                  3.8897174398634355
0.0025                    -0.0265                  3.9247228587104996
0.0025                    -0.0255                  3.959528119865009
0.0025                    -0.0245                  3.99403661756385
0.0025                    -0.0235                  4.0282308937079065
0.0025                    -0.0225                  4.0621228350181795
0.0025                    -0.0215                  4.095728820528489
0.0025                    -0.0205                  4.129053611705247
0.0025                    -0.0195                  4.162082677086543
0.0025                    -0.0185                  4.194790333064385
0.0025                    -0.0175                  4.227168129090885
0.0025                    -0.0165                  4.2592856101671615
0.0025                    -0.0155                  4.291394850029251
0.0025                    -0.0145                  4.324069645105658
0.0025                    -0.0135                  4.358358931271438
0.0025                    -0.0125                  4.395936031976054
0.0025                    -0.0115                  4.439227660645282
0.0025                    -0.0105                  4.491418009815165
0.0025                    -0.0095                  4.555583474606285
0.0025                    -0.0085                  4.631914609117835
0.0025                    -0.0075                  4.713979885930991
0.0025                    -0.0065                  4.787069997583356
0.0025                    -0.0055                  4.839633023250356
0.0025                    -0.0045                  4.870295735822759
0.0025                    -0.0035                  4.88152244035786
0.0025                    -0.0025                  4.879473757242449
0.0025                    -0.0015                  4.872684691712169
0.0025                    -5.0E-4                  4.866439003318436
0.0025                    5.0E-4                   4.861912409059095
0.0025                    0.0015                   4.8609990748046314
0.0025                    0.0025                   4.871980802145995
0.0025                    0.0035                   4.91027080320997
0.0025                    0.0045                   4.980900311163259
0.0025                    0.0055                   5.0485713132851915
0.0025                    0.0065                   5.077168534480159
0.0025                    0.0075                   5.067824728814487
0.0025                    0.0085                   5.038138095049833
0.0025                    0.0095                   5.00907738326397
0.0025                    0.0105                   4.9919919182404975
0.0025                    0.0115                   4.984521724479978
0.0025                    0.0125                   4.9783891534330955
0.0025                    0.0135                   4.967272124691851
0.0025                    0.0145                   4.945442841465973
0.0025                    0.0155                   4.909913581383441
0.0025                    0.0165                   4.862620802805962
0.0025                    0.0175                   4.808141985564465
0.0025                    0.0185                   4.751455488291878
0.0025                    0.0195                   4.695254397270704
0.0025                    0.0205                   4.6402459648650165
0.0025                    0.0215                   4.586212566977014
0.0025                    0.0225                   4.532744077899756
0.0025                    0.0235                   4.479516743596545
0.0025                    0.0245                   4.426334205649846
0.0025                    0.0255                   4.373107880298282
0.0025                    0.0265                   4.319844108281028
0.0025                    0.0275                   4.26668274412338
0.0025                    0.0285                   4.214107759933166
0.0025                    0.0295                   4.163747813333552
0.0025                    0.0305                   4.12028226529745
0.0025                    0.0315                   4.09333138902615
0.0035                    -0.0315                  3.7436293019400235
0.0035                    -0.0305                  3.759620179378926
0.0035                    -0.0295                  3.7870272581640583
0.0035                    -0.0285                  3.8205746102110316
0.0035                    -0.0275                  3.8565332848369747
0.0035                    -0.0265                  3.8929082806054085
0.0035                    -0.0255                  3.9288295739607215
0.0035                    -0.0245                  3.963954267721863
0.0035                    -0.0235                  3.9981532110231806
0.0035                    -0.0225                  4.031385059716804
0.0035                    -0.0215                  4.063638038501654
0.0035                    -0.0205                  4.0948931434163605
0.0035                    -0.0195                  4.125101201309625
0.0035                    -0.0185                  4.154181164961033
0.0035                    -0.0175                  4.182050773979988
0.0035                    -0.0165                  4.2087015429965735
0.0035                    -0.0155                  4.234335579975441
0.0035                    -0.0145                  4.259581688712192
0.0035                    -0.0135                  4.28575767699234
0.0035                    -0.0125                  4.3150353340919505
0.0035                    -0.0115                  4.3503701513752295
0.0035                    -0.0105                  4.395078909120765
0.0035                    -0.0095                  4.452409313787609
0.0035                    -0.0085                  4.524606804284927
0.0035                    -0.0075                  4.609215647402011
0.0035                    -0.0065                  4.698555047798077
0.0035                    -0.0055                  4.776757178950968
0.0035                    -0.0045                  4.826014737841741
0.0035                    -0.0035                  4.84280015745831
0.0035                    -0.0025                  4.840759170478947
0.0035                    -0.0015                  4.838790349249211
0.0035                    -5.0E-4                  4.847406379291511
0.0035                    5.0E-4                   4.86791315943826
0.0035                    0.0015                   4.900191441924648
0.0035                    0.0025                   4.9485160322799775
0.0035                    0.0035                   5.017183521191355
0.0035                    0.0045                   5.093579847134691
0.0035                    0.0055                   5.145296473606569
0.0035                    0.0065                   5.15137099492344
0.0035                    0.0075                   5.117392746256766
0.0035                    0.0085                   5.063875379162115
0.0035                    0.0095                   5.015563435676482
0.0035                    0.0105                   4.986891008409133
0.0035                    0.0115                   4.974026783994383
0.0035                    0.0125                   4.964881668217587
0.0035                    0.0135                   4.951438045520398
0.0035                    0.0145                   4.928228895154307
0.0035                    0.0155                   4.892376840635562
0.0035                    0.0165                   4.84527555302068
0.0035                    0.0175                   4.790781312865865
0.0035                    0.0185                   4.733537676760754
0.0035                    0.0195                   4.676189037862189
0.0035                    0.0205                   4.619526550386557
0.0035                    0.0215                   4.563421956598397
0.0035                    0.0225                   4.507479545826015
0.0035                    0.0235                   4.451340248717805
0.0035                    0.0245                   4.394780089189226
0.0035                    0.0255                   4.337731167074854
0.0035                    0.0265                   4.280320595019028
0.0035                    0.0275                   4.223021772309296
0.0035                    0.0285                   4.1670982028229835
0.0035                    0.0295                   4.1154771291007375
0.0035                    0.0305                   4.073655349312951
0.0035                    0.0315                   4.049418039219211
0.0045                    -0.0315                  3.71197593711408
0.0045                    -0.0305                  3.7260783070359174
0.0045                    -0.0295                  3.751206965896324
0.0045                    -0.0285                  3.7833244157808608
0.0045                    -0.0275                  3.819009985089173
0.0045                    -0.0265                  3.8558446534341
0.0045                    -0.0255                  3.892378603993012
0.0045                    -0.0245                  3.9278462918375423
0.0045                    -0.0235                  3.9618661054404174
0.0045                    -0.0225                  3.9942549586668816
0.0045                    -0.0215                  4.0249298291163935
0.0045                    -0.0205                  4.053845542511283
0.0045                    -0.0195                  4.080951183414764
0.0045                    -0.0185                  4.10617187883272
0.0045                    -0.0175                  4.129430660376393
0.0045                    -0.0165                  4.150725036232124
0.0045                    -0.0155                  4.170271715946551
0.0045                    -0.0145                  4.188735745394819
0.0045                    -0.0135                  4.2075425786656435
0.0045                    -0.0125                  4.229112619755938
0.0045                    -0.0115                  4.256617339411158
0.0045                    -0.0105                  4.293303681916869
0.0045                    -0.0095                  4.341487680408912
0.0045                    -0.0085                  4.402785029979522
0.0045                    -0.0075                  4.478026500251365
0.0045                    -0.0065                  4.569228542806607
0.0045                    -0.0055                  4.662675830291063
0.0045                    -0.0045                  4.728070313202447
0.0045                    -0.0035                  4.753770456367114
0.0045                    -0.0025                  4.759530763114101
0.0045                    -0.0015                  4.7741298078343855
0.0045                    -5.0E-4                  4.811295086665767
0.0045                    5.0E-4                   4.8705927002312475
0.0045                    0.0015                   4.946607252364718
0.0045                    0.0025                   5.031998606677893
0.0045                    0.0035                   5.119136310161425
0.0045                    0.0045                   5.19331119298378
0.0045                    0.0055                   5.231219397966765
0.0045                    0.0065                   5.219340782119646
0.0045                    0.0075                   5.164306978387042
0.0045                    0.0085                   5.088855672450863
0.0045                    0.0095                   5.021319316094776
0.0045                    0.0105                   4.979281087024151
0.0045                    0.0115                   4.95852576364739
0.0045                    0.0125                   4.943451131086422
0.0045                    0.0135                   4.92423606277937
0.0045                    0.0145                   4.8961035501218575
0.0045                    0.0155                   4.8582816176817305
0.0045                    0.0165                   4.812669139298013
0.0045                    0.0175                   4.761146027391342
0.0045                    0.0185                   4.706481201339879
0.0045                    0.0195                   4.6503142907768025
0.0045                    0.0205                   4.593337647938177
0.0045                    0.0215                   4.5357116787536285
0.0045                    0.0225                   4.477334731970045
0.0045                    0.0235                   4.418051461338996
0.0045                    0.0245                   4.357800073457243
0.0045                    0.0255                   4.296721335275593
0.0045                    0.0265                   4.235294631067108
0.0045                    0.0275                   4.174602015767487
0.0045                    0.0285                   4.1167679326126265
0.0045                    0.0295                   4.065383419995262
0.0045                    0.0305                   4.025567764770319
0.0045                    0.0315                   4.003375726425184
0.0055                    -0.0315                  3.6793214732752446
0.0055                    -0.0305                  3.691885888686919
0.0055                    -0.0295                  3.7148024494542176
0.0055                    -0.0285                  3.7449212802189122
0.0055                    -0.0275                  3.779336459541579
0.0055                    -0.0265                  3.81566083895268
0.0055                    -0.0255                  3.852116204421033
0.0055                    -0.0245                  3.8875182779880646
0.0055                    -0.0235                  3.921140999986737
0.0055                    -0.0225                  3.952567220788732
0.0055                    -0.0215                  3.98158329837553
0.0055                    -0.0205                  4.008106254261991
0.0055                    -0.0195                  4.032123394276757
0.0055                    -0.0185                  4.053650466472797
0.0055                    -0.0175                  4.072731926745886
0.0055                    -0.0165                  4.089501964016652
0.0055                    -0.0155                  4.1043145402629895
0.0055                    -0.0145                  4.1179329242788665
0.0055                    -0.0135                  4.131760831601838
0.0055                    -0.0125                  4.1481005088299
0.0055                    -0.0115                  4.170152871057558
0.0055                    -0.0105                  4.200817764972505
0.0055                    -0.0095                  4.241961479597818
0.0055                    -0.0085                  4.294092254258606
0.0055                    -0.0075                  4.358081143412263
0.0055                    -0.0065                  4.437102012632105
0.0055                    -0.0055                  4.525704858157614
0.0055                    -0.0045                  4.597982456562249
0.0055                    -0.0035                  4.637066408474331
0.0055                    -0.0025                  4.663966278698904
0.0055                    -0.0015                  4.707591757192138
0.0055                    -5.0E-4                  4.777291196842772
0.0055                    5.0E-4                   4.870485525893802
0.0055                    0.0015                   4.977672395851092
0.0055                    0.0025                   5.083902471999345
0.0055                    0.0035                   5.177466306459472
0.0055                    0.0045                   5.247721684589958
0.0055                    0.0055                   5.27837772889966
0.0055                    0.0065                   5.257098287212471
0.0055                    0.0075                   5.188125623293918
0.0055                    0.0085                   5.096164050997411
0.0055                    0.0095                   5.014220851325831
0.0055                    0.0105                   4.961520278572486
0.0055                    0.0115                   4.932722521011831
0.0055                    0.0125                   4.910014820808138
0.0055                    0.0135                   4.882538205370015
0.0055                    0.0145                   4.848033483094598
0.0055                    0.0155                   4.808839261781257
0.0055                    0.0165                   4.766758488449452
0.0055                    0.0175                   4.721037545005817
0.0055                    0.0185                   4.671555991051358
0.0055                    0.0195                   4.618570431435696
0.0055                    0.0205                   4.562653804849693
0.0055                    0.0215                   4.504315864536974
0.0055                    0.0225                   4.4438805488466375
0.0055                    0.0235                   4.381574379564305
0.0055                    0.0245                   4.317695831422961
0.0055                    0.0255                   4.252794733475992
0.0055                    0.0265                   4.187879034720978
0.0055                    0.0275                   4.124670536213293
0.0055                    0.0285                   4.065830215617721
0.0055                    0.0295                   4.0149983985986
0.0055                    0.0305                   3.976674192255727
0.0055                    0.0315                   3.9557858505768864
0.0065                    -0.0315                  3.645895401112341
0.0065                    -0.0305                  3.6571855171900935
0.0065                    -0.0295                  3.678092123771627
0.0065                    -0.0285                  3.706079744047785
0.0065                    -0.0275                  3.7387073082429767
0.0065                    -0.0265                  3.7738099649711163
0.0065                    -0.0255                  3.8095457785345843
0.0065                    -0.0245                  3.8444613818761764
0.0065                    -0.0235                  3.8774995366159253
0.0065                    -0.0225                  3.9079538242075307
0.0065                    -0.0215                  3.9354154445959417
0.0065                    -0.0205                  3.959729719331789
0.0065                    -0.0195                  3.980948364956944
0.0065                    -0.0185                  3.9992703295453973
0.0065                    -0.0175                  4.015002789303223
0.0065                    -0.0165                  4.028580282248098
0.0065                    -0.0155                  4.040644389194578
0.0065                    -0.0145                  4.052158181236389
0.0065                    -0.0135                  4.064507145915956
0.0065                    -0.0125                  4.0796036189398235
0.0065                    -0.0115                  4.099843669027025
0.0065                    -0.0105                  4.127370359375877
0.0065                    -0.0095                  4.16469936678792
0.0065                    -0.0085                  4.212391191728721
0.0065                    -0.0075                  4.268936922450097
0.0065                    -0.0065                  4.334595296005814
0.0065                    -0.0055                  4.410334728483413
0.0065                    -0.0045                  4.480531086927598
0.0065                    -0.0035                  4.53205146241334
0.0065                    -0.0025                  4.583423424698263
0.0065                    -0.0015                  4.655783887293682
0.0065                    -5.0E-4                  4.753263654737791
0.0065                    5.0E-4                   4.8700085291540685
0.0065                    0.0015                   4.991528895097015
0.0065                    0.0025                   5.100430218361087
0.0065                    0.0035                   5.188207114780187
0.0065                    0.0045                   5.249961909012526
0.0065                    0.0055                   5.273451691714441
0.0065                    0.0065                   5.245164412652648
0.0065                    0.0075                   5.165758911407259
0.0065                    0.0085                   5.062312902070446
0.0065                    0.0095                   4.974489513524251
0.0065                    0.0105                   4.920165202308426
0.0065                    0.0115                   4.8885478065957395
0.0065                    0.0125                   4.860307060704575