% Model:              Benchmark260518.mph
% Version:            COMSOL 6.2.0.339
% Date:               May 19 2026, 20:43
% Dimension:          2
% Nodes:              4096
% Expressions:        1
% Description:        压力
% Length unit:        m
% x                       y                        p (Pa)
5.0E-4                    -0.0315                  4.349981213426739
5.0E-4                    -0.0305                  4.379429538274743
5.0E-4                    -0.0295                  4.4194758779366765
5.0E-4                    -0.0285                  4.4628969405701575
5.0E-4                    -0.0275                  4.508103767615505
5.0E-4                    -0.0265                  4.554505709127149
5.0E-4                    -0.0255                  4.6017446502395565
5.0E-4                    -0.0245                  4.649686345779527
5.0E-4                    -0.0235                  4.698346631742221
5.0E-4                    -0.0225                  4.747876558227591
5.0E-4                    -0.0215                  4.798543049163498
5.0E-4                    -0.0205                  4.850669137338941
5.0E-4                    -0.0195                  4.903536643618403
5.0E-4                    -0.0185                  4.9538843160711865
5.0E-4                    -0.0175                  4.997348408633184
5.0E-4                    -0.0165                  5.028652197885533
5.0E-4                    -0.0155                  5.045897328481102
5.0E-4                    -0.0145                  5.0527273656518785
5.0E-4                    -0.0135                  5.0526091580250165
5.0E-4                    -0.0125                  5.0478098337199695
5.0E-4                    -0.0115                  5.040542474791745
5.0E-4                    -0.0105                  5.0345467160618185
5.0E-4                    -0.0095                  5.033915181119285
5.0E-4                    -0.0085                  5.036435388962928
5.0E-4                    -0.0075                  5.029252168644003
5.0E-4                    -0.0065                  4.997443814522953
5.0E-4                    -0.0055                  4.93905791819778
5.0E-4                    -0.0045                  4.869347751866388
5.0E-4                    -0.0035                  4.810803848434929
5.0E-4                    -0.0025                  4.776369981006458
5.0E-4                    -0.0015                  4.808718209424203
5.0E-4                    -5.0E-4                  4.926162075391131
5.0E-4                    5.0E-4                   4.877469897706862
5.0E-4                    0.0015                   4.6544589236824585
5.0E-4                    0.0025                   4.569929622175302
5.0E-4                    0.0035                   4.618688640952522
5.0E-4                    0.0045                   4.688929435173845
5.0E-4                    0.0055                   4.756998484649222
5.0E-4                    0.0065                   4.805195131988211
5.0E-4                    0.0075                   4.827915156720126
5.0E-4                    0.0085                   4.835934729912527
5.0E-4                    0.0095                   4.841287714680227
5.0E-4                    0.0105                   4.847176482175949
5.0E-4                    0.0115                   4.8517100080981335
5.0E-4                    0.0125                   4.851619213667171
5.0E-4                    0.0135                   4.841635505246214
5.0E-4                    0.0145                   4.813614584455334
5.0E-4                    0.0155                   4.758726773306907
5.0E-4                    0.0165                   4.6788604261110756
5.0E-4                    0.0175                   4.583604880047811
5.0E-4                    0.0185                   4.481838526722877
5.0E-4                    0.0195                   4.380337046238285
5.0E-4                    0.0205                   4.281127736281285
5.0E-4                    0.0215                   4.184668607953864
5.0E-4                    0.0225                   4.091342767347628
5.0E-4                    0.0235                   4.001191302574501
5.0E-4                    0.0245                   3.9140759519327566
5.0E-4                    0.0255                   3.829760428844215
5.0E-4                    0.0265                   3.748056329066385
5.0E-4                    0.0275                   3.6689267290313787
5.0E-4                    0.0285                   3.5926744039045397
5.0E-4                    0.0295                   3.5200085980411746
5.0E-4                    0.0305                   3.4532855895088623
5.0E-4                    0.0315                   3.40429896855257
0.0015                    -0.0315                  4.320417732977946
0.0015                    -0.0305                  4.350244343180849
0.0015                    -0.0295                  4.3936993304974745
0.0015                    -0.0285                  4.441145916764861
0.0015                    -0.0275                  4.489790519039573
0.0015                    -0.0265                  4.538865238264963
0.0015                    -0.0255                  4.588050266290026
0.0015                    -0.0245                  4.637216233314743
0.0015                    -0.0235                  4.686447390618673
0.0015                    -0.0225                  4.736114987637398
0.0015                    -0.0215                  4.786925770877093
0.0015                    -0.0205                  4.839582808573655
0.0015                    -0.0195                  4.893668590828227
0.0015                    -0.0185                  4.94612684668662
0.0015                    -0.0175                  4.99237355415404
0.0015                    -0.0165                  5.025987309846823
0.0015                    -0.0155                  5.04551198060971
0.0015                    -0.0145                  5.054795582675606
0.0015                    -0.0135                  5.05493583762543
0.0015                    -0.0125                  5.046602632278038
0.0015                    -0.0115                  5.03211746778612
0.0015                    -0.0105                  5.017001225565318
0.0015                    -0.0095                  5.007860002695738
0.0015                    -0.0085                  5.005042952780315
0.0015                    -0.0075                  4.9981723105598626
0.0015                    -0.0065                  4.972357670072809
0.0015                    -0.0055                  4.9215552984261555
0.0015                    -0.0045                  4.85796129548131
0.0015                    -0.0035                  4.806120209661265
0.0015                    -0.0025                  4.800580202074087
0.0015                    -0.0015                  4.967371983019097
0.0015                    -5.0E-4                  5.250072745685039
0.0015                    5.0E-4                   5.252605353937424
0.0015                    0.0015                   4.906863801928345
0.0015                    0.0025                   4.653467689856379
0.0015                    0.0035                   4.636105625886327
0.0015                    0.0045                   4.684038840307592
0.0015                    0.0055                   4.737825312773092
0.0015                    0.0065                   4.775381043154738
0.0015                    0.0075                   4.79685358247287
0.0015                    0.0085                   4.812138569117341
0.0015                    0.0095                   4.828770250270888
0.0015                    0.0105                   4.8447566460357026
0.0015                    0.0115                   4.854924123683637
0.0015                    0.0125                   4.85571211582226
0.0015                    0.0135                   4.844707492437111
0.0015                    0.0145                   4.817185542650067
0.0015                    0.0155                   4.76211137704745
0.0015                    0.0165                   4.67768129991854
0.0015                    0.0175                   4.574277951150281
0.0015                    0.0185                   4.463005329907789
0.0015                    0.0195                   4.353030576737883
0.0015                    0.0205                   4.248150755969392
0.0015                    0.0215                   4.1490399784108085
0.0015                    0.0225                   4.055198112196813
0.0015                    0.0235                   3.9657172290989253
0.0015                    0.0245                   3.8795247801784973
0.0015                    0.0255                   3.79565589065586
0.0015                    0.0265                   3.713412681101519
0.0015                    0.0275                   3.6324262137108962
0.0015                    0.0285                   3.5527084879531223
0.0015                    0.0295                   3.475091834084762
0.0015                    0.0305                   3.4038553980770523
0.0015                    0.0315                   3.3548420223659807
0.0025                    -0.0315                  4.2797710091271135
0.0025                    -0.0305                  4.307423688216893
0.0025                    -0.0295                  4.351901623320941
0.0025                    -0.0285                  4.403282743796527
0.0025                    -0.0275                  4.456595909587608
0.0025                    -0.0265                  4.509918938198002
0.0025                    -0.0255                  4.562496903345441
0.0025                    -0.0245                  4.614000268693681
0.0025                    -0.0235                  4.664427372756412
0.0025                    -0.0225                  4.714215404746431
0.0025                    -0.0215                  4.764272441567791
0.0025                    -0.0205                  4.815650416437268
0.0025                    -0.0195                  4.868498124715185
0.0025                    -0.0185                  4.920653331217231
0.0025                    -0.0175                  4.9688921718179415
0.0025                    -0.0165                  5.007585887886782
0.0025                    -0.0155                  5.034671977474913
0.0025                    -0.0145                  5.048976072259143
0.0025                    -0.0135                  5.044041939871793
0.0025                    -0.0125                  5.020036411825992
0.0025                    -0.0115                  4.986091147045257
0.0025                    -0.0105                  4.953692108515935
0.0025                    -0.0095                  4.931478617861957
0.0025                    -0.0085                  4.922211164915047
0.0025                    -0.0075                  4.9215698498692815
0.0025                    -0.0065                  4.919852700116738
0.0025                    -0.0055                  4.909332957991735
0.0025                    -0.0045                  4.89558052971519
0.0025                    -0.0035                  4.914597104416359
0.0025                    -0.0025                  5.043584816689646
0.0025                    -0.0015                  5.396696209610256
0.0025                    -5.0E-4                  5.801043148442934
0.0025                    5.0E-4                   5.866070739883815
0.0025                    0.0015                   5.506069997480167
0.0025                    0.0025                   5.067686525540262
0.0025                    0.0035                   4.8285032374479915
0.0025                    0.0045                   4.732887135320661
0.0025                    0.0055                   4.69755934598591
0.0025                    0.0065                   4.6873192667769175
0.0025                    0.0075                   4.696660026478607
0.0025                    0.0085                   4.724398901537489
0.0025                    0.0095                   4.765968841265871
0.0025                    0.0105                   4.810836031545637
0.0025                    0.0115                   4.843860956812228
0.0025                    0.0125                   4.852946661851391
0.0025                    0.0135                   4.837947557852384
0.0025                    0.0145                   4.8043190178712765
0.0025                    0.0155                   4.745082537150299
0.0025                    0.0165                   4.654542037972486
0.0025                    0.0175                   4.541078909716106
0.0025                    0.0185                   4.417670608540689
0.0025                    0.0195                   4.296743744896005
0.0025                    0.0205                   4.1845486014812225
0.0025                    0.0215                   4.082320990174715
0.0025                    0.0225                   3.9886131731920855
0.0025                    0.0235                   3.9008953931707335
0.0025                    0.0245                   3.816608730256367
0.0025                    0.0255                   3.7337208421688555
0.0025                    0.0265                   3.6508862644033346
0.0025                    0.0275                   3.567479659921588
0.0025                    0.0285                   3.483844002389141
0.0025                    0.0295                   3.4025265943778837
0.0025                    0.0305                   3.331445049146498
0.0025                    0.0315                   3.287041699689233
0.0035                    -0.0315                  4.235158877614449
0.0035                    -0.0305                  4.2602250829571995
0.0035                    -0.0295                  4.303350092179862
0.0035                    -0.0285                  4.356427159906582
0.0035                    -0.0275                  4.413574211834479
0.0035                    -0.0265                  4.471394827236811
0.0035                    -0.0255                  4.52812604514829
0.0035                    -0.0245                  4.582839497275399
0.0035                    -0.0235                  4.635103094886876
0.0035                    -0.0225                  4.684959740880858
0.0035                    -0.0215                  4.7329776098164755
0.0035                    -0.0205                  4.780122547370252
0.0035                    -0.0195                  4.82729444352554
0.0035                    -0.0185                  4.8745147689487425
0.0035                    -0.0175                  4.9215114216660965
0.0035                    -0.0165                  4.965406334670769
0.0035                    -0.0155                  5.000457745022941
0.0035                    -0.0145                  5.015006318365064
0.0035                    -0.0135                  4.997429844763078
0.0035                    -0.0125                  4.952960749946711
0.0035                    -0.0115                  4.8991861668473184
0.0035                    -0.0105                  4.853160961177127
0.0035                    -0.0095                  4.825255309340106
0.0035                    -0.0085                  4.81764492188738
0.0035                    -0.0075                  4.828773191556531
0.0035                    -0.0065                  4.858378990538599
0.0035                    -0.0055                  4.913503691689044
0.0035                    -0.0045                  5.010799967722362
0.0035                    -0.0035                  5.188961227703238
0.0035                    -0.0025                  5.507812776328258
0.0035                    -0.0015                  5.967633497531596
0.0035                    -5.0E-4                  6.367694610369501
0.0035                    5.0E-4                   6.4561547147631195
0.0035                    0.0015                   6.1687542527788235
0.0035                    0.0025                   5.6642683050374965
0.0035                    0.0035                   5.173630485763566
0.0035                    0.0045                   4.827698061304872
0.0035                    0.0055                   4.642679642921374
0.0035                    0.0065                   4.565196921382245
0.0035                    0.0075                   4.552607352354368
0.0035                    0.0085                   4.584721581169879
0.0035                    0.0095                   4.648707547637701
0.0035                    0.0105                   4.726304661182842
0.0035                    0.0115                   4.791155635657306
0.0035                    0.0125                   4.819285285729897
0.0035                    0.0135                   4.806118184286327
0.0035                    0.0145                   4.7648521524532566
0.0035                    0.0155                   4.697549731805427
0.0035                    0.0165                   4.5995391807830215
0.0035                    0.0175                   4.477052508075516
0.0035                    0.0185                   4.343594827137579
0.0035                    0.0195                   4.214169199973632
0.0035                    0.0205                   4.097029123038728
0.0035                    0.0215                   3.9938030266859688
0.0035                    0.0225                   3.901901313815675
0.0035                    0.0235                   3.817122800866272
0.0035                    0.0245                   3.735506227113765
0.0035                    0.0255                   3.654062123569792
0.0035                    0.0265                   3.571007518303383
0.0035                    0.0275                   3.485940337933182
0.0035                    0.0285                   3.400433906773165
0.0035                    0.0295                   3.31936514696205
0.0035                    0.0305                   3.2523321394371645
0.0035                    0.0315                   3.213041851450315
0.0045                    -0.0315                  4.188272706389721
0.0045                    -0.0305                  4.211231878045153
0.0045                    -0.0295                  4.252393544405367
0.0045                    -0.0285                  4.305478086108534
0.0045                    -0.0275                  4.3649708936937
0.0045                    -0.0265                  4.426663718240701
0.0045                    -0.0255                  4.487678023346893
0.0045                    -0.0245                  4.546146105194975
0.0045                    -0.0235                  4.600840818216337
0.0045                    -0.0225                  4.650987696048572
0.0045                    -0.0215                  4.696341014242107
0.0045                    -0.0205                  4.7374618053664985
0.0045                    -0.0195                  4.775909248336279
0.0045                    -0.0185                  4.814404347561869
0.0045                    -0.0175                  4.8555455673210135
0.0045                    -0.0165                  4.899009135835895
0.0045                    -0.0155                  4.935403208973606
0.0045                    -0.0145                  4.944938882584486
0.0045                    -0.0135                  4.916610645521393
0.0045                    -0.0125                  4.862159614264866
0.0045                    -0.0115                  4.805564471631508
0.0045                    -0.0105                  4.766127090867082
0.0045                    -0.0095                  4.7494813937813
0.0045                    -0.0085                  4.7523942300691875
0.0045                    -0.0075                  4.774196776708147
0.0045                    -0.0065                  4.8242739537684525
0.0045                    -0.0055                  4.928522773116207
0.0045                    -0.0045                  5.127286676012181
0.0045                    -0.0035                  5.452748460600393
0.0045                    -0.0025                  5.898920495004817
0.0045                    -0.0015                  6.371775002102261
0.0045                    -5.0E-4                  6.702608034704466
0.0045                    5.0E-4                   6.775778224332532
0.0045                    0.0015                   6.560496066056674
0.0045                    0.0025                   6.070109724066365
0.0045                    0.0035                   5.43623709705059
0.0045                    0.0045                   4.9059661389233735
0.0045                    0.0055                   4.608480127405105
0.0045                    0.0065                   4.485719026486353
0.0045                    0.0075                   4.452946373788063
0.0045                    0.0085                   4.470061327042604
0.0045                    0.0095                   4.52838993464281
0.0045                    0.0105                   4.615570973806605
0.0045                    0.0115                   4.69965091342743
0.0045                    0.0125                   4.745073103593986
0.0045                    0.0135                   4.7391184532059105
0.0045                    0.0145                   4.695370827688047
0.0045                    0.0155                   4.622457654499463
0.0045                    0.0165                   4.517887157819498
0.0045                    0.0175                   4.387508732241132
0.0045                    0.0185                   4.2470291022966205
0.0045                    0.0195                   4.113231464672036
0.0045                    0.0205                   3.9952753632925764
0.0045                    0.0215                   3.8940221183347683
0.0045                    0.0225                   3.8054843566191523
0.0045                    0.0235                   3.724385866739307
0.0045                    0.0245                   3.64581419105852
0.0045                    0.0255                   3.5661400434846042
0.0045                    0.0265                   3.483474661798782
0.0045                    0.0275                   3.3980597923178815
0.0045                    0.0285                   3.312879117779258
0.0045                    0.0295                   3.234149685515849
0.0045                    0.0305                   3.1712576437683406
0.0045                    0.0315                   3.135549604676529
0.0055                    -0.0315                  4.139656203993684
0.0055                    -0.0305                  4.161067138667902
0.0055                    -0.0295                  4.200418453050385
0.0055                    -0.0285                  4.252821143481071
0.0055                    -0.0275                  4.313519857288565
0.0055                    -0.0265                  4.37820235237046
0.0055                    -0.0255                  4.443210244390123
0.0055                    -0.0245                  4.505658820803969
0.0055                    -0.0235                  4.5633235142920805
0.0055                    -0.0225                  4.614431260844654
0.0055                    -0.0215                  4.657783788671845
0.0055                    -0.0205                  4.693442546109185
0.0055                    -0.0195                  4.723745050040526
0.0055                    -0.0185                  4.753174454742908
0.0055                    -0.0175                  4.785930430597949
0.0055                    -0.0165                  4.822062736973032
0.0055                    -0.0155                  4.851946044081904
0.0055                    -0.0145                  4.856941587301451
0.0055                    -0.0135                  4.8278264540925715
0.0055                    -0.0125                  4.780430673112268
0.0055                    -0.0115                  4.741138247855846
0.0055                    -0.0105                  4.722757051757165
0.0055                    -0.0095                  4.722029930801982
0.0055                    -0.0085                  4.7342000645337095
0.0055                    -0.0075                  4.763252517721799
0.0055                    -0.0065                  4.825944441437677
0.0055                    -0.0055                  4.958520242507043
0.0055                    -0.0045                  5.207474749306652
0.0055                    -0.0035                  5.589930751363701
0.0055                    -0.0025                  6.059769274494429
0.0055                    -0.0015                  6.490007387303155
0.0055                    -5.0E-4                  6.748807088391301
0.0055                    5.0E-4                   6.793149920959969
0.0055                    0.0015                   6.620331471832257
0.0055                    0.0025                   6.191711969009231
0.0055                    0.0035                   5.55932410225672
0.0055                    0.0045                   4.966289221988189
0.0055                    0.0055                   4.6067867438177
0.0055                    0.0065                   4.460497936748125
0.0055                    0.0075                   4.418922455887988
0.0055                    0.0085                   4.417893436262145
0.0055                    0.0095                   4.451026213877842
0.0055                    0.0105                   4.521427530555767
0.0055                    0.0115                   4.603906304613707
0.0055                    0.0125                   4.653953931420725
0.0055                    0.0135                   4.650749413285383
0.0055                    0.0145                   4.607561136129682
0.0055                    0.0155                   4.533983707446097
0.0055                    0.0165                   4.425179591863134
0.0055                    0.0175                   4.287266491125333
0.0055                    0.0185                   4.1414028341331655
0.0055                    0.0195                   4.007076515228393
0.0055                    0.0205                   3.8915232179487327
0.0055                    0.0215                   3.793421951625211
0.0055                    0.0225                   3.708516851031424
0.0055                    0.0235                   3.631007221365862
0.0055                    0.0245                   3.555376609770167
0.0055                    0.0255                   3.4776044649276296
0.0055                    0.0265                   3.3958003998353856
0.0055                    0.0275                   3.31089283096862
0.0055                    0.0285                   3.226736820544345
0.0055                    0.0295                   3.1499010669824217
0.0055                    0.0305                   3.0893137393343384
0.0055                    0.0315                   3.0552801206700435
0.0065                    -0.0315                  4.089590975312149
0.0065                    -0.0305                  4.109965356996527
0.0065                    -0.0295                  4.147902636537005
0.0065                    -0.0285                  4.199447573081141
0.0065                    -0.0275                  4.2606413678957775
0.0065                    -0.0265                  4.32749995187038
0.0065                    -0.0255                  4.396043247330264
0.0065                    -0.0245                  4.462543224794548
0.0065                    -0.0235                  4.52373281833949
0.0065                    -0.0225                  4.576890563240378
0.0065                    -0.0215                  4.619975867612432
0.0065                    -0.0205                  4.652934694261805
0.0065                    -0.0195                  4.678643550914549
0.0065                    -0.0185                  4.701759129323382
0.0065                    -0.0175                  4.726657996630403
0.0065                    -0.0165                  4.753168384292056
0.0065                    -0.0155                  4.774639093975986
0.0065                    -0.0145                  4.7779589514933125
0.0065                    -0.0135                  4.757118479025736
0.0065                    -0.0125                  4.728303497498234
0.0065                    -0.0115                  4.711029332758217
0.0065                    -0.0105                  4.708212966540449
0.0065                    -0.0095                  4.7148702051899605
0.0065                    -0.0085                  4.731065362913879
0.0065                    -0.0075                  4.766055622646916
0.0065                    -0.0065                  4.841289139874103
0.0065                    -0.0055                  4.9961036595212605
0.0065                    -0.0045                  5.268128011455081
0.0065                    -0.0035                  5.6512360249067894
0.0065                    -0.0025                  6.077716263870977
0.0065                    -0.0015                  6.433493314655679
0.0065                    -5.0E-4                  6.630185215018684
0.0065                    5.0E-4                   6.650225065012563
0.0065                    0.0015                   6.490594468277857
0.0065                    0.0025                   6.113302667058182
0.0065                    0.0035                   5.545168511461652
0.0065                    0.0045                   4.975668234855602
0.0065                    0.0055                   4.602218496439159
0.0065                    0.0065                   4.447888747971657
0.0065                    0.0075                   4.407881580037601
0.0065                    0.0085                   4.401273066472346
0.0065                    0.0095                   4.416747444632569
0.0065                    0.0105                   4.465955438779793
0.0065                    0.0115                   4.537406060258464
0.0065                    0.0125                   4.584588357486972