% Model:              Benchmark260518.mph
% Version:            COMSOL 6.2.0.339
% Date:               May 19 2026, 00:03
% Dimension:          2
% Nodes:              4096
% Expressions:        1
% Description:        压力
% Length unit:        m
% x                       y                        p (Pa)
5.0E-4                    -0.0315                  4.011739276582845
5.0E-4                    -0.0305                  4.037850570819724
5.0E-4                    -0.0295                  4.07339891658603
5.0E-4                    -0.0285                  4.1118921904810675
5.0E-4                    -0.0275                  4.151931961050202
5.0E-4                    -0.0265                  4.193011518096142
5.0E-4                    -0.0255                  4.234806936687599
5.0E-4                    -0.0245                  4.277133875729966
5.0E-4                    -0.0235                  4.319838577826775
5.0E-4                    -0.0225                  4.362769193367252
5.0E-4                    -0.0215                  4.405768745726003
5.0E-4                    -0.0205                  4.448685643820072
5.0E-4                    -0.0195                  4.491425192645679
5.0E-4                    -0.0185                  4.533180361972236
5.0E-4                    -0.0175                  4.571376359970362
5.0E-4                    -0.0165                  4.602898389387486
5.0E-4                    -0.0155                  4.624408735896829
5.0E-4                    -0.0145                  4.635550759432144
5.0E-4                    -0.0135                  4.639961188725679
5.0E-4                    -0.0125                  4.640458977053125
5.0E-4                    -0.0115                  4.638384704717297
5.0E-4                    -0.0105                  4.634553419991397
5.0E-4                    -0.0095                  4.62969204240502
5.0E-4                    -0.0085                  4.62478304861566
5.0E-4                    -0.0075                  4.6209125700962055
5.0E-4                    -0.0065                  4.618943012828518
5.0E-4                    -0.0055                  4.619178663688585
5.0E-4                    -0.0045                  4.621313891660428
5.0E-4                    -0.0035                  4.62475298364568
5.0E-4                    -0.0025                  4.628905833088342
5.0E-4                    -0.0015                  4.633370163516034
5.0E-4                    -5.0E-4                  4.638013857966112
5.0E-4                    5.0E-4                   4.64299749148341
5.0E-4                    0.0015                   4.648779973391715
5.0E-4                    0.0025                   4.65610799541461
5.0E-4                    0.0035                   4.665902726031748
5.0E-4                    0.0045                   4.678943979989112
5.0E-4                    0.0055                   4.695288990292681
5.0E-4                    0.0065                   4.713551982662439
5.0E-4                    0.0075                   4.730475365583118
5.0E-4                    0.0085                   4.741609912486693
5.0E-4                    0.0095                   4.7432748328963665
5.0E-4                    0.0105                   4.734830317219371
5.0E-4                    0.0115                   4.719833612332883
5.0E-4                    0.0125                   4.70417969387987
5.0E-4                    0.0135                   4.691088338655585
5.0E-4                    0.0145                   4.676818453315472
5.0E-4                    0.0155                   4.6533724913386285
5.0E-4                    0.0165                   4.619374611878091
5.0E-4                    0.0175                   4.5847155888321485
5.0E-4                    0.0185                   4.560901223218261
5.0E-4                    0.0195                   4.54931609915734
5.0E-4                    0.0205                   4.544915152014223
5.0E-4                    0.0215                   4.552174192002772
5.0E-4                    0.0225                   4.611223660541063
5.0E-4                    0.0235                   4.752308105298139
5.0E-4                    0.0245                   4.882228903203491
5.0E-4                    0.0255                   4.92545066008904
5.0E-4                    0.0265                   4.932915175043761
5.0E-4                    0.0275                   4.939007512188941
5.0E-4                    0.0285                   4.94223444842476
5.0E-4                    0.0295                   4.9440876046961915
5.0E-4                    0.0305                   4.945497302676511
5.0E-4                    0.0315                   4.946478107320115
0.0015                    -0.0315                  3.9857292934952007
0.0015                    -0.0305                  4.0125690563055425
0.0015                    -0.0295                  4.0517280147800525
0.0015                    -0.0285                  4.094377662311505
0.0015                    -0.0275                  4.13792742599564
0.0015                    -0.0265                  4.181747335369623
0.0015                    -0.0255                  4.225700990541327
0.0015                    -0.0245                  4.269816648608661
0.0015                    -0.0235                  4.3141666356190225
0.0015                    -0.0225                  4.358786817044779
0.0015                    -0.0215                  4.403641343719166
0.0015                    -0.0205                  4.448585524421149
0.0015                    -0.0195                  4.493105760996656
0.0015                    -0.0185                  4.53576888081742
0.0015                    -0.0175                  4.573779825553917
0.0015                    -0.0165                  4.604274928216943
0.0015                    -0.0155                  4.624629148201207
0.0015                    -0.0145                  4.635527431244485
0.0015                    -0.0135                  4.6405609019468175
0.0015                    -0.0125                  4.641505854472841
0.0015                    -0.0115                  4.639250637311655
0.0015                    -0.0105                  4.634601231238173
0.0015                    -0.0095                  4.6284814379120744
0.0015                    -0.0085                  4.622358943048873
0.0015                    -0.0075                  4.617751651929954
0.0015                    -0.0065                  4.615638918312731
0.0015                    -0.0055                  4.6162735017299035
0.0015                    -0.0045                  4.619220958351127
0.0015                    -0.0035                  4.623679363072613
0.0015                    -0.0025                  4.628804730531005
0.0015                    -0.0015                  4.633981997955428
0.0015                    -5.0E-4                  4.6389399783377625
0.0015                    5.0E-4                   4.643715119070858
0.0015                    0.0015                   4.648681858738007
0.0015                    0.0025                   4.654546174652362
0.0015                    0.0035                   4.662248817659425
0.0015                    0.0045                   4.672692812645302
0.0015                    0.0055                   4.686311145164083
0.0015                    0.0065                   4.702415831144819
0.0015                    0.0075                   4.718437861300476
0.0015                    0.0085                   4.730272104075594
0.0015                    0.0095                   4.733939806889161
0.0015                    0.0105                   4.727876646102892
0.0015                    0.0115                   4.714764852844852
0.0015                    0.0125                   4.70025792836896
0.0015                    0.0135                   4.687497497562673
0.0015                    0.0145                   4.673049945045659
0.0015                    0.0155                   4.649975630301657
0.0015                    0.0165                   4.616798420036366
0.0015                    0.0175                   4.583035620380901
0.0015                    0.0185                   4.560626927636944
0.0015                    0.0195                   4.550122119317613
0.0015                    0.0205                   4.545020917187111
0.0015                    0.0215                   4.537685663526657
0.0015                    0.0225                   4.605194310233667
0.0015                    0.0235                   4.770578766181348
0.0015                    0.0245                   4.8997645946408275
0.0015                    0.0255                   4.936428305821589
0.0015                    0.0265                   4.93846222919476
0.0015                    0.0275                   4.942056059173756
0.0015                    0.0285                   4.944351043842984
0.0015                    0.0295                   4.945812379753908
0.0015                    0.0305                   4.946917702160194
0.0015                    0.0315                   4.947688218676291
0.0025                    -0.0315                  3.949954643255247
0.0025                    -0.0305                  3.9756556400106717
0.0025                    -0.0295                  4.016964159897811
0.0025                    -0.0285                  4.064366639907135
0.0025                    -0.0275                  4.113066706435518
0.0025                    -0.0265                  4.161370695077106
0.0025                    -0.0255                  4.208958349870387
0.0025                    -0.0245                  4.256050759776892
0.0025                    -0.0235                  4.303033497936798
0.0025                    -0.0225                  4.350227548060898
0.0025                    -0.0215                  4.39771148350958
0.0025                    -0.0205                  4.4450963558704695
0.0025                    -0.0195                  4.491145484940231
0.0025                    -0.0185                  4.5335557677670515
0.0025                    -0.0175                  4.569817787730488
0.0025                    -0.0165                  4.597969455901634
0.0025                    -0.0155                  4.617715629638498
0.0025                    -0.0145                  4.630898553655842
0.0025                    -0.0135                  4.638387757516228
0.0025                    -0.0125                  4.639495498035208
0.0025                    -0.0115                  4.6346055695018755
0.0025                    -0.0105                  4.625801420470898
0.0025                    -0.0095                  4.6160948725557045
0.0025                    -0.0085                  4.608195911481739
0.0025                    -0.0075                  4.603693852553138
0.0025                    -0.0065                  4.603228492762547
0.0025                    -0.0055                  4.606590592231974
0.0025                    -0.0045                  4.612741477133895
0.0025                    -0.0035                  4.620333343390632
0.0025                    -0.0025                  4.628091952524954
0.0025                    -0.0015                  4.6350195125347025
0.0025                    -5.0E-4                  4.640554972388126
0.0025                    5.0E-4                   4.644590590692429
0.0025                    0.0015                   4.647498448475586
0.0025                    0.0025                   4.650094167613649
0.0025                    0.0035                   4.65351511427947
0.0025                    0.0045                   4.658952543429947
0.0025                    0.0055                   4.667318682641559
0.0025                    0.0065                   4.678775847674777
0.0025                    0.0075                   4.6920332244045415
0.0025                    0.0085                   4.704098997402797
0.0025                    0.0095                   4.711181380864883
0.0025                    0.0105                   4.710800472199819
0.0025                    0.0115                   4.703587730546984
0.0025                    0.0125                   4.692998005654123
0.0025                    0.0135                   4.6813944470885485
0.0025                    0.0145                   4.66632411747441
0.0025                    0.0155                   4.643150807210062
0.0025                    0.0165                   4.612440315539721
0.0025                    0.0175                   4.5829559364381875
0.0025                    0.0185                   4.563559984993462
0.0025                    0.0195                   4.5537992709063335
0.0025                    0.0205                   4.549291784886302
0.0025                    0.0215                   4.560116202486341
0.0025                    0.0225                   4.658235330683533
0.0025                    0.0235                   4.82161412194761
0.0025                    0.0245                   4.925163805633554
0.0025                    0.0255                   4.949344652118385
0.0025                    0.0265                   4.94769395513416
0.0025                    0.0275                   4.9483099932745445
0.0025                    0.0285                   4.948691340567834
0.0025                    0.0295                   4.948995104014074
0.0025                    0.0305                   4.949258558340855
0.0025                    0.0315                   4.949427197738119
0.0035                    -0.0315                  3.9106080775038454
0.0035                    -0.0305                  3.9351703667449858
0.0035                    -0.0295                  3.9771512449959414
0.0035                    -0.0285                  4.0280449821927355
0.0035                    -0.0275                  4.08178464097783
0.0035                    -0.0265                  4.135162779005222
0.0035                    -0.0255                  4.187058261381129
0.0035                    -0.0245                  4.237559908904868
0.0035                    -0.0235                  4.287288560096991
0.0035                    -0.0225                  4.336867515444629
0.0035                    -0.0215                  4.38646050935339
0.0035                    -0.0205                  4.435324587436173
0.0035                    -0.0195                  4.481538456242358
0.0035                    -0.0185                  4.522280287656544
0.0035                    -0.0175                  4.555855219521935
0.0035                    -0.0165                  4.581881793223839
0.0035                    -0.0155                  4.602138572035971
0.0035                    -0.0145                  4.618211733298857
0.0035                    -0.0135                  4.627196955540775
0.0035                    -0.0125                  4.625723725913514
0.0035                    -0.0115                  4.615283966329553
0.0035                    -0.0105                  4.601208505050142
0.0035                    -0.0095                  4.588515808748387
0.0035                    -0.0085                  4.580654860053764
0.0035                    -0.0075                  4.579146780924364
0.0035                    -0.0065                  4.5836033886016345
0.0035                    -0.0055                  4.592545268238039
0.0035                    -0.0045                  4.6040627504188185
0.0035                    -0.0035                  4.616317458958623
0.0035                    -0.0025                  4.6276972792196345
0.0035                    -0.0015                  4.636858882104932
0.0035                    -5.0E-4                  4.642956892459159
0.0035                    5.0E-4                   4.645842656409486
0.0035                    0.0015                   4.646026515813899
0.0035                    0.0025                   4.644512390795433
0.0035                    0.0035                   4.6426324466241295
0.0035                    0.0045                   4.641843714122975
0.0035                    0.0055                   4.643487888353688
0.0035                    0.0065                   4.6484017771789325
0.0035                    0.0075                   4.656567165868813
0.0035                    0.0085                   4.6669685224004915
0.0035                    0.0095                   4.677237483221962
0.0035                    0.0105                   4.68426846837218
0.0035                    0.0115                   4.68572566919719
0.0035                    0.0125                   4.681549280109788
0.0035                    0.0135                   4.672927163417381
0.0035                    0.0145                   4.6582454466801595
0.0035                    0.0155                   4.635149208281799
0.0035                    0.0165                   4.606606820991807
0.0035                    0.0175                   4.5809066171436035
0.0035                    0.0185                   4.564654804669011
0.0035                    0.0195                   4.557632587411457
0.0035                    0.0205                   4.560229378143154
0.0035                    0.0215                   4.605176104085697
0.0035                    0.0225                   4.730209510728843
0.0035                    0.0235                   4.874579378866298
0.0035                    0.0245                   4.949135666041916
0.0035                    0.0255                   4.961325955395667
0.0035                    0.0265                   4.958058562979511
0.0035                    0.0275                   4.95617586274488
0.0035                    0.0285                   4.954492432972554
0.0035                    0.0295                   4.953191556569122
0.0035                    0.0305                   4.952100632243594
0.0035                    0.0315                   4.951315811131643
0.0045                    -0.0315                  3.8689088307629547
0.0045                    -0.0305                  3.893035176570061
0.0045                    -0.0295                  3.9356541437853996
0.0045                    -0.0285                  3.9892300543049637
0.0045                    -0.0275                  4.04741526380502
0.0045                    -0.0265                  4.105859247163512
0.0045                    -0.0255                  4.16228962501962
0.0045                    -0.0245                  4.216171781747452
0.0045                    -0.0235                  4.26811020530868
0.0045                    -0.0225                  4.319045415637229
0.0045                    -0.0215                  4.3694062848943425
0.0045                    -0.0205                  4.418339635590156
0.0045                    -0.0195                  4.463391206710448
0.0045                    -0.0185                  4.501974814027579
0.0045                    -0.0175                  4.533022381380295
0.0045                    -0.0165                  4.5576900827948945
0.0045                    -0.0155                  4.578574856418445
0.0045                    -0.0145                  4.595133873648381
0.0045                    -0.0135                  4.601893308128142
0.0045                    -0.0125                  4.595584905008348
0.0045                    -0.0115                  4.580305341597122
0.0045                    -0.0105                  4.563825681508719
0.0045                    -0.0095                  4.552638546286463
0.0045                    -0.0085                  4.549778310624983
0.0045                    -0.0075                  4.555006867315619
0.0045                    -0.0065                  4.566269492779458
0.0045                    -0.0055                  4.581153953888693
0.0045                    -0.0045                  4.597591743926339
0.0045                    -0.0035                  4.613785686075712
0.0045                    -0.0025                  4.6280511907370725
0.0045                    -0.0015                  4.638870673924346
0.0045                    -5.0E-4                  4.645255757392423
0.0045                    5.0E-4                   4.647104200364026
0.0045                    0.0015                   4.645110685216514
0.0045                    0.0025                   4.640387622250933
0.0045                    0.0035                   4.634274792722369
0.0045                    0.0045                   4.628319041123837
0.0045                    0.0055                   4.624158673463678
0.0045                    0.0065                   4.6231009408231785
0.0045                    0.0075                   4.6258938412895745
0.0045                    0.0085                   4.632949256767204
0.0045                    0.0095                   4.64336009773422
0.0045                    0.0105                   4.654848800793103
0.0045                    0.0115                   4.664550651875306
0.0045                    0.0125                   4.66941787206618
0.0045                    0.0135                   4.666549803448266
0.0045                    0.0145                   4.65362172208617
0.0045                    0.0155                   4.630962962712761
0.0045                    0.0165                   4.603527380680832
0.0045                    0.0175                   4.580100647317251
0.0045                    0.0185                   4.568259721947985
0.0045                    0.0195                   4.572891750238108
0.0045                    0.0205                   4.605739434177441
0.0045                    0.0215                   4.695363445391985
0.0045                    0.0225                   4.82333580952484
0.0045                    0.0235                   4.92457041048973
0.0045                    0.0245                   4.96632100964693
0.0045                    0.0255                   4.969767179453867
0.0045                    0.0265                   4.967039085391216
0.0045                    0.0275                   4.964014657623858
0.0045                    0.0285                   4.961017166264931
0.0045                    0.0295                   4.958083905355938
0.0045                    0.0305                   4.955178889349017
0.0045                    0.0315                   4.95303364757671
0.0055                    -0.0315                  3.8250937056603833
0.0055                    -0.0305                  3.849208111558344
0.0055                    -0.0295                  3.8927373811865302
0.0055                    -0.0285                  3.9488746875103478
0.0055                    -0.0275                  4.011288511765848
0.0055                    -0.0265                  4.074882822623108
0.0055                    -0.0255                  4.136161874527894
0.0055                    -0.0245                  4.193492358899284
0.0055                    -0.0235                  4.247004003179139
0.0055                    -0.0225                  4.297987906313059
0.0055                    -0.0215                  4.347559325075734
0.0055                    -0.0205                  4.395289697112093
0.0055                    -0.0195                  4.438753747335748
0.0055                    -0.0185                  4.475502925231023
0.0055                    -0.0175                  4.504441215284812
0.0055                    -0.0165                  4.527813729501651
0.0055                    -0.0155                  4.548089768187208
0.0055                    -0.0145                  4.562242360533436
0.0055                    -0.0135                  4.564681820659995
0.0055                    -0.0125                  4.554560188947951
0.0055                    -0.0115                  4.538486538267629
0.0055                    -0.0105                  4.525551586756739
0.0055                    -0.0095                  4.52165845519278
0.0055                    -0.0085                  4.527291502458798
0.0055                    -0.0075                  4.539792742280398
0.0055                    -0.0065                  4.5564192145868265
0.0055                    -0.0055                  4.57512218312578
0.0055                    -0.0045                  4.594277160737796
0.0055                    -0.0035                  4.612396753282626
0.0055                    -0.0025                  4.6279194909652235
0.0055                    -0.0015                  4.639313500728742
0.0055                    -5.0E-4                  4.645591999095897
0.0055                    5.0E-4                   4.6467820931458
0.0055                    0.0015                   4.643740571604088
0.0055                    0.0025                   4.637578048959566
0.0055                    0.0035                   4.629521576736205
0.0055                    0.0045                   4.621125273782147
0.0055                    0.0055                   4.614146006486825
0.0055                    0.0065                   4.610041434323848
0.0055                    0.0075                   4.609749287964474
0.0055                    0.0085                   4.613783956941574
0.0055                    0.0095                   4.622028616959234
0.0055                    0.0105                   4.6341425250561725
0.0055                    0.0115                   4.6487303668936555
0.0055                    0.0125                   4.662799052018692
0.0055                    0.0135                   4.671570618290092
0.0055                    0.0145                   4.670162089625673
0.0055                    0.0155                   4.656920602362162
0.0055                    0.0165                   4.636911300035444
0.0055                    0.0175                   4.622622611225355
0.0055                    0.0185                   4.627551687620988
0.0055                    0.0195                   4.661758144124295
0.0055                    0.0205                   4.733049115548202
0.0055                    0.0215                   4.829972822308807
0.0055                    0.0225                   4.915286026795821
0.0055                    0.0235                   4.964190557513375
0.0055                    0.0245                   4.977603927612038
0.0055                    0.0255                   4.9760880271293635
0.0055                    0.0265                   4.974541600918407
0.0055                    0.0275                   4.9716139328918985
0.0055                    0.0285                   4.967968251918461
0.0055                    0.0295                   4.963359338344903
0.0055                    0.0305                   4.958121552322391
0.0055                    0.0315                   4.954119322301971
0.0065                    -0.0315                  3.779256941881514
0.0065                    -0.0305                  3.8031717580663433
0.0065                    -0.0295                  3.8473377418567916
0.0065                    -0.0285                  3.9058684482483703
0.0065                    -0.0275                  3.972640529677263
0.0065                    -0.0265                  4.04189202947438
0.0065                    -0.0255                  4.108827549137319
0.0065                    -0.0245                  4.170314132887375
0.0065                    -0.0235                  4.225566739817943
0.0065                    -0.0225                  4.275910482142942
0.0065                    -0.0215                  4.323612320005604
0.0065                    -0.0205                  4.369578643856032
0.0065                    -0.0195                  4.411622473125278
0.0065                    -0.0185                  4.4465659413800696
0.0065                    -0.0175                  4.473669657740085
0.0065                    -0.0165                  4.4955551784013235
0.0065                    -0.0155                  4.513718371708967
0.0065                    -0.0145                  4.524482486324911
0.0065                    -0.0135                  4.523572641333574
0.0065                    -0.0125                  4.51301091108043
0.0065                    -0.0115                  4.501539225433796
0.0065                    -0.0105                  4.497323387479734
0.0065                    -0.0095                  4.502223319558461
0.0065                    -0.0085                  4.514229277057291
0.0065                    -0.0075                  4.531037913858317
0.0065                    -0.0065                  4.550705286945007
0.0065                    -0.0055                  4.571480095837416
0.0065                    -0.0045                  4.5918706020566695
0.0065                    -0.0035                  4.6105772302446875
0.0065                    -0.0025                  4.626143776702338
0.0065                    -0.0015                  4.637080046408982
0.0065                    -5.0E-4                  4.642652614772542
0.0065                    5.0E-4                   4.643281257640756
0.0065                    0.0015                   4.639899154958394
0.0065                    0.0025                   4.63338226242754
0.0065                    0.0035                   4.624879957030941
0.0065                    0.0045                   4.6161672374561515
0.0065                    0.0055                   4.609115462443746
0.0065                    0.0065                   4.60500893234439
0.0065                    0.0075                   4.604540924890866
0.0065                    0.0085                   4.608034496380951
0.0065                    0.0095                   4.615824477201738
0.0065                    0.0105                   4.628350359064293
0.0065                    0.0115                   4.645279157668887
0.0065                    0.0125                   4.666193088802661
0.0065                    0.0135                   4.689837539124014