% Model:              Benchmark260518.mph
% Version:            COMSOL 6.2.0.339
% Date:               May 21 2026, 14:56
% Dimension:          2
% Nodes:              4096
% Expressions:        1
% Description:        压力
% Length unit:        m
% x                       y                        p (Pa)
5.0E-4                    -0.0315                  4.081726649481011
5.0E-4                    -0.0305                  4.10263663665407
5.0E-4                    -0.0295                  4.131100512985468
5.0E-4                    -0.0285                  4.1620696528951076
5.0E-4                    -0.0275                  4.1944533735208935
5.0E-4                    -0.0265                  4.227841055571226
5.0E-4                    -0.0255                  4.261947878261738
5.0E-4                    -0.0245                  4.296585222871015
5.0E-4                    -0.0235                  4.331601365644351
5.0E-4                    -0.0225                  4.366875737430161
5.0E-4                    -0.0215                  4.402317191575609
5.0E-4                    -0.0205                  4.4378733743739245
5.0E-4                    -0.0195                  4.473515204593123
5.0E-4                    -0.0185                  4.509229500520845
5.0E-4                    -0.0175                  4.545009288606455
5.0E-4                    -0.0165                  4.580851485636021
5.0E-4                    -0.0155                  4.616779602777423
5.0E-4                    -0.0145                  4.652175441520721
5.0E-4                    -0.0135                  4.684923842509308
5.0E-4                    -0.0125                  4.712342392800659
5.0E-4                    -0.0115                  4.7313982360828355
5.0E-4                    -0.0105                  4.741557131229781
5.0E-4                    -0.0095                  4.74585016044464
5.0E-4                    -0.0085                  4.746731752014298
5.0E-4                    -0.0075                  4.745347752705621
5.0E-4                    -0.0065                  4.742395274038306
5.0E-4                    -0.0055                  4.7385731208870725
5.0E-4                    -0.0045                  4.734977643327039
5.0E-4                    -0.0035                  4.73286880812081
5.0E-4                    -0.0025                  4.732897311184244
5.0E-4                    -0.0015                  4.734460444065713
5.0E-4                    -5.0E-4                  4.735771731220043
5.0E-4                    5.0E-4                   4.734696217800446
5.0E-4                    0.0015                   4.72970070282908
5.0E-4                    0.0025                   4.720559561007114
5.0E-4                    0.0035                   4.708337588736618
5.0E-4                    0.0045                   4.69460456777658
5.0E-4                    0.0055                   4.679965878425152
5.0E-4                    0.0065                   4.664562518097263
5.0E-4                    0.0075                   4.677353892253209
5.0E-4                    0.0085                   4.759881186152508
5.0E-4                    0.0095                   4.870853700743015
5.0E-4                    0.0105                   4.945706833222542
5.0E-4                    0.0115                   4.985305748869592
5.0E-4                    0.0125                   5.006826424988829
5.0E-4                    0.0135                   5.0191484494733105
5.0E-4                    0.0145                   5.025260473062232
5.0E-4                    0.0155                   5.024611210670476
5.0E-4                    0.0165                   5.01698838095413
5.0E-4                    0.0175                   5.005342816583417
5.0E-4                    0.0185                   4.992328228037858
5.0E-4                    0.0195                   4.978444042387292
5.0E-4                    0.0205                   4.963590549501141
5.0E-4                    0.0215                   4.9495327833634635
5.0E-4                    0.0225                   4.938324967290509
5.0E-4                    0.0235                   4.91996914795793
5.0E-4                    0.0245                   4.878276717871641
5.0E-4                    0.0255                   4.82505365137704
5.0E-4                    0.0265                   4.777594119064147
5.0E-4                    0.0275                   4.733700723196307
5.0E-4                    0.0285                   4.692165575470403
5.0E-4                    0.0295                   4.653306209516446
5.0E-4                    0.0305                   4.61834955624643
5.0E-4                    0.0315                   4.593060236512706
0.0015                    -0.0315                  4.06067351498058
0.0015                    -0.0305                  4.081714643710092
0.0015                    -0.0295                  4.112361682320101
0.0015                    -0.0285                  4.1459189781160735
0.0015                    -0.0275                  4.180541407674123
0.0015                    -0.0265                  4.215799711455159
0.0015                    -0.0255                  4.251536208989181
0.0015                    -0.0245                  4.287633212772894
0.0015                    -0.0235                  4.323970854198759
0.0015                    -0.0225                  4.3604270819887
0.0015                    -0.0215                  4.3969035035552
0.0015                    -0.0205                  4.433350567221301
0.0015                    -0.0195                  4.469778989374333
0.0015                    -0.0185                  4.506254119920329
0.0015                    -0.0175                  4.542882816374572
0.0015                    -0.0165                  4.579771584849877
0.0015                    -0.0155                  4.616785390957516
0.0015                    -0.0145                  4.65296034152685
0.0015                    -0.0135                  4.685973787669159
0.0015                    -0.0125                  4.713200617848852
0.0015                    -0.0115                  4.73167638305528
0.0015                    -0.0105                  4.741541640512109
0.0015                    -0.0095                  4.746273323753157
0.0015                    -0.0085                  4.74762141803883
0.0015                    -0.0075                  4.746198388020542
0.0015                    -0.0065                  4.742553077110289
0.0015                    -0.0055                  4.7373697879852985
0.0015                    -0.0045                  4.732045672130564
0.0015                    -0.0035                  4.728351304450026
0.0015                    -0.0025                  4.727342070967144
0.0015                    -0.0015                  4.7286644429478635
0.0015                    -5.0E-4                  4.730566971244126
0.0015                    5.0E-4                   4.730718698539904
0.0015                    0.0015                   4.727232696978682
0.0015                    0.0025                   4.719547601506502
0.0015                    0.0035                   4.7087754266498
0.0015                    0.0045                   4.697009510227734
0.0015                    0.0055                   4.686824752320052
0.0015                    0.0065                   4.684219656847408
0.0015                    0.0075                   4.701775358525552
0.0015                    0.0085                   4.781882314052211
0.0015                    0.0095                   4.886551772018802
0.0015                    0.0105                   4.947129919982182
0.0015                    0.0115                   4.976545985904336
0.0015                    0.0125                   4.990803224772215
0.0015                    0.0135                   4.999226331957614
0.0015                    0.0145                   5.004909124928572
0.0015                    0.0155                   5.007436526968462
0.0015                    0.0165                   5.003402615121099
0.0015                    0.0175                   4.988848767362201
0.0015                    0.0185                   4.9640774772215295
0.0015                    0.0195                   4.934401475979443
0.0015                    0.0205                   4.906144069069051
0.0015                    0.0215                   4.884177919576246
0.0015                    0.0225                   4.867032369394269
0.0015                    0.0235                   4.848169123069331
0.0015                    0.0245                   4.822517838943257
0.0015                    0.0255                   4.786813212950537
0.0015                    0.0265                   4.746304172512927
0.0015                    0.0275                   4.707083092962608
0.0015                    0.0285                   4.668046794770828
0.0015                    0.0295                   4.629083834335315
0.0015                    0.0305                   4.592771868405493
0.0015                    0.0315                   4.567592174248549
0.0025                    -0.0315                  4.031736526249859
0.0025                    -0.0305                  4.051067135220803
0.0025                    -0.0295                  4.082100224287846
0.0025                    -0.0285                  4.118004468652086
0.0025                    -0.0275                  4.155518564236411
0.0025                    -0.0265                  4.1935789082725385
0.0025                    -0.0255                  4.231925551508652
0.0025                    -0.0245                  4.27047474314422
0.0025                    -0.0235                  4.309126325980411
0.0025                    -0.0225                  4.347735219575368
0.0025                    -0.0215                  4.386153588930824
0.0025                    -0.0205                  4.424295711722708
0.0025                    -0.0195                  4.462182848315226
0.0025                    -0.0185                  4.49994248842447
0.0025                    -0.0175                  4.5377534152069785
0.0025                    -0.0165                  4.575670006203242
0.0025                    -0.0155                  4.613249045808175
0.0025                    -0.0145                  4.649155435681024
0.0025                    -0.0135                  4.681081534430183
0.0025                    -0.0125                  4.707031508342256
0.0025                    -0.0115                  4.725501630736256
0.0025                    -0.0105                  4.737292009772848
0.0025                    -0.0095                  4.744370587941836
0.0025                    -0.0085                  4.746438885974823
0.0025                    -0.0075                  4.743084007234129
0.0025                    -0.0065                  4.735254191946956
0.0025                    -0.0055                  4.72525191590889
0.0025                    -0.0045                  4.716064058440574
0.0025                    -0.0035                  4.710078811515063
0.0025                    -0.0025                  4.708509167068127
0.0025                    -0.0015                  4.711101896307259
0.0025                    -5.0E-4                  4.716200901595803
0.0025                    5.0E-4                   4.721421620651117
0.0025                    0.0015                   4.724513659115404
0.0025                    0.0025                   4.724378969311654
0.0025                    0.0035                   4.721816166725817
0.0025                    0.0045                   4.719944909658034
0.0025                    0.0055                   4.724220140613738
0.0025                    0.0065                   4.743459849895909
0.0025                    0.0075                   4.791205420759163
0.0025                    0.0085                   4.861361522740966
0.0025                    0.0095                   4.922055099286085
0.0025                    0.0105                   4.956492579308837
0.0025                    0.0115                   4.971924158007123
0.0025                    0.0125                   4.979259178175128
0.0025                    0.0135                   4.984432582143047
0.0025                    0.0145                   4.988280200322421
0.0025                    0.0155                   4.988740283718555
0.0025                    0.0165                   4.9810423492672875
0.0025                    0.0175                   4.96011379405577
0.0025                    0.0185                   4.926259492743174
0.0025                    0.0195                   4.887549306930628
0.0025                    0.0205                   4.852914447560324
0.0025                    0.0215                   4.82545560879772
0.0025                    0.0225                   4.8023604905981365
0.0025                    0.0235                   4.779416446125331
0.0025                    0.0245                   4.754849855252064
0.0025                    0.0255                   4.7268183572829505
0.0025                    0.0265                   4.695039691548257
0.0025                    0.0275                   4.661802655458836
0.0025                    0.0285                   4.626778391222163
0.0025                    0.0295                   4.589577701595939
0.0025                    0.0305                   4.5548265915267985
0.0025                    0.0315                   4.532349793820533
0.0035                    -0.0315                  3.9999882779655427
0.0035                    -0.0305                  4.0173981800716945
0.0035                    -0.0295                  4.047202907794725
0.0035                    -0.0285                  4.083833594427642
0.0035                    -0.0275                  4.123466794555284
0.0035                    -0.0265                  4.164191228782926
0.0035                    -0.0255                  4.205319062296368
0.0035                    -0.0245                  4.246660460060729
0.0035                    -0.0235                  4.288104743489264
0.0035                    -0.0225                  4.329466522976844
0.0035                    -0.0215                  4.370496659484777
0.0035                    -0.0205                  4.410979975114082
0.0035                    -0.0195                  4.450832576950906
0.0035                    -0.0185                  4.49011510907904
0.0035                    -0.0175                  4.5289040371561216
0.0035                    -0.0165                  4.567044912962442
0.0035                    -0.0155                  4.603822578331682
0.0035                    -0.0145                  4.637703410471078
0.0035                    -0.0135                  4.667134472009041
0.0035                    -0.0125                  4.691316965358547
0.0035                    -0.0115                  4.710500426528727
0.0035                    -0.0105                  4.725554592130702
0.0035                    -0.0095                  4.735201244830222
0.0035                    -0.0085                  4.736005875620859
0.0035                    -0.0075                  4.727095616705435
0.0035                    -0.0065                  4.7118550866151505
0.0035                    -0.0055                  4.695430884867864
0.0035                    -0.0045                  4.682123500102306
0.0035                    -0.0035                  4.674741053684814
0.0035                    -0.0025                  4.674533729908643
0.0035                    -0.0015                  4.680992987587048
0.0035                    -5.0E-4                  4.692525768865506
0.0035                    5.0E-4                   4.707336963503713
0.0035                    0.0015                   4.723388428082098
0.0035                    0.0025                   4.739212003513863
0.0035                    0.0035                   4.7549006722141485
0.0035                    0.0045                   4.772587928826185
0.0035                    0.0055                   4.796745112720423
0.0035                    0.0065                   4.832192003484409
0.0035                    0.0075                   4.878271507955159
0.0035                    0.0085                   4.923693657611734
0.0035                    0.0095                   4.9537392330241765
0.0035                    0.0105                   4.965765851568165
0.0035                    0.0115                   4.9684818271193905
0.0035                    0.0125                   4.969479462912485
0.0035                    0.0135                   4.970779950383119
0.0035                    0.0145                   4.970303430938813
0.0035                    0.0155                   4.963425647925046
0.0035                    0.0165                   4.944426293252748
0.0035                    0.0175                   4.911643716227489
0.0035                    0.0185                   4.870152655254771
0.0035                    0.0195                   4.8287962884349
0.0035                    0.0205                   4.793691049079324
0.0035                    0.0215                   4.764441301483609
0.0035                    0.0225                   4.738164440463754
0.0035                    0.0235                   4.7129461091537594
0.0035                    0.0245                   4.687970504070039
0.0035                    0.0255                   4.662497927230044
0.0035                    0.0265                   4.635497379192546
0.0035                    0.0275                   4.606865518631923
0.0035                    0.0285                   4.575919946282538
0.0035                    0.0295                   4.542675019792019
0.0035                    0.0305                   4.512107331951943
0.0035                    0.0315                   4.493134414256645
0.0045                    -0.0315                  3.966674041484841
0.0045                    -0.0305                  3.982627405749417
0.0045                    -0.0295                  4.010970620320506
0.0045                    -0.0285                  4.04725722384654
0.0045                    -0.0275                  4.087886594339238
0.0045                    -0.0265                  4.130505771149881
0.0045                    -0.0255                  4.173949050796526
0.0045                    -0.0245                  4.217815489264598
0.0045                    -0.0235                  4.261974560425287
0.0045                    -0.0225                  4.30623620480525
0.0045                    -0.0215                  4.3502449072113
0.0045                    -0.0205                  4.393554979992416
0.0045                    -0.0195                  4.435788383397103
0.0045                    -0.0185                  4.476717047854839
0.0045                    -0.0175                  4.516161416357562
0.0045                    -0.0165                  4.553699586695289
0.0045                    -0.0155                  4.588464437320256
0.0045                    -0.0145                  4.619270974027549
0.0045                    -0.0135                  4.645800379990213
0.0045                    -0.0125                  4.668184050737967
0.0045                    -0.0115                  4.687605862052177
0.0045                    -0.0105                  4.7043638273531005
0.0045                    -0.0095                  4.713819168292266
0.0045                    -0.0085                  4.710340615888521
0.0045                    -0.0075                  4.694587876875211
0.0045                    -0.0065                  4.672862753193738
0.0045                    -0.0055                  4.65247181825995
0.0045                    -0.0045                  4.639123738051236
0.0045                    -0.0035                  4.635080991669149
0.0045                    -0.0025                  4.639932228198757
0.0045                    -0.0015                  4.652320381170605
0.0045                    -5.0E-4                  4.671031458391199
0.0045                    5.0E-4                   4.695408333996577
0.0045                    0.0015                   4.724591882045944
0.0045                    0.0025                   4.75758171770984
0.0045                    0.0035                   4.793429089711816
0.0045                    0.0045                   4.830710394470573
0.0045                    0.0055                   4.8684170189867455
0.0045                    0.0065                   4.905662599320852
0.0045                    0.0075                   4.939225589584853
0.0045                    0.0085                   4.962979669051268
0.0045                    0.0095                   4.972532884131958
0.0045                    0.0105                   4.9705676746139
0.0045                    0.0115                   4.9643701806717
0.0045                    0.0125                   4.958986757543129
0.0045                    0.0135                   4.953675861707828
0.0045                    0.0145                   4.942941600880747
0.0045                    0.0155                   4.919084573243392
0.0045                    0.0165                   4.879406696005194
0.0045                    0.0175                   4.8307270569815275
0.0045                    0.0185                   4.78373265266888
0.0045                    0.0195                   4.745930586610206
0.0045                    0.0205                   4.717921133544367
0.0045                    0.0215                   4.694540769161842
0.0045                    0.0225                   4.670799372011084
0.0045                    0.0235                   4.646214607221596
0.0045                    0.0245                   4.622142244397073
0.0045                    0.0255                   4.598813734893536
0.0045                    0.0265                   4.574875644668262
0.0045                    0.0275                   4.548853971276024
0.0045                    0.0285                   4.520910141239149
0.0045                    0.0295                   4.4922274383151946
0.0045                    0.0305                   4.466611830063251
0.0045                    0.0315                   4.451020858516367
0.0055                    -0.0315                  3.932154317502653
0.0055                    -0.0305                  3.947175515864536
0.0055                    -0.0295                  3.9744118920129474
0.0055                    -0.0285                  4.010142914862687
0.0055                    -0.0275                  4.051100848561851
0.0055                    -0.0265                  4.0948287514283965
0.0055                    -0.0255                  4.139835278377015
0.0055                    -0.0245                  4.185510428886429
0.0055                    -0.0235                  4.231752310150339
0.0055                    -0.0225                  4.278502856670933
0.0055                    -0.0215                  4.325426495647273
0.0055                    -0.0205                  4.371847667619699
0.0055                    -0.0195                  4.41690647458181
0.0055                    -0.0185                  4.459816654197097
0.0055                    -0.0175                  4.499946629923249
0.0055                    -0.0165                  4.536677346623428
0.0055                    -0.0155                  4.569126039609074
0.0055                    -0.0145                  4.596761553222397
0.0055                    -0.0135                  4.6202947813237065
0.0055                    -0.0125                  4.640867958844652
0.0055                    -0.0115                  4.659528884718286
0.0055                    -0.0105                  4.674993133871357
0.0055                    -0.0095                  4.681015074269921
0.0055                    -0.0085                  4.672548965841547
0.0055                    -0.0075                  4.652487397291705
0.0055                    -0.0065                  4.629484961231247
0.0055                    -0.0055                  4.612442263820203
0.0055                    -0.0045                  4.605900290902973
0.0055                    -0.0035                  4.609344228950992
0.0055                    -0.0025                  4.620504771718823
0.0055                    -0.0015                  4.638019237087448
0.0055                    -5.0E-4                  4.661596521678925
0.0055                    5.0E-4                   4.691477644937246
0.0055                    0.0015                   4.727951698681794
0.0055                    0.0025                   4.77087098397622
0.0055                    0.0035                   4.818384744161422
0.0055                    0.0045                   4.866009581685239
0.0055                    0.0055                   4.908251415324534
0.0055                    0.0065                   4.941532291968772
0.0055                    0.0075                   4.9645870628344655
0.0055                    0.0085                   4.976577124324846
0.0055                    0.0095                   4.977308095922028
0.0055                    0.0105                   4.9689188485708895
0.0055                    0.0115                   4.955754724896492
0.0055                    0.0125                   4.941339825158039
0.0055                    0.0135                   4.923026371522054
0.0055                    0.0145                   4.891191123337236
0.0055                    0.0155                   4.838357607819437
0.0055                    0.0165                   4.770578000251242
0.0055                    0.0175                   4.704502229530749
0.0055                    0.0185                   4.654791029874457
0.0055                    0.0195                   4.626672078059791
0.0055                    0.0205                   4.614907293074272
0.0055                    0.0215                   4.607944156218171
0.0055                    0.0225                   4.595479715620323
0.0055                    0.0235                   4.5763672777505935
0.0055                    0.0245                   4.5555534754788205
0.0055                    0.0255                   4.535382075920323
0.0055                    0.0265                   4.514090000095585
0.0055                    0.0275                   4.489819589087189
0.0055                    0.0285                   4.464371780245085
0.0055                    0.0295                   4.440010679664144
0.0055                    0.0305                   4.419048911024806
0.0055                    0.0315                   4.406373862012055
0.0065                    -0.0315                  3.8965496221269573
0.0065                    -0.0305                  3.911029120012155
0.0065                    -0.0295                  3.9376011063006704
0.0065                    -0.0285                  3.973004739467508
0.0065                    -0.0275                  4.014210210612708
0.0065                    -0.0265                  4.0586964652478335
0.0065                    -0.0255                  4.10468567692648
0.0065                    -0.0245                  4.151328598866729
0.0065                    -0.0235                  4.198588417675225
0.0065                    -0.0225                  4.246770110255668
0.0065                    -0.0215                  4.29590853995238
0.0065                    -0.0205                  4.345354775527377
0.0065                    -0.0195                  4.39377342425312
0.0065                    -0.0185                  4.4395116716364615
0.0065                    -0.0175                  4.481212327973682
0.0065                    -0.0165                  4.51783125459905
0.0065                    -0.0155                  4.548729921504305
0.0065                    -0.0145                  4.574028222325895
0.0065                    -0.0135                  4.594805759880415
0.0065                    -0.0125                  4.613141156387261
0.0065                    -0.0115                  4.629841217975298
0.0065                    -0.0105                  4.642206844984489
0.0065                    -0.0095                  4.644168006110364
0.0065                    -0.0085                  4.6325084379634145
0.0065                    -0.0075                  4.612807286821468
0.0065                    -0.0065                  4.595503786744713
0.0065                    -0.0055                  4.587660583592328
0.0065                    -0.0045                  4.589475918232938
0.0065                    -0.0035                  4.598478731401052
0.0065                    -0.0025                  4.613389782587731
0.0065                    -0.0015                  4.634045451444556
0.0065                    -5.0E-4                  4.660610962549697
0.0065                    5.0E-4                   4.693390176235009
0.0065                    0.0015                   4.7328511886995255
0.0065                    0.0025                   4.778964009529994
0.0065                    0.0035                   4.829415448698272
0.0065                    0.0045                   4.878385041450418
0.0065                    0.0055                   4.918874921246514
0.0065                    0.0065                   4.947412502465277
0.0065                    0.0075                   4.964861327075277
0.0065                    0.0085                   4.97275326960087
0.0065                    0.0095                   4.970909524514607
0.0065                    0.0105                   4.9583232382515305
0.0065                    0.0115                   4.935314606219613
0.0065                    0.0125                   4.903985422149703
0.0065                    0.0135                   4.861822330929448