% Model:              Benchmark260518细网格.mph
% Version:            COMSOL 6.2.0.339
% Date:               May 26 2026, 07:02
% Dimension:          2
% Nodes:              4096
% Expressions:        1
% Description:        压力
% Length unit:        m
% x                       y                        p (Pa)
5.0E-4                    -0.0315                  3.785495410654175
5.0E-4                    -0.0305                  3.8080305347789754
5.0E-4                    -0.0295                  3.835065290711744
5.0E-4                    -0.0285                  3.8639734400609544
5.0E-4                    -0.0275                  3.894133977101333
5.0E-4                    -0.0265                  3.92555991302172
5.0E-4                    -0.0255                  3.958011341800974
5.0E-4                    -0.0245                  3.991548375355079
5.0E-4                    -0.0235                  4.026135966594862
5.0E-4                    -0.0225                  4.061759915123691
5.0E-4                    -0.0215                  4.098526811584543
5.0E-4                    -0.0205                  4.13632058295299
5.0E-4                    -0.0195                  4.175363059100402
5.0E-4                    -0.0185                  4.215503064215976
5.0E-4                    -0.0175                  4.25690618232175
5.0E-4                    -0.0165                  4.299551524641251
5.0E-4                    -0.0155                  4.343470728359673
5.0E-4                    -0.0145                  4.388803620646817
5.0E-4                    -0.0135                  4.435391335205718
5.0E-4                    -0.0125                  4.483536584405552
5.0E-4                    -0.0115                  4.532922071591977
5.0E-4                    -0.0105                  4.583777651962729
5.0E-4                    -0.0095                  4.63588308764139
5.0E-4                    -0.0085                  4.6894918814136215
5.0E-4                    -0.0075                  4.743508924173543
5.0E-4                    -0.0065                  4.792482820220683
5.0E-4                    -0.0055                  4.82426563050811
5.0E-4                    -0.0045                  4.835149131954054
5.0E-4                    -0.0035                  4.831494816685754
5.0E-4                    -0.0025                  4.8199702112323966
5.0E-4                    -0.0015                  4.824708997853332
5.0E-4                    -5.0E-4                  4.872150655599292
5.0E-4                    5.0E-4                   4.869345818239746
5.0E-4                    0.0015                   4.827145875539087
5.0E-4                    0.0025                   4.824632129394248
5.0E-4                    0.0035                   4.833933269146626
5.0E-4                    0.0045                   4.835941383360464
5.0E-4                    0.0055                   4.823807089636957
5.0E-4                    0.0065                   4.7907724123304805
5.0E-4                    0.0075                   4.739572896757523
5.0E-4                    0.0085                   4.682119341777538
5.0E-4                    0.0095                   4.623393857887558
5.0E-4                    0.0105                   4.564851137116974
5.0E-4                    0.0115                   4.506849557852045
5.0E-4                    0.0125                   4.449985032218138
5.0E-4                    0.0135                   4.394231945273776
5.0E-4                    0.0145                   4.3398162614632465
5.0E-4                    0.0155                   4.2866393434707835
5.0E-4                    0.0165                   4.234728026000886
5.0E-4                    0.0175                   4.184055242380175
5.0E-4                    0.0185                   4.134584143185899
5.0E-4                    0.0195                   4.0863621396336125
5.0E-4                    0.0205                   4.039253410411659
5.0E-4                    0.0215                   3.9934463334846475
5.0E-4                    0.0225                   3.948735726496674
5.0E-4                    0.0235                   3.9052755745764163
5.0E-4                    0.0245                   3.862975806341948
5.0E-4                    0.0255                   3.8218780395818497
5.0E-4                    0.0265                   3.782045575379388
5.0E-4                    0.0275                   3.743423773052895
5.0E-4                    0.0285                   3.7063093009655583
5.0E-4                    0.0295                   3.6707051111487794
5.0E-4                    0.0305                   3.6373989458572593
5.0E-4                    0.0315                   3.609587209610289
0.0015                    -0.0315                  3.7626496841937875
0.0015                    -0.0305                  3.78512552209858
0.0015                    -0.0295                  3.814881038219886
0.0015                    -0.0285                  3.8460453391456877
0.0015                    -0.0275                  3.877697759274316
0.0015                    -0.0265                  3.9099618981998105
0.0015                    -0.0255                  3.942866340567983
0.0015                    -0.0245                  3.9765571031727114
0.0015                    -0.0235                  4.01109902395026
0.0015                    -0.0225                  4.046527513763921
0.0015                    -0.0215                  4.082984800515912
0.0015                    -0.0205                  4.120389993511217
0.0015                    -0.0195                  4.158972142250432
0.0015                    -0.0185                  4.198609731662516
0.0015                    -0.0175                  4.239476556563476
0.0015                    -0.0165                  4.281580269037313
0.0015                    -0.0155                  4.32499013949941
0.0015                    -0.0145                  4.369892928424919
0.0015                    -0.0135                  4.416236244276043
0.0015                    -0.0125                  4.464433361646533
0.0015                    -0.0115                  4.514356964042696
0.0015                    -0.0105                  4.5664954009543335
0.0015                    -0.0095                  4.621368228713276
0.0015                    -0.0085                  4.679988479955752
0.0015                    -0.0075                  4.741496502374516
0.0015                    -0.0065                  4.798303814715925
0.0015                    -0.0055                  4.831646572730216
0.0015                    -0.0045                  4.842838324327728
0.0015                    -0.0035                  4.8395892470753346
0.0015                    -0.0025                  4.8327524629553515
0.0015                    -0.0015                  4.872148640000258
0.0015                    -5.0E-4                  4.955217710021341
0.0015                    5.0E-4                   4.932916196015436
0.0015                    0.0015                   4.8530739326025
0.0015                    0.0025                   4.8360019603151265
0.0015                    0.0035                   4.840737642283161
0.0015                    0.0045                   4.84318436970567
0.0015                    0.0055                   4.835862596299886
0.0015                    0.0065                   4.807725185921869
0.0015                    0.0075                   4.752438880025584
0.0015                    0.0085                   4.686582388695547
0.0015                    0.0095                   4.61948749642425
0.0015                    0.0105                   4.55509504648678
0.0015                    0.0115                   4.493666432294633
0.0015                    0.0125                   4.434992868450995
0.0015                    0.0135                   4.378306788069263
0.0015                    0.0145                   4.323561964494593
0.0015                    0.0155                   4.2702169599553645
0.0015                    0.0165                   4.218273648732643
0.0015                    0.0175                   4.167548759977242
0.0015                    0.0185                   4.117993553924717
0.0015                    0.0195                   4.069643271822443
0.0015                    0.0205                   4.022365345315212
0.0015                    0.0215                   3.9763501706973634
0.0015                    0.0225                   3.931399460022713
0.0015                    0.0235                   3.8876500844061272
0.0015                    0.0245                   3.8449813456420783
0.0015                    0.0255                   3.8033760677260493
0.0015                    0.0265                   3.762779542246708
0.0015                    0.0275                   3.72301164576625
0.0015                    0.0285                   3.684038634568253
0.0015                    0.0295                   3.6456926296756818
0.0015                    0.0305                   3.6090725968347215
0.0015                    0.0315                   3.5814004480952617
0.0025                    -0.0315                  3.7350884849630646
0.0025                    -0.0305                  3.7544190157676045
0.0025                    -0.0295                  3.783781163954543
0.0025                    -0.0285                  3.816498879092101
0.0025                    -0.0275                  3.8496953374816387
0.0025                    -0.0265                  3.8829747256327396
0.0025                    -0.0255                  3.916436335517434
0.0025                    -0.0245                  3.9502791475119805
0.0025                    -0.0235                  3.9846729520472963
0.0025                    -0.0225                  4.019725823430522
0.0025                    -0.0215                  4.055619954174023
0.0025                    -0.0205                  4.0923340500464604
0.0025                    -0.0195                  4.130107234236826
0.0025                    -0.0185                  4.168864436468154
0.0025                    -0.0175                  4.208795631490839
0.0025                    -0.0165                  4.249953190703184
0.0025                    -0.0155                  4.292448632869515
0.0025                    -0.0145                  4.336568151396046
0.0025                    -0.0135                  4.382349758876439
0.0025                    -0.0125                  4.430485503872166
0.0025                    -0.0115                  4.481011041763671
0.0025                    -0.0105                  4.534810227978031
0.0025                    -0.0095                  4.592370410152632
0.0025                    -0.0085                  4.654175509338339
0.0025                    -0.0075                  4.718965450941759
0.0025                    -0.0065                  4.780236345271549
0.0025                    -0.0055                  4.823183630594807
0.0025                    -0.0045                  4.849279751339125
0.0025                    -0.0035                  4.857564372596119
0.0025                    -0.0025                  4.8709693218373005
0.0025                    -0.0015                  4.991635999417402
0.0025                    -5.0E-4                  5.116296575232351
0.0025                    5.0E-4                   5.044531518951487
0.0025                    0.0015                   4.8954227214066455
0.0025                    0.0025                   4.85498426924013
0.0025                    0.0035                   4.855909506821629
0.0025                    0.0045                   4.854159106861339
0.0025                    0.0055                   4.844382160072355
0.0025                    0.0065                   4.815637151081383
0.0025                    0.0075                   4.7559763802972155
0.0025                    0.0085                   4.681988860227772
0.0025                    0.0095                   4.606259637896968
0.0025                    0.0105                   4.535185896850926
0.0025                    0.0115                   4.469405838259227
0.0025                    0.0125                   4.408331943208417
0.0025                    0.0135                   4.350372388477966
0.0025                    0.0145                   4.29509234763993
0.0025                    0.0155                   4.241499144541428
0.0025                    0.0165                   4.189413470781039
0.0025                    0.0175                   4.138530821520513
0.0025                    0.0185                   4.088752871573344
0.0025                    0.0195                   4.040108234355857
0.0025                    0.0205                   3.992481227767002
0.0025                    0.0215                   3.9460711082370334
0.0025                    0.0225                   3.9006932728520036
0.0025                    0.0235                   3.856466124653461
0.0025                    0.0245                   3.813231019492486
0.0025                    0.0255                   3.770895737600793
0.0025                    0.0265                   3.729277275438496
0.0025                    0.0275                   3.6880995412424435
0.0025                    0.0285                   3.6472299227971803
0.0025                    0.0295                   3.607067497109087
0.0025                    0.0305                   3.5710868354323004
0.0025                    0.0315                   3.5474280806932215
0.0035                    -0.0315                  3.7057232373935864
0.0035                    -0.0305                  3.722107134635306
0.0035                    -0.0295                  3.7487594723850437
0.0035                    -0.0285                  3.78068928592128
0.0035                    -0.0275                  3.8141285888496683
0.0035                    -0.0265                  3.847865299293237
0.0035                    -0.0255                  3.881579236929438
0.0035                    -0.0245                  3.915365227103823
0.0035                    -0.0235                  3.9494129781557974
0.0035                    -0.0225                  3.9838773205817706
0.0035                    -0.0215                  4.018969098554155
0.0035                    -0.0205                  4.054728794070417
0.0035                    -0.0195                  4.091405599937357
0.0035                    -0.0185                  4.128978043605072
0.0035                    -0.0175                  4.167656039650575
0.0035                    -0.0165                  4.207538554851453
0.0035                    -0.0155                  4.248779951726033
0.0035                    -0.0145                  4.291752415593102
0.0035                    -0.0135                  4.336569829681407
0.0035                    -0.0125                  4.384151759060615
0.0035                    -0.0115                  4.43465026920679
0.0035                    -0.0105                  4.489000481362892
0.0035                    -0.0095                  4.546912354568754
0.0035                    -0.0085                  4.607055838398932
0.0035                    -0.0075                  4.665794519080944
0.0035                    -0.0065                  4.720319524347385
0.0035                    -0.0055                  4.769997238480312
0.0035                    -0.0045                  4.815966963338365
0.0035                    -0.0035                  4.830781011025034
0.0035                    -0.0025                  4.865977331782715
0.0035                    -0.0015                  5.086075235225369
0.0035                    -5.0E-4                  5.245490687970125
0.0035                    5.0E-4                   5.1154098396772865
0.0035                    0.0015                   4.928648115864128
0.0035                    0.0025                   4.878795844618297
0.0035                    0.0035                   4.874652350651788
0.0035                    0.0045                   4.862280194002987
0.0035                    0.0055                   4.8408838123595554
0.0035                    0.0065                   4.800935433563276
0.0035                    0.0075                   4.7345954338686695
0.0035                    0.0085                   4.656734465308388
0.0035                    0.0095                   4.577664102774601
0.0035                    0.0105                   4.503391935666967
0.0035                    0.0115                   4.435004129462184
0.0035                    0.0125                   4.372247235763594
0.0035                    0.0135                   4.313292688935412
0.0035                    0.0145                   4.257511494427129
0.0035                    0.0155                   4.20359401090072
0.0035                    0.0165                   4.151212517939963
0.0035                    0.0175                   4.0999726884839145
0.0035                    0.0185                   4.049752870876521
0.0035                    0.0195                   4.0005899480664935
0.0035                    0.0205                   3.9524017726752225
0.0035                    0.0215                   3.9054138394400377
0.0035                    0.0225                   3.8594610227838624
0.0035                    0.0235                   3.814661429646303
0.0035                    0.0245                   3.7708343692676967
0.0035                    0.0255                   3.727851280995792
0.0035                    0.0265                   3.685504700378556
0.0035                    0.0275                   3.6435974485789178
0.0035                    0.0285                   3.6024899245231925
0.0035                    0.0295                   3.563492652789564
0.0035                    0.0305                   3.5310980129841005
0.0035                    0.0315                   3.5112466678778076
0.0045                    -0.0315                  3.675299031748656
0.0045                    -0.0305                  3.689327095632237
0.0045                    -0.0295                  3.7129988961685343
0.0045                    -0.0285                  3.7427807322578674
0.0045                    -0.0275                  3.7751005887244253
0.0045                    -0.0265                  3.808420315074777
0.0045                    -0.0255                  3.8418455539324983
0.0045                    -0.0245                  3.875236410412318
0.0045                    -0.0235                  3.9086894251822626
0.0045                    -0.0225                  3.942355725196739
0.0045                    -0.0215                  3.9764486800720285
0.0045                    -0.0205                  4.011058827270936
0.0045                    -0.0195                  4.046440310615881
0.0045                    -0.0185                  4.082623699057045
0.0045                    -0.0175                  4.119836708417667
0.0045                    -0.0165                  4.158220032603427
0.0045                    -0.0155                  4.197959104926626
0.0045                    -0.0145                  4.239477252178155
0.0045                    -0.0135                  4.282919387451135
0.0045                    -0.0125                  4.329244752961381
0.0045                    -0.0115                  4.378557926778106
0.0045                    -0.0105                  4.43152821446165
0.0045                    -0.0095                  4.487097606538599
0.0045                    -0.0085                  4.542462971461316
0.0045                    -0.0075                  4.5913986232327115
0.0045                    -0.0065                  4.630119632601707
0.0045                    -0.0055                  4.668083447247289
0.0045                    -0.0045                  4.7090164282233955
0.0045                    -0.0035                  4.695032225282927
0.0045                    -0.0025                  4.696730131229453
0.0045                    -0.0015                  4.914030126877022
0.0045                    -5.0E-4                  5.090064975523624
0.0045                    5.0E-4                   4.991526053194645
0.0045                    0.0015                   4.8681978944218045
0.0045                    0.0025                   4.8683041331974675
0.0045                    0.0035                   4.871752045882321
0.0045                    0.0045                   4.846597528617592
0.0045                    0.0055                   4.810501000818208
0.0045                    0.0065                   4.7580568839766215
0.0045                    0.0075                   4.687956044271696
0.0045                    0.0085                   4.611546023118571
0.0045                    0.0095                   4.53462370493869
0.0045                    0.0105                   4.461300286747216
0.0045                    0.0115                   4.392980586758352
0.0045                    0.0125                   4.329955485909884
0.0045                    0.0135                   4.2706971326909535
0.0045                    0.0145                   4.214611988306535
0.0045                    0.0155                   4.160338103005313
0.0045                    0.0165                   4.107491519331594
0.0045                    0.0175                   4.055669029889233
0.0045                    0.0185                   4.0047677329495475
0.0045                    0.0195                   3.954863935563817
0.0045                    0.0205                   3.9059225114778484
0.0045                    0.0215                   3.8582157697727686
0.0045                    0.0225                   3.8116032937317144
0.0045                    0.0235                   3.7662323897799017
0.0045                    0.0245                   3.721932964591744
0.0045                    0.0255                   3.6786074897526495
0.0045                    0.0265                   3.6361616114606177
0.0045                    0.0275                   3.594620192972742
0.0045                    0.0285                   3.5550191900141783
0.0045                    0.0295                   3.518941174253516
0.0045                    0.0305                   3.4905307482164507
0.0045                    0.0315                   3.4737966184866234
0.0055                    -0.0315                  3.643886148016826
0.0055                    -0.0305                  3.6561021652682757
0.0055                    -0.0295                  3.677089111335318
0.0055                    -0.0285                  3.7041999924482374
0.0055                    -0.0275                  3.734363977170661
0.0055                    -0.0265                  3.766223008676982
0.0055                    -0.0255                  3.798566569138435
0.0055                    -0.0245                  3.8310211928382216
0.0055                    -0.0235                  3.863498179428576
0.0055                    -0.0225                  3.8960777039510024
0.0055                    -0.0215                  3.9289357213075635
0.0055                    -0.0205                  3.962184109450811
0.0055                    -0.0195                  3.996070682890577
0.0055                    -0.0185                  4.030666440960124
0.0055                    -0.0175                  4.066208470627883
0.0055                    -0.0165                  4.1028639700941225
0.0055                    -0.0155                  4.14082507555779
0.0055                    -0.0145                  4.180503027538794
0.0055                    -0.0135                  4.221993998313696
0.0055                    -0.0125                  4.266033745614442
0.0055                    -0.0115                  4.3124574578872945
0.0055                    -0.0105                  4.361386376315603
0.0055                    -0.0095                  4.411521382074959
0.0055                    -0.0085                  4.460083801450194
0.0055                    -0.0075                  4.5007271030407905
0.0055                    -0.0065                  4.5292226594919045
0.0055                    -0.0055                  4.5500382814027125
0.0055                    -0.0045                  4.565467339044938
0.0055                    -0.0035                  4.5385665697842485
0.0055                    -0.0025                  4.525768464130288
0.0055                    -0.0015                  4.618066034459153
0.0055                    -5.0E-4                  4.735955838113451
0.0055                    5.0E-4                   4.721875634090027
0.0055                    0.0015                   4.702885698775685
0.0055                    0.0025                   4.770726070812845
0.0055                    0.0035                   4.797552123401187
0.0055                    0.0045                   4.770467048347537
0.0055                    0.0055                   4.729162907459624
0.0055                    0.0065                   4.676988129498887
0.0055                    0.0075                   4.614227988725732
0.0055                    0.0085                   4.546238763342307
0.0055                    0.0095                   4.47647982899553
0.0055                    0.0105                   4.408393280124752
0.0055                    0.0115                   4.3434384973067335
0.0055                    0.0125                   4.2821994000792545
0.0055                    0.0135                   4.22376270099886
0.0055                    0.0145                   4.167749198115673
0.0055                    0.0155                   4.11312004844072
0.0055                    0.0165                   4.059582767853248
0.0055                    0.0175                   4.006869306745106
0.0055                    0.0185                   3.9549681095172486
0.0055                    0.0195                   3.9040445966729362
0.0055                    0.0205                   3.8541287584311763
0.0055                    0.0215                   3.805568691789709
0.0055                    0.0225                   3.7582544931474704
0.0055                    0.0235                   3.7124114146924296
0.0055                    0.0245                   3.6679301495016094
0.0055                    0.0255                   3.6248304736455075
0.0055                    0.0265                   3.58324253738506
0.0055                    0.0275                   3.543388487890523
0.0055                    0.0285                   3.5066443961526295
0.0055                    0.0295                   3.4742079269152195
0.0055                    0.0305                   3.449484128875289
0.0055                    0.0315                   3.4352472494046795
0.0065                    -0.0315                  3.6117690431562486
0.0065                    -0.0305                  3.622479562955019
0.0065                    -0.0295                  3.641090061967757
0.0065                    -0.0285                  3.6655281343598323
0.0065                    -0.0275                  3.693178604422682
0.0065                    -0.0265                  3.7229633345470683
0.0065                    -0.0255                  3.7536121593109706
0.0065                    -0.0245                  3.7846321136426124
0.0065                    -0.0235                  3.8157600409229353
0.0065                    -0.0225                  3.8469730601058947
0.0065                    -0.0215                  3.8783819627286524
0.0065                    -0.0205                  3.910089341537269
0.0065                    -0.0195                  3.942323494126974
0.0065                    -0.0185                  3.97517872497309
0.0065                    -0.0175                  4.008888642523951
0.0065                    -0.0165                  4.043626524524978
0.0065                    -0.0155                  4.079563899162265
0.0065                    -0.0145                  4.117037329126299
0.0065                    -0.0135                  4.156035522454999
0.0065                    -0.0125                  4.19692078901251
0.0065                    -0.0115                  4.239203279749097
0.0065                    -0.0105                  4.282354769096157
0.0065                    -0.0095                  4.325019500216914
0.0065                    -0.0085                  4.36539380339785
0.0065                    -0.0075                  4.399429685176136
0.0065                    -0.0065                  4.423547772271753
0.0065                    -0.0055                  4.435624861574615
0.0065                    -0.0045                  4.438941213450972
0.0065                    -0.0035                  4.424600876125787
0.0065                    -0.0025                  4.420356690220995
0.0065                    -0.0015                  4.45612319640362
0.0065                    -5.0E-4                  4.531602270010006
0.0065                    5.0E-4                   4.566700843435689
0.0065                    0.0015                   4.581910479590526
0.0065                    0.0025                   4.641701310311168
0.0065                    0.0035                   4.667295851815679
0.0065                    0.0045                   4.644301089782914
0.0065                    0.0055                   4.609889403945877
0.0065                    0.0065                   4.572339948337305
0.0065                    0.0075                   4.524401621470663
0.0065                    0.0085                   4.468513718523253
0.0065                    0.0095                   4.40879179413489
0.0065                    0.0105                   4.348582270979933
0.0065                    0.0115                   4.28921464000874
0.0065                    0.0125                   4.231304340796851