% Model:              Benchmark260518.mph
% Version:            COMSOL 6.2.0.339
% Date:               May 19 2026, 00:14
% Dimension:          2
% Nodes:              4096
% Expressions:        1
% Description:        压力
% Length unit:        m
% x                       y                        p (Pa)
5.0E-4                    -0.0315                  3.990900026137288
5.0E-4                    -0.0305                  4.014428590722845
5.0E-4                    -0.0295                  4.046363298842054
5.0E-4                    -0.0285                  4.081076695784898
5.0E-4                    -0.0275                  4.117286692075653
5.0E-4                    -0.0265                  4.154472857940761
5.0E-4                    -0.0255                  4.192333406184299
5.0E-4                    -0.0245                  4.2307076293604515
5.0E-4                    -0.0235                  4.269467395331811
5.0E-4                    -0.0225                  4.308542844995566
5.0E-4                    -0.0215                  4.3479185983339095
5.0E-4                    -0.0205                  4.387619948788079
5.0E-4                    -0.0195                  4.427715199907372
5.0E-4                    -0.0185                  4.468340439757922
5.0E-4                    -0.0175                  4.5097216393884825
5.0E-4                    -0.0165                  4.552145704656313
5.0E-4                    -0.0155                  4.596099265109973
5.0E-4                    -0.0145                  4.642185357426399
5.0E-4                    -0.0135                  4.689884148761275
5.0E-4                    -0.0125                  4.736515361934446
5.0E-4                    -0.0115                  4.778467942126385
5.0E-4                    -0.0105                  4.810284161910917
5.0E-4                    -0.0095                  4.829098301294947
5.0E-4                    -0.0085                  4.837681398702621
5.0E-4                    -0.0075                  4.838999541271912
5.0E-4                    -0.0065                  4.835387737556631
5.0E-4                    -0.0055                  4.830340706358662
5.0E-4                    -0.0045                  4.828854638480707
5.0E-4                    -0.0035                  4.834349156301735
5.0E-4                    -0.0025                  4.843889242549947
5.0E-4                    -0.0015                  4.846165919992984
5.0E-4                    -5.0E-4                  4.8267635066404715
5.0E-4                    5.0E-4                   4.779489525085905
5.0E-4                    0.0015                   4.712000850306426
5.0E-4                    0.0025                   4.6451560794540745
5.0E-4                    0.0035                   4.602662238085653
5.0E-4                    0.0045                   4.590635493724604
5.0E-4                    0.0055                   4.596007608341491
5.0E-4                    0.0065                   4.621421847979985
5.0E-4                    0.0075                   4.705575127622264
5.0E-4                    0.0085                   4.768901568204579
5.0E-4                    0.0095                   4.76847420981729
5.0E-4                    0.0105                   4.770414241299394
5.0E-4                    0.0115                   4.77481389843749
5.0E-4                    0.0125                   4.779574725629525
5.0E-4                    0.0135                   4.785608628827747
5.0E-4                    0.0145                   4.792280964651027
5.0E-4                    0.0155                   4.796609821596196
5.0E-4                    0.0165                   4.796223062995081
5.0E-4                    0.0175                   4.790278969115315
5.0E-4                    0.0185                   4.7786264982244875
5.0E-4                    0.0195                   4.7618603816270655
5.0E-4                    0.0205                   4.740917272084505
5.0E-4                    0.0215                   4.716827195332417
5.0E-4                    0.0225                   4.690543476937032
5.0E-4                    0.0235                   4.662786893647317
5.0E-4                    0.0245                   4.633999054019339
5.0E-4                    0.0255                   4.604483652855316
5.0E-4                    0.0265                   4.574591463028241
5.0E-4                    0.0275                   4.544742388263844
5.0E-4                    0.0285                   4.515426108207135
5.0E-4                    0.0295                   4.487374703980328
5.0E-4                    0.0305                   4.461934090586807
5.0E-4                    0.0315                   4.443466590587443
0.0015                    -0.0315                  3.9671896072202246
0.0015                    -0.0305                  3.9909918106284517
0.0015                    -0.0295                  4.025580773199726
0.0015                    -0.0285                  4.063416621283147
0.0015                    -0.0275                  4.102346978661157
0.0015                    -0.0265                  4.14177528447095
0.0015                    -0.0255                  4.181451139056904
0.0015                    -0.0245                  4.221237733417594
0.0015                    -0.0235                  4.261044179337974
0.0015                    -0.0225                  4.300803441932418
0.0015                    -0.0215                  4.340480120945218
0.0015                    -0.0205                  4.380075251218198
0.0015                    -0.0195                  4.419641513773832
0.0015                    -0.0185                  4.459314222680672
0.0015                    -0.0175                  4.499354625153386
0.0015                    -0.0165                  4.5402332318779255
0.0015                    -0.0155                  4.582688458073312
0.0015                    -0.0145                  4.627582974705013
0.0015                    -0.0135                  4.675059597347401
0.0015                    -0.0125                  4.7230586257235
0.0015                    -0.0115                  4.768280221143556
0.0015                    -0.0105                  4.803960880050651
0.0015                    -0.0095                  4.826427133614616
0.0015                    -0.0085                  4.837836746219026
0.0015                    -0.0075                  4.839161967326298
0.0015                    -0.0065                  4.8322180449493874
0.0015                    -0.0055                  4.821539699294253
0.0015                    -0.0045                  4.813798416529174
0.0015                    -0.0035                  4.813765781308609
0.0015                    -0.0025                  4.819542355660294
0.0015                    -0.0015                  4.820949466653496
0.0015                    -5.0E-4                  4.803518195125684
0.0015                    5.0E-4                   4.758234197846955
0.0015                    0.0015                   4.690089078131705
0.0015                    0.0025                   4.622184960218997
0.0015                    0.0035                   4.582328930887411
0.0015                    0.0045                   4.574969154205716
0.0015                    0.0055                   4.579763582847248
0.0015                    0.0065                   4.640675456862202
0.0015                    0.0075                   4.778111344876248
0.0015                    0.0085                   4.826309620364955
0.0015                    0.0095                   4.781366336677815
0.0015                    0.0105                   4.770753774528501
0.0015                    0.0115                   4.7764770206994696
0.0015                    0.0125                   4.782211245134764
0.0015                    0.0135                   4.791747477337692
0.0015                    0.0145                   4.803622726346291
0.0015                    0.0155                   4.814410896870336
0.0015                    0.0165                   4.819672269175407
0.0015                    0.0175                   4.816892870244462
0.0015                    0.0185                   4.805798868135385
0.0015                    0.0195                   4.78741324970032
0.0015                    0.0205                   4.763387241060744
0.0015                    0.0215                   4.735413394872779
0.0015                    0.0225                   4.704839974033995
0.0015                    0.0235                   4.672617262380912
0.0015                    0.0245                   4.6393683199941655
0.0015                    0.0255                   4.605516473270862
0.0015                    0.0265                   4.571437409218626
0.0015                    0.0275                   4.537546602789483
0.0015                    0.0285                   4.504365745727432
0.0015                    0.0295                   4.472696952692235
0.0015                    0.0305                   4.444401549032152
0.0015                    0.0315                   4.425286795223131
0.0025                    -0.0315                  3.934522785488526
0.0025                    -0.0305                  3.9565860134998534
0.0025                    -0.0295                  3.991906875262206
0.0025                    -0.0285                  4.032767674602547
0.0025                    -0.0275                  4.075362101509825
0.0025                    -0.0265                  4.118273484700843
0.0025                    -0.0255                  4.160990755660032
0.0025                    -0.0245                  4.203279770239315
0.0025                    -0.0235                  4.245004591301751
0.0025                    -0.0225                  4.286066991879114
0.0025                    -0.0215                  4.326387507940124
0.0025                    -0.0205                  4.365917075066813
0.0025                    -0.0195                  4.404667734648576
0.0025                    -0.0185                  4.442763109105486
0.0025                    -0.0175                  4.480519462013073
0.0025                    -0.0165                  4.518543959699834
0.0025                    -0.0155                  4.5577726260055895
0.0025                    -0.0145                  4.599304159001111
0.0025                    -0.0135                  4.643875359008595
0.0025                    -0.0125                  4.690770163628579
0.0025                    -0.0115                  4.737715645191607
0.0025                    -0.0105                  4.779075820361126
0.0025                    -0.0095                  4.809620656487712
0.0025                    -0.0085                  4.825322796997808
0.0025                    -0.0075                  4.822647748181388
0.0025                    -0.0065                  4.805728134360693
0.0025                    -0.0055                  4.784498167967657
0.0025                    -0.0045                  4.767863866843497
0.0025                    -0.0035                  4.760499962319383
0.0025                    -0.0025                  4.761634417701605
0.0025                    -0.0015                  4.764277368371877
0.0025                    -5.0E-4                  4.756204042525343
0.0025                    5.0E-4                   4.725187907797302
0.0025                    0.0015                   4.669752646514119
0.0025                    0.0025                   4.609633796555382
0.0025                    0.0035                   4.573369516724468
0.0025                    0.0045                   4.569588880457174
0.0025                    0.0055                   4.609457490296487
0.0025                    0.0065                   4.787516958760234
0.0025                    0.0075                   5.00477738915569
0.0025                    0.0085                   4.982435866475422
0.0025                    0.0095                   4.828210280946482
0.0025                    0.0105                   4.771606448257765
0.0025                    0.0115                   4.77794952196202
0.0025                    0.0125                   4.789420251271389
0.0025                    0.0135                   4.8046729600081655
0.0025                    0.0145                   4.823332221016374
0.0025                    0.0155                   4.842364102588602
0.0025                    0.0165                   4.85538438918158
0.0025                    0.0175                   4.857498868770289
0.0025                    0.0185                   4.847888087246705
0.0025                    0.0195                   4.827785350579493
0.0025                    0.0205                   4.799675522203484
0.0025                    0.0215                   4.765986451462928
0.0025                    0.0225                   4.728638335420134
0.0025                    0.0235                   4.689043333558857
0.0025                    0.0245                   4.648200438362242
0.0025                    0.0255                   4.606838599876302
0.0025                    0.0265                   4.565557093927136
0.0025                    0.0275                   4.52495490998048
0.0025                    0.0285                   4.48579282196223
0.0025                    0.0295                   4.449423184969765
0.0025                    0.0305                   4.418916979628289
0.0025                    0.0315                   4.40026769818915
0.0035                    -0.0315                  3.898436341346108
0.0035                    -0.0305                  3.9185115133897748
0.0035                    -0.0295                  3.9527301568874873
0.0035                    -0.0285                  3.9948372676120587
0.0035                    -0.0275                  4.040386362939053
0.0035                    -0.0265                  4.086889683993299
0.0035                    -0.0255                  4.1331504145820315
0.0035                    -0.0245                  4.1785794960829925
0.0035                    -0.0235                  4.222843975435058
0.0035                    -0.0225                  4.265727553691693
0.0035                    -0.0215                  4.307069772743601
0.0035                    -0.0205                  4.346750706496253
0.0035                    -0.0195                  4.384721291457927
0.0035                    -0.0185                  4.42107043305657
0.0035                    -0.0175                  4.456113032533855
0.0035                    -0.0165                  4.49046718968429
0.0035                    -0.0155                  4.525069786186073
0.0035                    -0.0145                  4.5610769859307005
0.0035                    -0.0135                  4.5995857262314335
0.0035                    -0.0125                  4.641463690308553
0.0035                    -0.0115                  4.6864377669518085
0.0035                    -0.0105                  4.731427896711084
0.0035                    -0.0095                  4.768319088062524
0.0035                    -0.0085                  4.784830478394538
0.0035                    -0.0075                  4.775656367538513
0.0035                    -0.0065                  4.749455550137566
0.0035                    -0.0055                  4.720209803790708
0.0035                    -0.0045                  4.698111651149377
0.0035                    -0.0035                  4.687395222095269
0.0035                    -0.0025                  4.687387129751564
0.0035                    -0.0015                  4.6936831214978705
0.0035                    -5.0E-4                  4.699179288396329
0.0035                    5.0E-4                   4.69535242978007
0.0035                    0.0015                   4.676822031476163
0.0035                    0.0025                   4.651628223567874
0.0035                    0.0035                   4.644536328866387
0.0035                    0.0045                   4.692563870630931
0.0035                    0.0055                   4.855414552990156
0.0035                    0.0065                   5.187255185194775
0.0035                    0.0075                   5.436540133139258
0.0035                    0.0085                   5.290063988372097
0.0035                    0.0095                   4.950769326021144
0.0035                    0.0105                   4.783743368447299
0.0035                    0.0115                   4.779903368289616
0.0035                    0.0125                   4.799653100479337
0.0035                    0.0135                   4.824249642429081
0.0035                    0.0145                   4.849960111952947
0.0035                    0.0155                   4.875157997714885
0.0035                    0.0165                   4.893289606618023
0.0035                    0.0175                   4.899269961958025
0.0035                    0.0185                   4.891855543860414
0.0035                    0.0195                   4.871481231867245
0.0035                    0.0205                   4.840353925849877
0.0035                    0.0215                   4.801131827640713
0.0035                    0.0225                   4.756356183535122
0.0035                    0.0235                   4.70813527697529
0.0035                    0.0245                   4.658094090286239
0.0035                    0.0255                   4.607504746946972
0.0035                    0.0265                   4.55744287245523
0.0035                    0.0275                   4.5089523602838195
0.0035                    0.0285                   4.463349013186001
0.0035                    0.0295                   4.422796155737824
0.0035                    0.0305                   4.390878466190516
0.0035                    0.0315                   4.372532923194539
0.0045                    -0.0315                  3.8603595475708334
0.0045                    -0.0305                  3.8788259200128876
0.0045                    -0.0295                  3.9115184903439526
0.0045                    -0.0285                  3.9535477677618833
0.0045                    -0.0275                  4.000806980200552
0.0045                    -0.0265                  4.050268647706206
0.0045                    -0.0255                  4.099989832637097
0.0045                    -0.0245                  4.148805698048684
0.0045                    -0.0235                  4.196003552138202
0.0045                    -0.0225                  4.24112918974799
0.0045                    -0.0215                  4.283884760958104
0.0045                    -0.0205                  4.324067951942941
0.0045                    -0.0195                  4.361560884821867
0.0045                    -0.0185                  4.3963853295602275
0.0045                    -0.0175                  4.428786549699897
0.0045                    -0.0165                  4.45930531866546
0.0045                    -0.0155                  4.488819442329752
0.0045                    -0.0145                  4.5185390645561965
0.0045                    -0.0135                  4.5500719117120845
0.0045                    -0.0125                  4.585204656669265
0.0045                    -0.0115                  4.625200299370212
0.0045                    -0.0105                  4.667958000001955
0.0045                    -0.0095                  4.7040024911713125
0.0045                    -0.0085                  4.718744150410484
0.0045                    -0.0075                  4.707035456545583
0.0045                    -0.0065                  4.679953974487441
0.0045                    -0.0055                  4.6532248144131705
0.0045                    -0.0045                  4.636368382012542
0.0045                    -0.0035                  4.630841185229271
0.0045                    -0.0025                  4.634333296058491
0.0045                    -0.0015                  4.644671973053169
0.0045                    -5.0E-4                  4.660632623900958
0.0045                    5.0E-4                   4.6810246159950974
0.0045                    0.0015                   4.7057264794294476
0.0045                    0.0025                   4.743751702039302
0.0045                    0.0035                   4.8233922335755555
0.0045                    0.0045                   5.003869164686569
0.0045                    0.0055                   5.34793548473223
0.0045                    0.0065                   5.786495562650645
0.0045                    0.0075                   5.989139368475797
0.0045                    0.0085                   5.717950829414255
0.0045                    0.0095                   5.20061244589881
0.0045                    0.0105                   4.866018260767889
0.0045                    0.0115                   4.7986385352489265
0.0045                    0.0125                   4.817356543372369
0.0045                    0.0135                   4.848177384271484
0.0045                    0.0145                   4.880263836670571
0.0045                    0.0155                   4.907912022099235
0.0045                    0.0165                   4.925923813784031
0.0045                    0.0175                   4.933200536080777
0.0045                    0.0185                   4.928233750160201
0.0045                    0.0195                   4.909519126526031
0.0045                    0.0205                   4.87752301640467
0.0045                    0.0215                   4.834392923549972
0.0045                    0.0225                   4.7830198385083875
0.0045                    0.0235                   4.726308976334342
0.0045                    0.0245                   4.666794629899261
0.0045                    0.0255                   4.606583055587322
0.0045                    0.0265                   4.547456387599885
0.0045                    0.0275                   4.491096531780602
0.0045                    0.0285                   4.439465007319405
0.0045                    0.0295                   4.395197991458247
0.0045                    0.0305                   4.361718369959512
0.0045                    0.0315                   4.343097256609339
0.0055                    -0.0315                  3.8207529540031677
0.0055                    -0.0305                  3.8380371607936397
0.0055                    -0.0295                  3.869346714556829
0.0055                    -0.0285                  3.910790134523006
0.0055                    -0.0275                  3.9588210317221275
0.0055                    -0.0265                  4.010405984911166
0.0055                    -0.0255                  4.063153444952588
0.0055                    -0.0245                  4.115317456037011
0.0055                    -0.0235                  4.165674318329362
0.0055                    -0.0225                  4.213395529595182
0.0055                    -0.0215                  4.257960597871307
0.0055                    -0.0205                  4.299075691089595
0.0055                    -0.0195                  4.336583812704651
0.0055                    -0.0185                  4.3704365187646275
0.0055                    -0.0175                  4.400775441746015
0.0055                    -0.0165                  4.428057292793574
0.0055                    -0.0155                  4.45317876461973
0.0055                    -0.0145                  4.477660820075126
0.0055                    -0.0135                  4.50366115628955
0.0055                    -0.0125                  4.5330774533114955
0.0055                    -0.0115                  4.566841007894792
0.0055                    -0.0105                  4.60283575096979
0.0055                    -0.0095                  4.6336722860290305
0.0055                    -0.0085                  4.647375714813258
0.0055                    -0.0075                  4.639538825732613
0.0055                    -0.0065                  4.621876373542194
0.0055                    -0.0055                  4.608620008584234
0.0055                    -0.0045                  4.604534480425759
0.0055                    -0.0035                  4.607639140121034
0.0055                    -0.0025                  4.615913535639445
0.0055                    -0.0015                  4.62972236449828
0.0055                    -5.0E-4                  4.651260718197063
0.0055                    5.0E-4                   4.684564592449879
0.0055                    0.0015                   4.7371881433840235
0.0055                    0.0025                   4.828507954202898
0.0055                    0.0035                   5.0003725477715655
0.0055                    0.0045                   5.310745333619943
0.0055                    0.0055                   5.775010812369148
0.0055                    0.0065                   6.240101206468327
0.0055                    0.0075                   6.388099684186528
0.0055                    0.0085                   6.052367257086946
0.0055                    0.0095                   5.461648866041224
0.0055                    0.0105                   5.01549707593804
0.0055                    0.0115                   4.855048457991241
0.0055                    0.0125                   4.847108863863479
0.0055                    0.0135                   4.87801685880206
0.0055                    0.0145                   4.911561418733418
0.0055                    0.0155                   4.935530209265382
0.0055                    0.0165                   4.950496697846237
0.0055                    0.0175                   4.9565181924542925
0.0055                    0.0185                   4.952668233971119
0.0055                    0.0195                   4.936285780181585
0.0055                    0.0205                   4.905422680396259
0.0055                    0.0215                   4.8606128161161415
0.0055                    0.0225                   4.804383609958094
0.0055                    0.0235                   4.740388086250027
0.0055                    0.0245                   4.67228236806743
0.0055                    0.0255                   4.603220831658131
0.0055                    0.0265                   4.535794714652829
0.0055                    0.0275                   4.472317775388898
0.0055                    0.0285                   4.415216780661527
0.0055                    0.0295                   4.367289772051297
0.0055                    0.0305                   4.331773176007641
0.0055                    0.0315                   4.312337468409574
0.0065                    -0.0315                  3.7797850281367817
0.0065                    -0.0305                  3.796241765088733
0.0065                    -0.0295                  3.8264492014579266
0.0065                    -0.0285                  3.8672202241075455
0.0065                    -0.0275                  3.9155285918035156
0.0065                    -0.0265                  3.9685630083283825
0.0065                    -0.0255                  4.02380535385515
0.0065                    -0.0245                  4.079111319006218
0.0065                    -0.0235                  4.132747551001694
0.0065                    -0.0225                  4.18340380254295
0.0065                    -0.0215                  4.230215624520043
0.0065                    -0.0205                  4.272748330305261
0.0065                    -0.0195                  4.3108801021418985
0.0065                    -0.0185                  4.344589838930896
0.0065                    -0.0175                  4.373922907677007
0.0065                    -0.0165                  4.3992272329000155
0.0065                    -0.0155                  4.421526507084584
0.0065                    -0.0145                  4.44275316048823
0.0065                    -0.0135                  4.464999890416122
0.0065                    -0.0125                  4.489875221045031
0.0065                    -0.0115                  4.517438429524697
0.0065                    -0.0105                  4.54678457288453
0.0065                    -0.0095                  4.573754860867844
0.0065                    -0.0085                  4.58881083274183
0.0065                    -0.0075                  4.5899318901641735
0.0065                    -0.0065                  4.586963094129565
0.0065                    -0.0055                  4.587758217671454
0.0065                    -0.0045                  4.593105322671719
0.0065                    -0.0035                  4.601768261268425
0.0065                    -0.0025                  4.613921266270004
0.0065                    -0.0015                  4.631389258605704
0.0065                    -5.0E-4                  4.6576998618193235
0.0065                    5.0E-4                   4.699092335881799
0.0065                    0.0015                   4.766523069150919
0.0065                    0.0025                   4.882493698556361
0.0065                    0.0035                   5.0936908697849805
0.0065                    0.0045                   5.444673325038605
0.0065                    0.0055                   5.901715289323082
0.0065                    0.0065                   6.2957329497797
0.0065                    0.0075                   6.383328144609804
0.0065                    0.0085                   6.046717109148606
0.0065                    0.0095                   5.501300162519637
0.0065                    0.0105                   5.086087004701595
0.0065                    0.0115                   4.903820446051579
0.0065                    0.0125                   4.872716777604647
0.0065                    0.0135                   4.901866938753084