% Model:              Benchmark260518.mph
% Version:            COMSOL 6.2.0.339
% Date:               May 19 2026, 16:16
% Dimension:          2
% Nodes:              4096
% Expressions:        1
% Description:        压力
% Length unit:        m
% x                       y                        p (Pa)
5.0E-4                    -0.0315                  3.522052015381367
5.0E-4                    -0.0305                  3.55888294796714
5.0E-4                    -0.0295                  3.6091049600281595
5.0E-4                    -0.0285                  3.6637183184063207
5.0E-4                    -0.0275                  3.720865898745545
5.0E-4                    -0.0265                  3.779877232140003
5.0E-4                    -0.0255                  3.840284522530043
5.0E-4                    -0.0245                  3.9017929856278286
5.0E-4                    -0.0235                  3.9641571236594353
5.0E-4                    -0.0225                  4.027170400768204
5.0E-4                    -0.0215                  4.090650457122538
5.0E-4                    -0.0205                  4.1544376474921565
5.0E-4                    -0.0195                  4.218397546589528
5.0E-4                    -0.0185                  4.282427426165407
5.0E-4                    -0.0175                  4.346467187428094
5.0E-4                    -0.0165                  4.410497272405426
5.0E-4                    -0.0155                  4.4745343832845155
5.0E-4                    -0.0145                  4.5386123506243985
5.0E-4                    -0.0135                  4.6028355054185095
5.0E-4                    -0.0125                  4.666244101212622
5.0E-4                    -0.0115                  4.725080851176654
5.0E-4                    -0.0105                  4.774407651518411
5.0E-4                    -0.0095                  4.808658902243545
5.0E-4                    -0.0085                  4.826812898356002
5.0E-4                    -0.0075                  4.834364006783968
5.0E-4                    -0.0065                  4.835998708782892
5.0E-4                    -0.0055                  4.83410548329806
5.0E-4                    -0.0045                  4.830291078921785
5.0E-4                    -0.0035                  4.825830599574591
5.0E-4                    -0.0025                  4.821281319098117
5.0E-4                    -0.0015                  4.815998952120516
5.0E-4                    -5.0E-4                  4.808238908336424
5.0E-4                    5.0E-4                   4.796081247423894
5.0E-4                    0.0015                   4.778348217617423
5.0E-4                    0.0025                   4.756365135442493
5.0E-4                    0.0035                   4.758330611683469
5.0E-4                    0.0045                   4.837710245420547
5.0E-4                    0.0055                   4.967602865187742
5.0E-4                    0.0065                   5.061318081992878
5.0E-4                    0.0075                   5.0956850313637485
5.0E-4                    0.0085                   5.087153571467763
5.0E-4                    0.0095                   5.053415888373102
5.0E-4                    0.0105                   5.013829136515694
5.0E-4                    0.0115                   4.985080704854829
5.0E-4                    0.0125                   4.975529662193599
5.0E-4                    0.0135                   4.97758056730237
5.0E-4                    0.0145                   4.978712022986301
5.0E-4                    0.0155                   4.9736286240010035
5.0E-4                    0.0165                   4.959635973281781
5.0E-4                    0.0175                   4.932994954585632
5.0E-4                    0.0185                   4.894934169996302
5.0E-4                    0.0195                   4.850038449827051
5.0E-4                    0.0205                   4.802359883032689
5.0E-4                    0.0215                   4.755228669075303
5.0E-4                    0.0225                   4.709775961568579
5.0E-4                    0.0235                   4.665872022288102
5.0E-4                    0.0245                   4.623277638834811
5.0E-4                    0.0255                   4.581819266245962
5.0E-4                    0.0265                   4.541387321185339
5.0E-4                    0.0275                   4.501998867612011
5.0E-4                    0.0285                   4.46384050375163
5.0E-4                    0.0295                   4.427338241486226
5.0E-4                    0.0305                   4.3938211218633425
5.0E-4                    0.0315                   4.369174312216762
0.0015                    -0.0315                  3.485000460272018
0.0015                    -0.0305                  3.5219620800595166
0.0015                    -0.0295                  3.5758914673231668
0.0015                    -0.0285                  3.634876319487973
0.0015                    -0.0275                  3.695684132552815
0.0015                    -0.0265                  3.757638005300619
0.0015                    -0.0255                  3.8205404679903667
0.0015                    -0.0245                  3.884272322892744
0.0015                    -0.0235                  3.9487143466626544
0.0015                    -0.0225                  4.013717689663283
0.0015                    -0.0215                  4.079112629653842
0.0015                    -0.0205                  4.144722994044402
0.0015                    -0.0195                  4.210382046037187
0.0015                    -0.0185                  4.275954020598948
0.0015                    -0.0175                  4.341368797657144
0.0015                    -0.0165                  4.406664294443613
0.0015                    -0.0155                  4.472001742338931
0.0015                    -0.0145                  4.537616620203573
0.0015                    -0.0135                  4.603396697289094
0.0015                    -0.0125                  4.6677889210958785
0.0015                    -0.0115                  4.726786932945249
0.0015                    -0.0105                  4.775745077239852
0.0015                    -0.0095                  4.809140308276286
0.0015                    -0.0085                  4.826941247939965
0.0015                    -0.0075                  4.835165164873996
0.0015                    -0.0065                  4.83711260436096
0.0015                    -0.0055                  4.834466396140028
0.0015                    -0.0045                  4.828934557035871
0.0015                    -0.0035                  4.822445116371763
0.0015                    -0.0025                  4.816620153359308
0.0015                    -0.0015                  4.811579300530626
0.0015                    -5.0E-4                  4.805901321891744
0.0015                    5.0E-4                   4.7979449245565045
0.0015                    0.0015                   4.788354048522231
0.0015                    0.0025                   4.78637577039298
0.0015                    0.0035                   4.812778632492207
0.0015                    0.0045                   4.917403522528954
0.0015                    0.0055                   5.058510764744639
0.0015                    0.0065                   5.145060296005354
0.0015                    0.0075                   5.170619074199315
0.0015                    0.0085                   5.14869960061291
0.0015                    0.0095                   5.098455467871603
0.0015                    0.0105                   5.04182480912535
0.0015                    0.0115                   4.9986894045744545
0.0015                    0.0125                   4.981754596959257
0.0015                    0.0135                   4.981409350917307
0.0015                    0.0145                   4.980768085609694
0.0015                    0.0155                   4.974535054667288
0.0015                    0.0165                   4.959277702987267
0.0015                    0.0175                   4.930151437489937
0.0015                    0.0185                   4.888081914847969
0.0015                    0.0195                   4.839195417065316
0.0015                    0.0205                   4.788614040869717
0.0015                    0.0215                   4.7399600940611
0.0015                    0.0225                   4.69405517653653
0.0015                    0.0235                   4.650312851152481
0.0015                    0.0245                   4.607945582810755
0.0015                    0.0255                   4.566374064643798
0.0015                    0.0265                   4.525270517155661
0.0015                    0.0275                   4.484524650897255
0.0015                    0.0285                   4.444250656664096
0.0015                    0.0295                   4.405018356728473
0.0015                    0.0305                   4.369082125696767
0.0015                    0.0315                   4.344324551852037
0.0025                    -0.0315                  3.4341834909157933
0.0025                    -0.0305                  3.4678338599007605
0.0025                    -0.0295                  3.522084454873524
0.0025                    -0.0285                  3.5847930174248357
0.0025                    -0.0275                  3.650196815742359
0.0025                    -0.0265                  3.716496168636538
0.0025                    -0.0255                  3.783348730415224
0.0025                    -0.0245                  3.8507661925502594
0.0025                    -0.0235                  3.918767537858887
0.0025                    -0.0225                  3.9872826917256345
0.0025                    -0.0215                  4.0561479269229785
0.0025                    -0.0205                  4.125142213509793
0.0025                    -0.0195                  4.1940271928838975
0.0025                    -0.0185                  4.262582666187122
0.0025                    -0.0175                  4.330652945366
0.0025                    -0.0165                  4.398211701654226
0.0025                    -0.0155                  4.465393411931087
0.0025                    -0.0145                  4.5322723739986115
0.0025                    -0.0135                  4.5982254523173225
0.0025                    -0.0125                  4.661207920459856
0.0025                    -0.0115                  4.7175089551218425
0.0025                    -0.0105                  4.763898622710611
0.0025                    -0.0095                  4.797621978678713
0.0025                    -0.0085                  4.8193597793720855
0.0025                    -0.0075                  4.831289028761233
0.0025                    -0.0065                  4.832608225546448
0.0025                    -0.0055                  4.82454475438277
0.0025                    -0.0045                  4.8119247666389855
0.0025                    -0.0035                  4.800293604330312
0.0025                    -0.0025                  4.793443219481914
0.0025                    -0.0015                  4.7928444387206675
0.0025                    -5.0E-4                  4.797785445942971
0.0025                    5.0E-4                   4.80752148521438
0.0025                    0.0015                   4.825432638197071
0.0025                    0.0025                   4.863558827297127
0.0025                    0.0035                   4.9427234553857184
0.0025                    0.0045                   5.060648331555182
0.0025                    0.0055                   5.172791953836716
0.0025                    0.0065                   5.239503395433919
0.0025                    0.0075                   5.251880098345314
0.0025                    0.0085                   5.216497328970091
0.0025                    0.0095                   5.150536567350916
0.0025                    0.0105                   5.077929453496959
0.0025                    0.0115                   5.021197576661915
0.0025                    0.0125                   4.992853395244935
0.0025                    0.0135                   4.985616444527437
0.0025                    0.0145                   4.981351899972765
0.0025                    0.0155                   4.969688161280918
0.0025                    0.0165                   4.947522682548155
0.0025                    0.0175                   4.911589911281319
0.0025                    0.0185                   4.86393619567216
0.0025                    0.0195                   4.811445730578967
0.0025                    0.0205                   4.759090073999049
0.0025                    0.0215                   4.710130977103809
0.0025                    0.0225                   4.664774576255159
0.0025                    0.0235                   4.621833112649897
0.0025                    0.0245                   4.579978460887809
0.0025                    0.0255                   4.538228834979759
0.0025                    0.0265                   4.496053724295494
0.0025                    0.0275                   4.45334540028757
0.0025                    0.0285                   4.410500791695698
0.0025                    0.0295                   4.368984729374109
0.0025                    0.0305                   4.332819915614067
0.0025                    0.0315                   4.310132668841115
0.0035                    -0.0315                  3.378728700728241
0.0035                    -0.0305                  3.408538294851072
0.0035                    -0.0295                  3.4599989671474494
0.0035                    -0.0285                  3.5233267699416064
0.0035                    -0.0275                  3.5917721855136477
0.0035                    -0.0265                  3.6620286380329903
0.0035                    -0.0255                  3.73299173575431
0.0035                    -0.0245                  3.8045136168638924
0.0035                    -0.0235                  3.8766789433758464
0.0035                    -0.0225                  3.9494900939826225
0.0035                    -0.0215                  4.022779361404643
0.0035                    -0.0205                  4.0962431997264614
0.0035                    -0.0195                  4.1695164876379955
0.0035                    -0.0185                  4.2422240965591325
0.0035                    -0.0175                  4.313997574041045
0.0035                    -0.0165                  4.384480868811069
0.0035                    -0.0155                  4.453299190060359
0.0035                    -0.0145                  4.519908759704452
0.0035                    -0.0135                  4.583185878946723
0.0035                    -0.0125                  4.641021501423062
0.0035                    -0.0115                  4.691571629792255
0.0035                    -0.0105                  4.734086879857211
0.0035                    -0.0095                  4.769225525632301
0.0035                    -0.0085                  4.796716652535375
0.0035                    -0.0075                  4.810812278492911
0.0035                    -0.0065                  4.806196843833851
0.0035                    -0.0055                  4.786965886450174
0.0035                    -0.0045                  4.763934658743143
0.0035                    -0.0035                  4.7470308131655745
0.0035                    -0.0025                  4.742675895407514
0.0035                    -0.0015                  4.753702784983811
0.0035                    -5.0E-4                  4.779886485840202
0.0035                    5.0E-4                   4.820467002381404
0.0035                    0.0015                   4.8773050839643295
0.0035                    0.0025                   4.955417142666378
0.0035                    0.0035                   5.056581908405338
0.0035                    0.0045                   5.167656161826889
0.0035                    0.0055                   5.2601845179402265
0.0035                    0.0065                   5.311602987898948
0.0035                    0.0075                   5.314320473920999
0.0035                    0.0085                   5.26964378860523
0.0035                    0.0095                   5.19039756551488
0.0035                    0.0105                   5.1018371914740825
0.0035                    0.0115                   5.030729550387401
0.0035                    0.0125                   4.991565003313641
0.0035                    0.0135                   4.9781012981906825
0.0035                    0.0145                   4.969597619518563
0.0035                    0.0155                   4.950133103278822
0.0035                    0.0165                   4.91636463799778
0.0035                    0.0175                   4.870317965753767
0.0035                    0.0185                   4.8176462194307845
0.0035                    0.0195                   4.764768654379182
0.0035                    0.0205                   4.714674037828372
0.0035                    0.0215                   4.668577764455465
0.0035                    0.0225                   4.625720658187161
0.0035                    0.0235                   4.584533947448919
0.0035                    0.0245                   4.5434741648227
0.0035                    0.0255                   4.501482911536561
0.0035                    0.0265                   4.458126039422642
0.0035                    0.0275                   4.413638789239609
0.0035                    0.0285                   4.3691509322116024
0.0035                    0.0295                   4.327291691108535
0.0035                    0.0305                   4.292834059091275
0.0035                    0.0315                   4.272488734714419
0.0045                    -0.0315                  3.3206858187706185
0.0045                    -0.0305                  3.3474806898367104
0.0045                    -0.0295                  3.3955769356637093
0.0045                    -0.0285                  3.457425401935459
0.0045                    -0.0275                  3.526768095848033
0.0045                    -0.0265                  3.599544032525795
0.0045                    -0.0255                  3.673779030077049
0.0045                    -0.0245                  3.7489067083956686
0.0045                    -0.0235                  3.8249763840075715
0.0045                    -0.0225                  3.9020837823048837
0.0045                    -0.0215                  3.980091545031941
0.0045                    -0.0205                  4.058594306150663
0.0045                    -0.0195                  4.137021066728328
0.0045                    -0.0185                  4.214732837193186
0.0045                    -0.0175                  4.291003686716442
0.0045                    -0.0165                  4.364885748209705
0.0045                    -0.0155                  4.4350871592125936
0.0045                    -0.0145                  4.500025675966356
0.0045                    -0.0135                  4.558164979631769
0.0045                    -0.0125                  4.608449125005493
0.0045                    -0.0115                  4.651993487844864
0.0045                    -0.0105                  4.690293927210014
0.0045                    -0.0095                  4.72505055719846
0.0045                    -0.0085                  4.753481401369205
0.0045                    -0.0075                  4.763581287571883
0.0045                    -0.0065                  4.749469336417226
0.0045                    -0.0055                  4.720152087966589
0.0045                    -0.0045                  4.691823373227577
0.0045                    -0.0035                  4.678148069868686
0.0045                    -0.0025                  4.684875898852157
0.0045                    -0.0015                  4.712433687566076
0.0045                    -5.0E-4                  4.760129666481647
0.0045                    5.0E-4                   4.827050243034305
0.0045                    0.0015                   4.911295963330015
0.0045                    0.0025                   5.010171354976736
0.0045                    0.0035                   5.1171924563396365
0.0045                    0.0045                   5.218216069104866
0.0045                    0.0055                   5.2959778566573785
0.0045                    0.0065                   5.337713627243163
0.0045                    0.0075                   5.335909374542113
0.0045                    0.0085                   5.286640522609154
0.0045                    0.0095                   5.196791443562823
0.0045                    0.0105                   5.093059869226757
0.0045                    0.0115                   5.00862522915087
0.0045                    0.0125                   4.9602819976072965
0.0045                    0.0135                   4.941481286735064
0.0045                    0.0145                   4.930075991296568
0.0045                    0.0155                   4.904927035807631
0.0045                    0.0165                   4.860974336300231
0.0045                    0.0175                   4.807044422182416
0.0045                    0.0185                   4.753089584035524
0.0045                    0.0195                   4.703927835853975
0.0045                    0.0205                   4.6598256103222955
0.0045                    0.0215                   4.619376630620627
0.0045                    0.0225                   4.580781257713953
0.0045                    0.0235                   4.54215902599128
0.0045                    0.0245                   4.502075136399383
0.0045                    0.0255                   4.459804196763624
0.0045                    0.0265                   4.415399685388765
0.0045                    0.0275                   4.369754075359727
0.0045                    0.0285                   4.324821290665421
0.0045                    0.0295                   4.283865191420773
0.0045                    0.0305                   4.251428177817322
0.0045                    0.0315                   4.2329495064926626
0.0055                    -0.0315                  3.260719963136409
0.0055                    -0.0305                  3.2853960007917706
0.0055                    -0.0295                  3.3306807805417153
0.0055                    -0.0285                  3.390512528482064
0.0055                    -0.0275                  3.4594145726341834
0.0055                    -0.0265                  3.533256096672801
0.0055                    -0.0255                  3.609501914147286
0.0055                    -0.0245                  3.68712486216739
0.0055                    -0.0235                  3.7660919678359543
0.0055                    -0.0225                  3.8466870150898043
0.0055                    -0.0215                  3.9289636258687755
0.0055                    -0.0205                  4.012500858799176
0.0055                    -0.0195                  4.096462309653353
0.0055                    -0.0185                  4.179772419415203
0.0055                    -0.0175                  4.2611656099776365
0.0055                    -0.0165                  4.33896578782582
0.0055                    -0.0155                  4.410807536836579
0.0055                    -0.0145                  4.473902065210968
0.0055                    -0.0135                  4.526233222870253
0.0055                    -0.0125                  4.568569998195532
0.0055                    -0.0115                  4.604723693930035
0.0055                    -0.0105                  4.6384805605810095
0.0055                    -0.0095                  4.670101969135909
0.0055                    -0.0085                  4.693043242484017
0.0055                    -0.0075                  4.695767870538564
0.0055                    -0.0065                  4.675665481012167
0.0055                    -0.0055                  4.646614526846334
0.0055                    -0.0045                  4.62730747207487
0.0055                    -0.0035                  4.62781780370444
0.0055                    -0.0025                  4.648778540289987
0.0055                    -0.0015                  4.689120879488346
0.0055                    -5.0E-4                  4.7491158811833385
0.0055                    5.0E-4                   4.82790098918638
0.0055                    0.0015                   4.9219074913579055
0.0055                    0.0025                   5.025088034087737
0.0055                    0.0035                   5.128513788462161
0.0055                    0.0045                   5.219988102832952
0.0055                    0.0055                   5.287346656322418
0.0055                    0.0065                   5.321651850093666
0.0055                    0.0075                   5.315779931329407
0.0055                    0.0085                   5.26238976565637
0.0055                    0.0095                   5.164207920233334
0.0055                    0.0105                   5.049819092856673
0.0055                    0.0115                   4.955560411155348
0.0055                    0.0125                   4.897639998699448
0.0055                    0.0135                   4.871887391494103
0.0055                    0.0145                   4.858090408245195
0.0055                    0.0155                   4.831739441587849
0.0055                    0.0165                   4.786009815433314
0.0055                    0.0175                   4.73197886381692
0.0055                    0.0185                   4.68136979056926
0.0055                    0.0195                   4.638193407380246
0.0055                    0.0205                   4.601100081075618
0.0055                    0.0215                   4.5672462690701385
0.0055                    0.0225                   4.53354187265118
0.0055                    0.0235                   4.4977196236245796
0.0055                    0.0245                   4.458590742914371
0.0055                    0.0255                   4.416044788850726
0.0055                    0.0265                   4.370856497691421
0.0055                    0.0275                   4.3246424606341725
0.0055                    0.0285                   4.279917538839406
0.0055                    0.0295                   4.240070893651687
0.0055                    0.0305                   4.209229443346728
0.0055                    0.0315                   4.191991046868601
0.0065                    -0.0315                  3.199204162358945
0.0065                    -0.0305                  3.2223832832034764
0.0065                    -0.0295                  3.26557504721623
0.0065                    -0.0285                  3.323678317618401
0.0065                    -0.0275                  3.3918244335535697
0.0065                    -0.0265                  3.4659833297284064
0.0065                    -0.0255                  3.543261150627252
0.0065                    -0.0245                  3.622179108435994
0.0065                    -0.0235                  3.702583636525156
0.0065                    -0.0225                  3.7850907764431083
0.0065                    -0.0215                  3.870293372277352
0.0065                    -0.0205                  3.9581101455382997
0.0065                    -0.0195                  4.047560818044162
0.0065                    -0.0185                  4.136961422346296
0.0065                    -0.0175                  4.224190353732104
0.0065                    -0.0165                  4.306695762826767
0.0065                    -0.0155                  4.381151090202614
0.0065                    -0.0145                  4.443618772608987
0.0065                    -0.0135                  4.491918030046909
0.0065                    -0.0125                  4.527922839619662
0.0065                    -0.0115                  4.557131396964177
0.0065                    -0.0105                  4.585179670302477
0.0065                    -0.0095                  4.611347366745534
0.0065                    -0.0085                  4.627489428759666
0.0065                    -0.0075                  4.625179933614758
0.0065                    -0.0065                  4.6073606887014975
0.0065                    -0.0055                  4.590695532852834
0.0065                    -0.0045                  4.588609354595171
0.0065                    -0.0035                  4.602296656280604
0.0065                    -0.0025                  4.630645426981564
0.0065                    -0.0015                  4.676713948028042
0.0065                    -5.0E-4                  4.7428102290275245
0.0065                    5.0E-4                   4.82625911143747
0.0065                    0.0015                   4.921387461271953
0.0065                    0.0025                   5.021257692914349
0.0065                    0.0035                   5.117347760439437
0.0065                    0.0045                   5.199602941737052
0.0065                    0.0055                   5.258047311060302
0.0065                    0.0065                   5.284358939599192
0.0065                    0.0075                   5.2709270030553155
0.0065                    0.0085                   5.210001379374422
0.0065                    0.0095                   5.105901762816412
0.0065                    0.0105                   4.989294779566737
0.0065                    0.0115                   4.892829624848522
0.0065                    0.0125                   4.826711788379363