% Model:              Benchmark260518.mph
% Version:            COMSOL 6.2.0.339
% Date:               May 19 2026, 05:41
% Dimension:          2
% Nodes:              4096
% Expressions:        1
% Description:        压力
% Length unit:        m
% x                       y                        p (Pa)
5.0E-4                    -0.0315                  3.3022043468761755
5.0E-4                    -0.0305                  3.329777012606261
5.0E-4                    -0.0295                  3.36724228053132
5.0E-4                    -0.0285                  3.407770796866357
5.0E-4                    -0.0275                  3.449796535886386
5.0E-4                    -0.0265                  3.492978746234081
5.0E-4                    -0.0255                  3.53736808489463
5.0E-4                    -0.0245                  3.5827890219762186
5.0E-4                    -0.0235                  3.6288671809502144
5.0E-4                    -0.0225                  3.6754568988269702
5.0E-4                    -0.0215                  3.722596891242091
5.0E-4                    -0.0205                  3.770329082196422
5.0E-4                    -0.0195                  3.8186859810161096
5.0E-4                    -0.0185                  3.867634586868242
5.0E-4                    -0.0175                  3.9170161254824603
5.0E-4                    -0.0165                  3.966737956712983
5.0E-4                    -0.0155                  4.016843062146276
5.0E-4                    -0.0145                  4.067396523909618
5.0E-4                    -0.0135                  4.118467993396892
5.0E-4                    -0.0125                  4.170054898635403
5.0E-4                    -0.0115                  4.22201694494162
5.0E-4                    -0.0105                  4.274306846417952
5.0E-4                    -0.0095                  4.327183421799451
5.0E-4                    -0.0085                  4.380994447459855
5.0E-4                    -0.0075                  4.435804555095665
5.0E-4                    -0.0065                  4.4913299492685015
5.0E-4                    -0.0055                  4.545922768423427
5.0E-4                    -0.0045                  4.595780036604594
5.0E-4                    -0.0035                  4.636856678133987
5.0E-4                    -0.0025                  4.665103729097343
5.0E-4                    -0.0015                  4.680071205343481
5.0E-4                    -5.0E-4                  4.686208274766747
5.0E-4                    5.0E-4                   4.687269180802774
5.0E-4                    0.0015                   4.6851416063746605
5.0E-4                    0.0025                   4.68094741391518
5.0E-4                    0.0035                   4.675761691719237
5.0E-4                    0.0045                   4.671111440444324
5.0E-4                    0.0055                   4.668807250577877
5.0E-4                    0.0065                   4.6706145785351545
5.0E-4                    0.0075                   4.678004719659663
5.0E-4                    0.0085                   4.691787444163965
5.0E-4                    0.0095                   4.711555830314789
5.0E-4                    0.0105                   4.734777570192582
5.0E-4                    0.0115                   4.7563662252086285
5.0E-4                    0.0125                   4.769699321542735
5.0E-4                    0.0135                   4.769714867816965
5.0E-4                    0.0145                   4.756817847308216
5.0E-4                    0.0155                   4.737098775511092
5.0E-4                    0.0165                   4.716823659693569
5.0E-4                    0.0175                   4.6963779131758585
5.0E-4                    0.0185                   4.677090917196586
5.0E-4                    0.0195                   4.664883144890524
5.0E-4                    0.0205                   4.659893482169331
5.0E-4                    0.0215                   4.66458750580123
5.0E-4                    0.0225                   4.7094028624711015
5.0E-4                    0.0235                   4.811677409089309
5.0E-4                    0.0245                   4.90124753426677
5.0E-4                    0.0255                   4.928884507870401
5.0E-4                    0.0265                   4.933343045397696
5.0E-4                    0.0275                   4.9378850887778105
5.0E-4                    0.0285                   4.940163875123883
5.0E-4                    0.0295                   4.941012444262734
5.0E-4                    0.0305                   4.941217204846645
5.0E-4                    0.0315                   4.941122974854237
0.0015                    -0.0315                  3.2744476022478333
0.0015                    -0.0305                  3.302190640631804
0.0015                    -0.0295                  3.3424884738030656
0.0015                    -0.0285                  3.3862888512969884
0.0015                    -0.0275                  3.4310364789709853
0.0015                    -0.0265                  3.476232026501742
0.0015                    -0.0255                  3.52192917622526
0.0015                    -0.0245                  3.5682365592211704
0.0015                    -0.0235                  3.615137806211236
0.0015                    -0.0225                  3.6626166524990436
0.0015                    -0.0215                  3.7107304051501826
0.0015                    -0.0205                  3.759518371920841
0.0015                    -0.0195                  3.808910617457065
0.0015                    -0.0185                  3.858720515017964
0.0015                    -0.0175                  3.908711453428462
0.0015                    -0.0165                  3.9587264042609016
0.0015                    -0.0155                  4.008791401848339
0.0015                    -0.0145                  4.059087617549945
0.0015                    -0.0135                  4.109844922561159
0.0015                    -0.0125                  4.161252862612861
0.0015                    -0.0115                  4.213434501612232
0.0015                    -0.0105                  4.266515783146544
0.0015                    -0.0095                  4.320701645223131
0.0015                    -0.0085                  4.376193213708733
0.0015                    -0.0075                  4.432963442681865
0.0015                    -0.0065                  4.4903045122314875
0.0015                    -0.0055                  4.5461449588935094
0.0015                    -0.0045                  4.596660895899779
0.0015                    -0.0035                  4.637738534290067
0.0015                    -0.0025                  4.665287595618251
0.0015                    -0.0015                  4.680024185443176
0.0015                    -5.0E-4                  4.686879426769285
0.0015                    5.0E-4                   4.688337251167631
0.0015                    0.0015                   4.685681691983376
0.0015                    0.0025                   4.680219467293398
0.0015                    0.0035                   4.6734505963430095
0.0015                    0.0045                   4.667418618306038
0.0015                    0.0055                   4.664169278455326
0.0015                    0.0065                   4.66501932032879
0.0015                    0.0075                   4.6709356820666
0.0015                    0.0085                   4.68267056545006
0.0015                    0.0095                   4.700052018963329
0.0015                    0.0105                   4.721188196061142
0.0015                    0.0115                   4.742015133435003
0.0015                    0.0125                   4.756686364870838
0.0015                    0.0135                   4.759461551803971
0.0015                    0.0145                   4.7490316571493345
0.0015                    0.0155                   4.73062666383331
0.0015                    0.0165                   4.710833058832201
0.0015                    0.0175                   4.691622943110587
0.0015                    0.0185                   4.674982770011054
0.0015                    0.0195                   4.664692585351293
0.0015                    0.0205                   4.660970434973822
0.0015                    0.0215                   4.657801394081199
0.0015                    0.0225                   4.709952102374495
0.0015                    0.0235                   4.827989012260476
0.0015                    0.0245                   4.914822265348069
0.0015                    0.0255                   4.937814203797855
0.0015                    0.0265                   4.938464207482034
0.0015                    0.0275                   4.940579691575881
0.0015                    0.0285                   4.9417853229291655
0.0015                    0.0295                   4.942141176703567
0.0015                    0.0305                   4.94173040463646
0.0015                    0.0315                   4.941054622738434
0.0025                    -0.0315                  3.2363455382217152
0.0025                    -0.0305                  3.2617174254826846
0.0025                    -0.0295                  3.3023382766858784
0.0025                    -0.0285                  3.3489180622641306
0.0025                    -0.0275                  3.396978256793166
0.0025                    -0.0265                  3.445066115348454
0.0025                    -0.0255                  3.492933321866528
0.0025                    -0.0245                  3.540766147642355
0.0025                    -0.0235                  3.5888981759632697
0.0025                    -0.0225                  3.6376495193213088
0.0025                    -0.0215                  3.6872560666944563
0.0025                    -0.0205                  3.7377933274276836
0.0025                    -0.0195                  3.7890898915895233
0.0025                    -0.0185                  3.8407350565588882
0.0025                    -0.0175                  3.892227941439067
0.0025                    -0.0165                  3.9431921741792646
0.0025                    -0.0155                  3.9935532169277095
0.0025                    -0.0145                  4.043592545618695
0.0025                    -0.0135                  4.093835962734379
0.0025                    -0.0125                  4.144887660283324
0.0025                    -0.0115                  4.197322272532041
0.0025                    -0.0105                  4.251592535411629
0.0025                    -0.0095                  4.307909153901564
0.0025                    -0.0085                  4.366113878570996
0.0025                    -0.0075                  4.425466201763735
0.0025                    -0.0065                  4.484295395417325
0.0025                    -0.0055                  4.539813909921445
0.0025                    -0.0045                  4.588532181662319
0.0025                    -0.0035                  4.627565867537804
0.0025                    -0.0025                  4.655311275421385
0.0025                    -0.0015                  4.6731277336735895
0.0025                    -5.0E-4                  4.682815434604052
0.0025                    5.0E-4                   4.684068978376241
0.0025                    0.0015                   4.678241772542244
0.0025                    0.0025                   4.669006402724674
0.0025                    0.0035                   4.659686055344379
0.0025                    0.0045                   4.652632923349172
0.0025                    0.0055                   4.649451140609716
0.0025                    0.0065                   4.65051977405228
0.0025                    0.0075                   4.655759699849257
0.0025                    0.0085                   4.66519048776275
0.0025                    0.0095                   4.678736895216101
0.0025                    0.0105                   4.695860367430089
0.0025                    0.0115                   4.714689753705218
0.0025                    0.0125                   4.73113815179176
0.0025                    0.0135                   4.739244669709759
0.0025                    0.0145                   4.7351832252291715
0.0025                    0.0155                   4.721158399282462
0.0025                    0.0165                   4.702594483746869
0.0025                    0.0175                   4.684386920439443
0.0025                    0.0185                   4.670535416270342
0.0025                    0.0195                   4.663526070360251
0.0025                    0.0205                   4.6633920977108545
0.0025                    0.0215                   4.681227062653277
0.0025                    0.0225                   4.758096175501544
0.0025                    0.0235                   4.868264925061638
0.0025                    0.0245                   4.933669106450189
0.0025                    0.0255                   4.947952760955916
0.0025                    0.0265                   4.9462242657372615
0.0025                    0.0275                   4.945684716392104
0.0025                    0.0285                   4.9450798637921185
0.0025                    0.0295                   4.94411088108708
0.0025                    0.0305                   4.942377675692305
0.0025                    0.0315                   4.940590547730562
0.0035                    -0.0315                  3.1946237180096047
0.0035                    -0.0305                  3.2171915519985173
0.0035                    -0.0295                  3.255800979163025
0.0035                    -0.0285                  3.3028786229383846
0.0035                    -0.0275                  3.3531353911976716
0.0035                    -0.0265                  3.4038404632954435
0.0035                    -0.0255                  3.453998979480128
0.0035                    -0.0245                  3.5035636855415278
0.0035                    -0.0235                  3.5529811060620267
0.0035                    -0.0225                  3.602889554139368
0.0035                    -0.0215                  3.6538612929821883
0.0035                    -0.0205                  3.7061956553402515
0.0035                    -0.0195                  3.7597755444685452
0.0035                    -0.0185                  3.8140385987701437
0.0035                    -0.0175                  3.868122174389347
0.0035                    -0.0165                  3.9211817699193077
0.0035                    -0.0155                  3.9727693409842075
0.0035                    -0.0145                  4.023069148883702
0.0035                    -0.0135                  4.072903120647165
0.0035                    -0.0125                  4.123472168649083
0.0035                    -0.0115                  4.176006818402336
0.0035                    -0.0105                  4.231439743569258
0.0035                    -0.0095                  4.290062445839052
0.0035                    -0.0085                  4.351170188967625
0.0035                    -0.0075                  4.412757406360061
0.0035                    -0.0065                  4.471640313120462
0.0035                    -0.0055                  4.524235077780542
0.0035                    -0.0045                  4.568315711583932
0.0035                    -0.0035                  4.603832592271772
0.0035                    -0.0025                  4.6323548414997
0.0035                    -0.0015                  4.654196864661992
0.0035                    -5.0E-4                  4.666156671385866
0.0035                    5.0E-4                   4.665893244999433
0.0035                    0.0015                   4.656721591397005
0.0035                    0.0025                   4.644996980503317
0.0035                    0.0035                   4.635640575361379
0.0035                    0.0045                   4.63096530680665
0.0035                    0.0055                   4.6309244126183
0.0035                    0.0065                   4.6344258109092085
0.0035                    0.0075                   4.640436779692532
0.0035                    0.0085                   4.648391190324495
0.0035                    0.0095                   4.658366958242738
0.0035                    0.0105                   4.670983680218843
0.0035                    0.0115                   4.686350489654549
0.0035                    0.0125                   4.7028146941611615
0.0035                    0.0135                   4.716587832238705
0.0035                    0.0145                   4.722535951080596
0.0035                    0.0155                   4.717375137245512
0.0035                    0.0165                   4.702899226617483
0.0035                    0.0175                   4.685685620147279
0.0035                    0.0185                   4.6732185960697885
0.0035                    0.0195                   4.671595859452923
0.0035                    0.0205                   4.685995049218954
0.0035                    0.0215                   4.734277076042474
0.0035                    0.0225                   4.823045622478865
0.0035                    0.0235                   4.909120850823818
0.0035                    0.0245                   4.94993545800735
0.0035                    0.0255                   4.955677674274325
0.0035                    0.0265                   4.953524115258274
0.0035                    0.0275                   4.951629668976861
0.0035                    0.0285                   4.9494570482464155
0.0035                    0.0295                   4.9466047693608
0.0035                    0.0305                   4.942724645600901
0.0035                    0.0315                   4.939256219247238
0.0045                    -0.0315                  3.1508153738629465
0.0045                    -0.0305                  3.1710748777913933
0.0045                    -0.0295                  3.2071693384557136
0.0045                    -0.0285                  3.25318820030907
0.0045                    -0.0275                  3.3041497601176313
0.0045                    -0.0265                  3.356613789706771
0.0045                    -0.0255                  3.4087248837461392
0.0045                    -0.0245                  3.459894747237278
0.0045                    -0.0235                  3.510397555639247
0.0045                    -0.0225                  3.561017131334548
0.0045                    -0.0215                  3.6126993338821096
0.0045                    -0.0205                  3.6661955472664034
0.0045                    -0.0195                  3.7217513048602866
0.0045                    -0.0185                  3.778920927184665
0.0045                    -0.0175                  3.836595509627557
0.0045                    -0.0165                  3.8932946697071014
0.0045                    -0.0155                  3.9477503730113215
0.0045                    -0.0145                  3.999593340246645
0.0045                    -0.0135                  4.049650291388912
0.0045                    -0.0125                  4.0997906645353375
0.0045                    -0.0115                  4.152192167492283
0.0045                    -0.0105                  4.208505104800608
0.0045                    -0.0095                  4.269249252614202
0.0045                    -0.0085                  4.333057627174001
0.0045                    -0.0075                  4.39632010218228
0.0045                    -0.0065                  4.4539705701297825
0.0045                    -0.0055                  4.5020009266670815
0.0045                    -0.0045                  4.540136515758155
0.0045                    -0.0035                  4.5716131940562015
0.0045                    -0.0025                  4.599576251511361
0.0045                    -0.0015                  4.622653902237254
0.0045                    -5.0E-4                  4.634993792687743
0.0045                    5.0E-4                   4.63407143157927
0.0045                    0.0015                   4.625231683359065
0.0045                    0.0025                   4.616330078407401
0.0045                    0.0035                   4.612156270193395
0.0045                    0.0045                   4.61335368222233
0.0045                    0.0055                   4.618179444019826
0.0045                    0.0065                   4.624738164791167
0.0045                    0.0075                   4.631976263286353
0.0045                    0.0085                   4.639615110604864
0.0045                    0.0095                   4.647923689199418
0.0045                    0.0105                   4.657698521889584
0.0045                    0.0115                   4.66986083075086
0.0045                    0.0125                   4.685069843159645
0.0045                    0.0135                   4.702730232460986
0.0045                    0.0145                   4.719301456938682
0.0045                    0.0155                   4.729029270497859
0.0045                    0.0165                   4.729058943714831
0.0045                    0.0175                   4.723436890758024
0.0045                    0.0185                   4.722260196873917
0.0045                    0.0195                   4.735707106006236
0.0045                    0.0205                   4.771319079679663
0.0045                    0.0215                   4.832905932220047
0.0045                    0.0225                   4.899828900948555
0.0045                    0.0235                   4.944891051162611
0.0045                    0.0245                   4.9610334100834725
0.0045                    0.0255                   4.961099264154096
0.0045                    0.0265                   4.959466935095637
0.0045                    0.0275                   4.957102755746684
0.0045                    0.0285                   4.953888584832786
0.0045                    0.0295                   4.948901308170657
0.0045                    0.0305                   4.942139801385416
0.0045                    0.0315                   4.936458748998381
0.0055                    -0.0315                  3.1052607457962873
0.0055                    -0.0305                  3.1238631585637826
0.0055                    -0.0295                  3.157744068263571
0.0055                    -0.0285                  3.2022224318019417
0.0055                    -0.0275                  3.2529336939673517
0.0055                    -0.0265                  3.306335614034269
0.0055                    -0.0255                  3.3599662886282404
0.0055                    -0.0245                  3.4125483435468196
0.0055                    -0.0235                  3.4638888971556305
0.0055                    -0.0225                  3.514659459152227
0.0055                    -0.0215                  3.566084575046627
0.0055                    -0.0205                  3.6195186235253614
0.0055                    -0.0195                  3.675945792622356
0.0055                    -0.0185                  3.735514699159682
0.0055                    -0.0175                  3.7972594410800915
0.0055                    -0.0165                  3.8591763578197944
0.0055                    -0.0155                  3.9187827949571865
0.0055                    -0.0145                  3.9743369313393737
0.0055                    -0.0135                  4.026110018788178
0.0055                    -0.0125                  4.076323871994415
0.0055                    -0.0115                  4.12842469410622
0.0055                    -0.0105                  4.185582387219409
0.0055                    -0.0095                  4.248535637238639
0.0055                    -0.0085                  4.31483890008032
0.0055                    -0.0075                  4.379160012633611
0.0055                    -0.0065                  4.434838108765145
0.0055                    -0.0055                  4.477919472784483
0.0055                    -0.0045                  4.510401299639941
0.0055                    -0.0035                  4.5378715427727325
0.0055                    -0.0025                  4.563366275577923
0.0055                    -0.0015                  4.584899129253447
0.0055                    -5.0E-4                  4.597049599009781
0.0055                    5.0E-4                   4.598108424753238
0.0055                    0.0015                   4.594287044927755
0.0055                    0.0025                   4.592957807537253
0.0055                    0.0035                   4.59658832810448
0.0055                    0.0045                   4.603649509352582
0.0055                    0.0055                   4.612125725535462
0.0055                    0.0065                   4.620801903923258
0.0055                    0.0075                   4.629206924069248
0.0055                    0.0085                   4.637393585827332
0.0055                    0.0095                   4.645805919474216
0.0055                    0.0105                   4.655251335786814
0.0055                    0.0115                   4.666894382880834
0.0055                    0.0125                   4.682413475491348
0.0055                    0.0135                   4.703198426248118
0.0055                    0.0145                   4.728888657816681
0.0055                    0.0155                   4.7565202014505195
0.0055                    0.0165                   4.782940328235922
0.0055                    0.0175                   4.808860829922269
0.0055                    0.0185                   4.839551854537099
0.0055                    0.0195                   4.877218700485785
0.0055                    0.0205                   4.917614885984438
0.0055                    0.0215                   4.950659347982079
0.0055                    0.0225                   4.966519019968458
0.0055                    0.0235                   4.969956088846594
0.0055                    0.0245                   4.968431606524683
0.0055                    0.0255                   4.966141751448084
0.0055                    0.0265                   4.96469888601932
0.0055                    0.0275                   4.96194204999268
0.0055                    0.0285                   4.9575306994784825
0.0055                    0.0295                   4.949967440452902
0.0055                    0.0305                   4.939761299231343
0.0055                    0.0315                   4.931472826522479
0.0065                    -0.0315                  3.05822433210789
0.0065                    -0.0305                  3.075640570942406
0.0065                    -0.0295                  3.1077277629832576
0.0065                    -0.0285                  3.1506872928655554
0.0065                    -0.0275                  3.2007991716942703
0.0065                    -0.0265                  3.254709746652655
0.0065                    -0.0255                  3.309639832628737
0.0065                    -0.0245                  3.363649603920072
0.0065                    -0.0235                  3.4158428723237098
0.0065                    -0.0225                  3.466439235535715
0.0065                    -0.0215                  3.5166752857341694
0.0065                    -0.0205                  3.5684816397710692
0.0065                    -0.0195                  3.623894607884677
0.0065                    -0.0185                  3.6842751744463254
0.0065                    -0.0175                  3.7495158335334855
0.0065                    -0.0165                  3.8175287589833897
0.0065                    -0.0155                  3.8845565459359728
0.0065                    -0.0145                  3.9466439673967693
0.0065                    -0.0135                  4.002175768718033
0.0065                    -0.0125                  4.053169906423948
0.0065                    -0.0115                  4.105430550714048
0.0065                    -0.0105                  4.1645670493585545
0.0065                    -0.0095                  4.230952740225456
0.0065                    -0.0085                  4.300169711281251
0.0065                    -0.0075                  4.365019574066061
0.0065                    -0.0065                  4.418177603178961
0.0065                    -0.0055                  4.456581176502476
0.0065                    -0.0045                  4.484321395552782
0.0065                    -0.0035                  4.507876042108076
0.0065                    -0.0025                  4.53022933937887
0.0065                    -0.0015                  4.54983412548917
0.0065                    -5.0E-4                  4.562291963542501
0.0065                    5.0E-4                   4.567389572000128
0.0065                    0.0015                   4.570896952209717
0.0065                    0.0025                   4.577181137084779
0.0065                    0.0035                   4.586447258622842
0.0065                    0.0045                   4.597226956396279
0.0065                    0.0055                   4.60814642757887
0.0065                    0.0065                   4.618466970396829
0.0065                    0.0075                   4.628049123749623
0.0065                    0.0085                   4.637237397935737
0.0065                    0.0095                   4.646720229229396
0.0065                    0.0105                   4.657499983070019
0.0065                    0.0115                   4.671030353616413
0.0065                    0.0125                   4.689316014633501