% Model:              Benchmark260518.mph
% Version:            COMSOL 6.2.0.339
% Date:               May 19 2026, 07:43
% Dimension:          2
% Nodes:              4096
% Expressions:        1
% Description:        压力
% Length unit:        m
% x                       y                        p (Pa)
5.0E-4                    -0.0315                  4.120637820482555
5.0E-4                    -0.0305                  4.14738269696456
5.0E-4                    -0.0295                  4.183747356185067
5.0E-4                    -0.0285                  4.223259551024542
5.0E-4                    -0.0275                  4.264430360372216
5.0E-4                    -0.0265                  4.306792715663036
5.0E-4                    -0.0255                  4.350033708817574
5.0E-4                    -0.0245                  4.39396375785431
5.0E-4                    -0.0235                  4.438485255906561
5.0E-4                    -0.0225                  4.483564637419054
5.0E-4                    -0.0215                  4.5291957516169115
5.0E-4                    -0.0205                  4.575385244670802
5.0E-4                    -0.0195                  4.622310948118526
5.0E-4                    -0.0185                  4.669832350475323
5.0E-4                    -0.0175                  4.716295892511475
5.0E-4                    -0.0165                  4.758601388964429
5.0E-4                    -0.0155                  4.793239791310674
5.0E-4                    -0.0145                  4.816371718913162
5.0E-4                    -0.0135                  4.827732022659756
5.0E-4                    -0.0125                  4.8312847119391895
5.0E-4                    -0.0115                  4.830034999755725
5.0E-4                    -0.0105                  4.825398628570544
5.0E-4                    -0.0095                  4.817659597743395
5.0E-4                    -0.0085                  4.806563382887595
5.0E-4                    -0.0075                  4.793311766825342
5.0E-4                    -0.0065                  4.7818982604106735
5.0E-4                    -0.0055                  4.777959731044917
5.0E-4                    -0.0045                  4.785142820492616
5.0E-4                    -0.0035                  4.802275769163906
5.0E-4                    -0.0025                  4.822976889507254
5.0E-4                    -0.0015                  4.837867633950289
5.0E-4                    -5.0E-4                  4.839085765995428
5.0E-4                    5.0E-4                   4.825170715419767
5.0E-4                    0.0015                   4.801984807478582
5.0E-4                    0.0025                   4.778590730505908
5.0E-4                    0.0035                   4.761999949998674
5.0E-4                    0.0045                   4.752916401514473
5.0E-4                    0.0055                   4.74675513227357
5.0E-4                    0.0065                   4.738178673745127
5.0E-4                    0.0075                   4.7220749692623745
5.0E-4                    0.0085                   4.693824053174646
5.0E-4                    0.0095                   4.651930807902767
5.0E-4                    0.0105                   4.597836398147226
5.0E-4                    0.0115                   4.533932865426424
5.0E-4                    0.0125                   4.463163170050194
5.0E-4                    0.0135                   4.388951579681956
5.0E-4                    0.0145                   4.315433327698339
5.0E-4                    0.0155                   4.247701959993559
5.0E-4                    0.0165                   4.191364329382759
5.0E-4                    0.0175                   4.152889501410707
5.0E-4                    0.0185                   4.132665886119154
5.0E-4                    0.0195                   4.124074202830952
5.0E-4                    0.0205                   4.126514339245178
5.0E-4                    0.0215                   4.145669685819852
5.0E-4                    0.0225                   4.252230712845006
5.0E-4                    0.0235                   4.536462647079473
5.0E-4                    0.0245                   4.823702275854105
5.0E-4                    0.0255                   4.9291214004074995
5.0E-4                    0.0265                   4.945793752253726
5.0E-4                    0.0275                   4.955392348335797
5.0E-4                    0.0285                   4.9602476341518
5.0E-4                    0.0295                   4.962644481488047
5.0E-4                    0.0305                   4.963808683479529
5.0E-4                    0.0315                   4.964256573339146
0.0015                    -0.0315                  4.093757291745128
0.0015                    -0.0305                  4.120867882022887
0.0015                    -0.0295                  4.160276382064916
0.0015                    -0.0285                  4.20338365122196
0.0015                    -0.0275                  4.247707091303743
0.0015                    -0.0265                  4.292602935593665
0.0015                    -0.0255                  4.337867628636693
0.0015                    -0.0245                  4.383403781709923
0.0015                    -0.0235                  4.4291933963694206
0.0015                    -0.0225                  4.475297095790067
0.0015                    -0.0215                  4.521878940052872
0.0015                    -0.0205                  4.569233742308711
0.0015                    -0.0195                  4.617627638169619
0.0015                    -0.0185                  4.666774719001548
0.0015                    -0.0175                  4.714983480608104
0.0015                    -0.0165                  4.758834433875997
0.0015                    -0.0155                  4.7944563047860305
0.0015                    -0.0145                  4.817794887458676
0.0015                    -0.0135                  4.829249253889417
0.0015                    -0.0125                  4.833243377715443
0.0015                    -0.0115                  4.832214326916466
0.0015                    -0.0105                  4.827289531660071
0.0015                    -0.0095                  4.817950582474676
0.0015                    -0.0085                  4.803102955884395
0.0015                    -0.0075                  4.784321148883548
0.0015                    -0.0065                  4.766667922519102
0.0015                    -0.0055                  4.756837008764341
0.0015                    -0.0045                  4.759408146026034
0.0015                    -0.0035                  4.774059504284622
0.0015                    -0.0025                  4.795178107745482
0.0015                    -0.0015                  4.813551031550658
0.0015                    -5.0E-4                  4.820371671918807
0.0015                    5.0E-4                   4.812346238031678
0.0015                    0.0015                   4.79359675141381
0.0015                    0.0025                   4.772742440924524
0.0015                    0.0035                   4.757561343247274
0.0015                    0.0045                   4.749610976461344
0.0015                    0.0055                   4.7441558666675565
0.0015                    0.0065                   4.736177240513944
0.0015                    0.0075                   4.722570787352179
0.0015                    0.0085                   4.699672445945603
0.0015                    0.0095                   4.663860788643939
0.0015                    0.0105                   4.6139066190232345
0.0015                    0.0115                   4.550974829316569
0.0015                    0.0125                   4.477711459831645
0.0015                    0.0135                   4.397965891369411
0.0015                    0.0145                   4.317322978498988
0.0015                    0.0155                   4.2439140591455145
0.0015                    0.0165                   4.18590533013686
0.0015                    0.0175                   4.149692987281563
0.0015                    0.0185                   4.132424230689948
0.0015                    0.0195                   4.123861648592444
0.0015                    0.0205                   4.117811487995638
0.0015                    0.0215                   4.1038315866266615
0.0015                    0.0225                   4.223309518859997
0.0015                    0.0235                   4.557022522289922
0.0015                    0.0245                   4.852698723080314
0.0015                    0.0255                   4.947311398531122
0.0015                    0.0265                   4.953717034933678
0.0015                    0.0275                   4.960664122421889
0.0015                    0.0285                   4.964418289110265
0.0015                    0.0295                   4.965839913238744
0.0015                    0.0305                   4.965705009487113
0.0015                    0.0315                   4.964981558428933
0.0025                    -0.0315                  4.056659888903442
0.0025                    -0.0305                  4.081965813865358
0.0025                    -0.0295                  4.122423031417794
0.0025                    -0.0285                  4.1691618743054555
0.0025                    -0.0275                  4.217805121313083
0.0025                    -0.0265                  4.266737660200385
0.0025                    -0.0255                  4.315451443087834
0.0025                    -0.0245                  4.363821405442562
0.0025                    -0.0235                  4.411873886086463
0.0025                    -0.0225                  4.459756663504882
0.0025                    -0.0215                  4.507775559765862
0.0025                    -0.0205                  4.556376783464559
0.0025                    -0.0195                  4.605879972708509
0.0025                    -0.0185                  4.655898078561828
0.0025                    -0.0175                  4.704682396607658
0.0025                    -0.0165                  4.748977506611607
0.0025                    -0.0155                  4.785521761593268
0.0025                    -0.0145                  4.811494396914078
0.0025                    -0.0135                  4.827464678706914
0.0025                    -0.0125                  4.835064152064833
0.0025                    -0.0115                  4.833347055309249
0.0025                    -0.0105                  4.821499638904874
0.0025                    -0.0095                  4.7991703043475695
0.0025                    -0.0085                  4.768782368322034
0.0025                    -0.0075                  4.736106725756356
0.0025                    -0.0065                  4.707984627346031
0.0025                    -0.0055                  4.690704983228077
0.0025                    -0.0045                  4.6880356738121485
0.0025                    -0.0035                  4.699872731098137
0.0025                    -0.0025                  4.722008974927445
0.0025                    -0.0015                  4.746973187545514
0.0025                    -5.0E-4                  4.766261956829598
0.0025                    5.0E-4                   4.774164181865478
0.0025                    0.0015                   4.770767173135502
0.0025                    0.0025                   4.76108575965809
0.0025                    0.0035                   4.751539275488443
0.0025                    0.0045                   4.744889328395546
0.0025                    0.0055                   4.738659917935205
0.0025                    0.0065                   4.7301692349648015
0.0025                    0.0075                   4.717774392165477
0.0025                    0.0085                   4.699056710093048
0.0025                    0.0095                   4.670364712474958
0.0025                    0.0105                   4.627843299035858
0.0025                    0.0115                   4.5699875961070076
0.0025                    0.0125                   4.497411456536343
0.0025                    0.0135                   4.413379159909695
0.0025                    0.0145                   4.325905384332403
0.0025                    0.0155                   4.247390006904231
0.0025                    0.0165                   4.1888707150152165
0.0025                    0.0175                   4.154448000619775
0.0025                    0.0185                   4.137441447949157
0.0025                    0.0195                   4.127274815552804
0.0025                    0.0205                   4.117824516843069
0.0025                    0.0215                   4.11361158343148
0.0025                    0.0225                   4.287109718528938
0.0025                    0.0235                   4.6448831026432345
0.0025                    0.0245                   4.9032315831335005
0.0025                    0.0255                   4.972105237331806
0.0025                    0.0265                   4.9702533137638305
0.0025                    0.0275                   4.973515928771474
0.0025                    0.0285                   4.973985081303386
0.0025                    0.0295                   4.972235147466178
0.0025                    0.0305                   4.96880725111617
0.0025                    0.0315                   4.96552014889643
0.0035                    -0.0315                  4.015476899400273
0.0035                    -0.0305                  4.038866626749977
0.0035                    -0.0295                  4.0785566003593
0.0035                    -0.0285                  4.127225056337753
0.0035                    -0.0275                  4.179651829006813
0.0035                    -0.0265                  4.232936545961479
0.0035                    -0.0255                  4.285778051481287
0.0035                    -0.0245                  4.337697748389033
0.0035                    -0.0235                  4.3886062572263675
0.0035                    -0.0225                  4.438617394578225
0.0035                    -0.0215                  4.487973761198489
0.0035                    -0.0205                  4.536978620422654
0.0035                    -0.0195                  4.585842063106705
0.0035                    -0.0185                  4.634233275794184
0.0035                    -0.0175                  4.680740372408899
0.0035                    -0.0165                  4.723712176357644
0.0035                    -0.0155                  4.76120129688798
0.0035                    -0.0145                  4.792196252652575
0.0035                    -0.0135                  4.81584901526032
0.0035                    -0.0125                  4.826481449340898
0.0035                    -0.0115                  4.816866592737605
0.0035                    -0.0105                  4.786422595829365
0.0035                    -0.0095                  4.741220567293327
0.0035                    -0.0085                  4.6901924673860975
0.0035                    -0.0075                  4.642246075372783
0.0035                    -0.0065                  4.604114152339344
0.0035                    -0.0055                  4.580440201852436
0.0035                    -0.0045                  4.573589920369932
0.0035                    -0.0035                  4.58323458002407
0.0035                    -0.0025                  4.606460595058076
0.0035                    -0.0015                  4.638716558563482
0.0035                    -5.0E-4                  4.673618066146302
0.0035                    5.0E-4                   4.703668946736509
0.0035                    0.0015                   4.724211961249853
0.0035                    0.0025                   4.735180926823046
0.0035                    0.0035                   4.739377153859094
0.0035                    0.0045                   4.738644137009359
0.0035                    0.0055                   4.733130457694679
0.0035                    0.0065                   4.723096741040244
0.0035                    0.0075                   4.709476143974802
0.0035                    0.0085                   4.691446296390147
0.0035                    0.0095                   4.6658470573470625
0.0035                    0.0105                   4.629323319534894
0.0035                    0.0115                   4.579123879959566
0.0035                    0.0125                   4.512578120044703
0.0035                    0.0135                   4.430081954392
0.0035                    0.0145                   4.3408888729163
0.0035                    0.0155                   4.260915208884837
0.0035                    0.0165                   4.203100480382092
0.0035                    0.0175                   4.168938197372522
0.0035                    0.0185                   4.1498852459673365
0.0035                    0.0195                   4.134976203849881
0.0035                    0.0205                   4.12587092956155
0.0035                    0.0215                   4.151778422948032
0.0035                    0.0225                   4.377381274471137
0.0035                    0.0235                   4.743339082494144
0.0035                    0.0245                   4.962964621239934
0.0035                    0.0255                   5.006148192811642
0.0035                    0.0265                   4.996329447461839
0.0035                    0.0275                   4.993087830960919
0.0035                    0.0285                   4.988058316055573
0.0035                    0.0295                   4.980992612551649
0.0035                    0.0305                   4.972087034519377
0.0035                    0.0315                   4.964843205510958
0.0045                    -0.0315                  3.971754409595621
0.0045                    -0.0305                  3.9938321895237685
0.0045                    -0.0295                  4.0325901805052435
0.0045                    -0.0285                  4.082089632331294
0.0045                    -0.0275                  4.137312902603089
0.0045                    -0.0265                  4.194579995837843
0.0045                    -0.0255                  4.251648589331685
0.0045                    -0.0245                  4.3073826124332735
0.0045                    -0.0235                  4.36133585505514
0.0045                    -0.0225                  4.413417299378233
0.0045                    -0.0215                  4.463634116962479
0.0045                    -0.0205                  4.511933234199563
0.0045                    -0.0195                  4.558170845914988
0.0045                    -0.0185                  4.602198145345911
0.0045                    -0.0175                  4.643875275790869
0.0045                    -0.0165                  4.684062354195326
0.0045                    -0.0155                  4.72206138972937
0.0045                    -0.0145                  4.757220093616415
0.0045                    -0.0135                  4.784894992796438
0.0045                    -0.0125                  4.790761938815009
0.0045                    -0.0115                  4.764704351704941
0.0045                    -0.0105                  4.711953173919439
0.0045                    -0.0095                  4.646187662368129
0.0045                    -0.0085                  4.580065546869305
0.0045                    -0.0075                  4.523132487034944
0.0045                    -0.0065                  4.481802111588852
0.0045                    -0.0055                  4.458804274811593
0.0045                    -0.0045                  4.4532400093017745
0.0045                    -0.0035                  4.4628966464629105
0.0045                    -0.0025                  4.485741347570182
0.0045                    -0.0015                  4.5201562577644445
0.0045                    -5.0E-4                  4.563760876128523
0.0045                    5.0E-4                   4.6115204914860355
0.0045                    0.0015                   4.656421744092674
0.0045                    0.0025                   4.691881589156283
0.0045                    0.0035                   4.71453759805428
0.0045                    0.0045                   4.724858992250166
0.0045                    0.0055                   4.724604816861667
0.0045                    0.0065                   4.715773336740464
0.0045                    0.0075                   4.700792856172351
0.0045                    0.0085                   4.680915107487447
0.0045                    0.0095                   4.654802160246507
0.0045                    0.0105                   4.620248742610375
0.0045                    0.0115                   4.575566041688862
0.0045                    0.0125                   4.516826468439212
0.0045                    0.0135                   4.441420307847356
0.0045                    0.0145                   4.356864451340462
0.0045                    0.0155                   4.2798620488564705
0.0045                    0.0165                   4.2244969400276835
0.0045                    0.0175                   4.190677842734959
0.0045                    0.0185                   4.1691699531180175
0.0045                    0.0195                   4.1534273257629755
0.0045                    0.0205                   4.143231491140611
0.0045                    0.0215                   4.230148809422245
0.0045                    0.0225                   4.512971241537398
0.0045                    0.0235                   4.844489045994066
0.0045                    0.0245                   5.015504558737604
0.0045                    0.0255                   5.038682026665816
0.0045                    0.0265                   5.025050729552037
0.0045                    0.0275                   5.014790108140895
0.0045                    0.0285                   5.003440064231146
0.0045                    0.0295                   4.989800386425948
0.0045                    0.0305                   4.97389084655575
0.0045                    0.0315                   4.96166084123028
0.0055                    -0.0315                  3.92612873147115
0.0055                    -0.0305                  3.9474408400503855
0.0055                    -0.0295                  3.985685821306687
0.0055                    -0.0285                  4.0358666149089775
0.0055                    -0.0275                  4.093360483771538
0.0055                    -0.0265                  4.154182812322019
0.0055                    -0.0255                  4.215323410248795
0.0055                    -0.0245                  4.274851049550008
0.0055                    -0.0235                  4.331734943865741
0.0055                    -0.0225                  4.38552574391398
0.0055                    -0.0215                  4.435965768045542
0.0055                    -0.0205                  4.482652703550735
0.0055                    -0.0195                  4.5250750782414855
0.0055                    -0.0185                  4.563198468025803
0.0055                    -0.0175                  4.598622457777423
0.0055                    -0.0165                  4.6340985220042255
0.0055                    -0.0155                  4.6709307143415115
0.0055                    -0.0145                  4.706372151410019
0.0055                    -0.0135                  4.729254178290554
0.0055                    -0.0125                  4.722023646644823
0.0055                    -0.0115                  4.678413420814207
0.0055                    -0.0105                  4.60973238318747
0.0055                    -0.0095                  4.532871306167781
0.0055                    -0.0085                  4.463564974069991
0.0055                    -0.0075                  4.412891929695266
0.0055                    -0.0065                  4.383743802277253
0.0055                    -0.0055                  4.3726177446217
0.0055                    -0.0045                  4.374442562095091
0.0055                    -0.0035                  4.385933946265908
0.0055                    -0.0025                  4.406371890009548
0.0055                    -0.0015                  4.436480856978433
0.0055                    -5.0E-4                  4.477439095347377
0.0055                    5.0E-4                   4.528752610160758
0.0055                    0.0015                   4.586247758412577
0.0055                    0.0025                   4.641871118982641
0.0055                    0.0035                   4.684747193400906
0.0055                    0.0045                   4.708458981233344
0.0055                    0.0055                   4.713785216468394
0.0055                    0.0065                   4.706371192186809
0.0055                    0.0075                   4.691383702658993
0.0055                    0.0085                   4.670507563103886
0.0055                    0.0095                   4.642719152873578
0.0055                    0.0105                   4.607352456066089
0.0055                    0.0115                   4.564204827339105
0.0055                    0.0125                   4.50990944776425
0.0055                    0.0135                   4.442618569074719
0.0055                    0.0145                   4.367694582895805
0.0055                    0.0155                   4.298749321913332
0.0055                    0.0165                   4.248004236343515
0.0055                    0.0175                   4.216170050670371
0.0055                    0.0185                   4.194763871763926
0.0055                    0.0195                   4.179893883393875
0.0055                    0.0205                   4.193144476709452
0.0055                    0.0215                   4.357988396190736
0.0055                    0.0225                   4.671290215488173
0.0055                    0.0235                   4.9360083010144065
0.0055                    0.0245                   5.046342693079513
0.0055                    0.0255                   5.0554783193348865
0.0055                    0.0265                   5.046482662663327
0.0055                    0.0275                   5.033833288442579
0.0055                    0.0285                   5.017395157932603
0.0055                    0.0295                   4.9963230917090815
0.0055                    0.0305                   4.9724232957630745
0.0055                    0.0315                   4.9545487371365455
0.0065                    -0.0315                  3.878950424436234
0.0065                    -0.0305                  3.899882613639776
0.0065                    -0.0295                  3.938055780220951
0.0065                    -0.0285                  3.989158119115065
0.0065                    -0.0275                  4.048915101738126
0.0065                    -0.0265                  4.113186269255607
0.0065                    -0.0255                  4.1783347201197865
0.0065                    -0.0245                  4.241615235857706
0.0065                    -0.0235                  4.3012715471722345
0.0065                    -0.0225                  4.356362072650856
0.0065                    -0.0215                  4.406423418598148
0.0065                    -0.0205                  4.4509997475554925
0.0065                    -0.0195                  4.489462076109935
0.0065                    -0.0185                  4.522230269519543
0.0065                    -0.0175                  4.551696330251739
0.0065                    -0.0165                  4.581184024973661
0.0065                    -0.0155                  4.613345115674166
0.0065                    -0.0145                  4.643178788104702
0.0065                    -0.0135                  4.6545501512692695
0.0065                    -0.0125                  4.63232493198037
0.0065                    -0.0115                  4.5761937217449455
0.0065                    -0.0105                  4.501066065282428
0.0065                    -0.0095                  4.4280463362726605
0.0065                    -0.0085                  4.374311593243709
0.0065                    -0.0075                  4.345597126245047
0.0065                    -0.0065                  4.336288715272659
0.0065                    -0.0055                  4.338021424985517
0.0065                    -0.0045                  4.346253092649034
0.0065                    -0.0035                  4.359753450615255
0.0065                    -0.0025                  4.379178101146012
0.0065                    -0.0015                  4.40605328986757
0.0065                    -5.0E-4                  4.442032407793835
0.0065                    5.0E-4                   4.48808221555545
0.0065                    0.0015                   4.543907360195107
0.0065                    0.0025                   4.606817178964062
0.0065                    0.0035                   4.665683589111293
0.0065                    0.0045                   4.705100351269968
0.0065                    0.0055                   4.716795696406617
0.0065                    0.0065                   4.705763161605109
0.0065                    0.0075                   4.684322498245399
0.0065                    0.0085                   4.659453198565177
0.0065                    0.0095                   4.630410059698102
0.0065                    0.0105                   4.594576642733507
0.0065                    0.0115                   4.550844504307858
0.0065                    0.0125                   4.4982627161063835
0.0065                    0.0135                   4.437144444930783