% Model:              Benchmark260518.mph
% Version:            COMSOL 6.2.0.339
% Date:               May 20 2026, 15:23
% Dimension:          2
% Nodes:              4096
% Expressions:        1
% Description:        压力
% Length unit:        m
% x                       y                        p (Pa)
5.0E-4                    -0.0315                  3.667462614591723
5.0E-4                    -0.0305                  3.693658523099505
5.0E-4                    -0.0295                  3.729343018812119
5.0E-4                    -0.0285                  3.7680787681732704
5.0E-4                    -0.0275                  3.8085089821383042
5.0E-4                    -0.0265                  3.85013250312923
5.0E-4                    -0.0255                  3.8926103506676544
5.0E-4                    -0.0245                  3.93574710308979
5.0E-4                    -0.0235                  3.9794180770534746
5.0E-4                    -0.0225                  4.023535828605199
5.0E-4                    -0.0215                  4.068013468636381
5.0E-4                    -0.0205                  4.112776519269877
5.0E-4                    -0.0195                  4.157764386962077
5.0E-4                    -0.0185                  4.202925161044662
5.0E-4                    -0.0175                  4.2482229493103265
5.0E-4                    -0.0165                  4.293640612261481
5.0E-4                    -0.0155                  4.339184916392728
5.0E-4                    -0.0145                  4.384902101063512
5.0E-4                    -0.0135                  4.430873413087705
5.0E-4                    -0.0125                  4.477227161940312
5.0E-4                    -0.0115                  4.524128145103518
5.0E-4                    -0.0105                  4.571743747393866
5.0E-4                    -0.0095                  4.62030126567602
5.0E-4                    -0.0085                  4.669149396123538
5.0E-4                    -0.0075                  4.715294864597942
5.0E-4                    -0.0065                  4.754766759174727
5.0E-4                    -0.0055                  4.783006441298283
5.0E-4                    -0.0045                  4.798792248253534
5.0E-4                    -0.0035                  4.806062683342292
5.0E-4                    -0.0025                  4.808307439130609
5.0E-4                    -0.0015                  4.807195988284414
5.0E-4                    -5.0E-4                  4.803217917208879
5.0E-4                    5.0E-4                   4.795639236602998
5.0E-4                    0.0015                   4.783355737051682
5.0E-4                    0.0025                   4.766685649658713
5.0E-4                    0.0035                   4.748611333684336
5.0E-4                    0.0045                   4.733379036931728
5.0E-4                    0.0055                   4.729182353548046
5.0E-4                    0.0065                   4.769618512914994
5.0E-4                    0.0075                   4.8547991153991985
5.0E-4                    0.0085                   4.909738120280022
5.0E-4                    0.0095                   4.916174367158531
5.0E-4                    0.0105                   4.917742007430072
5.0E-4                    0.0115                   4.922199934923102
5.0E-4                    0.0125                   4.921465327309294
5.0E-4                    0.0135                   4.912108373250515
5.0E-4                    0.0145                   4.890616834012793
5.0E-4                    0.0155                   4.857502748525492
5.0E-4                    0.0165                   4.816818542790119
5.0E-4                    0.0175                   4.772678424152339
5.0E-4                    0.0185                   4.728429075971563
5.0E-4                    0.0195                   4.685288645444775
5.0E-4                    0.0205                   4.643486922593247
5.0E-4                    0.0215                   4.603063164189285
5.0E-4                    0.0225                   4.56391854626311
5.0E-4                    0.0235                   4.525914704518275
5.0E-4                    0.0245                   4.488902713534739
5.0E-4                    0.0255                   4.4527818839852555
5.0E-4                    0.0265                   4.417527773569105
5.0E-4                    0.0275                   4.383183126384868
5.0E-4                    0.0285                   4.349946203340852
5.0E-4                    0.0295                   4.318193064323411
5.0E-4                    0.0305                   4.288996648142696
5.0E-4                    0.0315                   4.267547915477108
0.0015                    -0.0315                  3.6411641701283872
0.0015                    -0.0305                  3.667600629032675
0.0015                    -0.0295                  3.7061865119130326
0.0015                    -0.0285                  3.7483665377111977
0.0015                    -0.0275                  3.79174276137933
0.0015                    -0.0265                  3.8357382464898064
0.0015                    -0.0255                  3.8801450470672436
0.0015                    -0.0245                  3.9248622343148645
0.0015                    -0.0235                  3.969846962294078
0.0015                    -0.0225                  4.015078762268851
0.0015                    -0.0215                  4.060531834051196
0.0015                    -0.0205                  4.106161378152715
0.0015                    -0.0195                  4.151903885624872
0.0015                    -0.0185                  4.197682598369896
0.0015                    -0.0175                  4.243419359508273
0.0015                    -0.0165                  4.289052765992224
0.0015                    -0.0155                  4.334558329677168
0.0015                    -0.0145                  4.379968814716691
0.0015                    -0.0135                  4.425398321009093
0.0015                    -0.0125                  4.471068148992913
0.0015                    -0.0115                  4.517344830060276
0.0015                    -0.0105                  4.564766759700078
0.0015                    -0.0095                  4.6137463792233815
0.0015                    -0.0085                  4.663580542990388
0.0015                    -0.0075                  4.711163995203547
0.0015                    -0.0065                  4.752183430263928
0.0015                    -0.0055                  4.781312329100632
0.0015                    -0.0045                  4.797801037055638
0.0015                    -0.0035                  4.806151078718004
0.0015                    -0.0025                  4.808873061930804
0.0015                    -0.0015                  4.807251803586181
0.0015                    -5.0E-4                  4.802363786629769
0.0015                    5.0E-4                   4.794170302522054
0.0015                    0.0015                   4.781769035417838
0.0015                    0.0025                   4.765265187133855
0.0015                    0.0035                   4.747741808984188
0.0015                    0.0045                   4.736355315574766
0.0015                    0.0055                   4.743393504946884
0.0015                    0.0065                   4.814571312912727
0.0015                    0.0075                   4.913621717635712
0.0015                    0.0085                   4.944854105413846
0.0015                    0.0095                   4.929011142028028
0.0015                    0.0105                   4.922428761732784
0.0015                    0.0115                   4.9264087282536435
0.0015                    0.0125                   4.925747727860694
0.0015                    0.0135                   4.916201573263266
0.0015                    0.0145                   4.892865899737104
0.0015                    0.0155                   4.855534735486013
0.0015                    0.0165                   4.809529674824574
0.0015                    0.0175                   4.760509367569627
0.0015                    0.0185                   4.712861957834889
0.0015                    0.0195                   4.668120341852176
0.0015                    0.0205                   4.626158461620968
0.0015                    0.0215                   4.586353628440379
0.0015                    0.0225                   4.5481005130738605
0.0015                    0.0235                   4.5109099131338075
0.0015                    0.0245                   4.47442610182646
0.0015                    0.0255                   4.4384194959230125
0.0015                    0.0265                   4.402765570711243
0.0015                    0.0275                   4.3674453848748
0.0015                    0.0285                   4.332571235210034
0.0015                    0.0295                   4.298577950846914
0.0015                    0.0305                   4.26738182695093
0.0015                    0.0315                   4.24592895364506
0.0025                    -0.0315                  3.6050727632072572
0.0025                    -0.0305                  3.629385312926537
0.0025                    -0.0295                  3.668630938927749
0.0025                    -0.0285                  3.7140464617047426
0.0025                    -0.0275                  3.7613522441443727
0.0025                    -0.0265                  3.8090529606504706
0.0025                    -0.0255                  3.856707784050064
0.0025                    -0.0245                  3.9042048951740034
0.0025                    -0.0235                  3.951553117786225
0.0025                    -0.0225                  3.998809092991457
0.0025                    -0.0215                  4.0460283851151395
0.0025                    -0.0205                  4.0932247614058355
0.0025                    -0.0195                  4.140348115828871
0.0025                    -0.0185                  4.187287467679669
0.0025                    -0.0175                  4.233895155756276
0.0025                    -0.0165                  4.280026098340641
0.0025                    -0.0155                  4.325582568720797
0.0025                    -0.0145                  4.370557827514235
0.0025                    -0.0135                  4.415080500863374
0.0025                    -0.0125                  4.4594647962186595
0.0025                    -0.0115                  4.504257870022388
0.0025                    -0.0105                  4.550176344728803
0.0025                    -0.0095                  4.597742344588117
0.0025                    -0.0085                  4.646395766637347
0.0025                    -0.0075                  4.693415365302197
0.0025                    -0.0065                  4.735248723625287
0.0025                    -0.0055                  4.76724846339272
0.0025                    -0.0045                  4.788437094978021
0.0025                    -0.0035                  4.80085157691005
0.0025                    -0.0025                  4.803911850277488
0.0025                    -0.0015                  4.799277489822375
0.0025                    -5.0E-4                  4.791470070803745
0.0025                    5.0E-4                   4.783451661860472
0.0025                    0.0015                   4.775867684017313
0.0025                    0.0025                   4.768965058066842
0.0025                    0.0035                   4.766401881161952
0.0025                    0.0045                   4.780914593410099
0.0025                    0.0055                   4.838417303144203
0.0025                    0.0065                   4.944918632599636
0.0025                    0.0075                   5.023495340237062
0.0025                    0.0085                   5.010896057640013
0.0025                    0.0095                   4.9600551304804545
0.0025                    0.0105                   4.936366358728663
0.0025                    0.0115                   4.935224970612938
0.0025                    0.0125                   4.930301707922281
0.0025                    0.0135                   4.914439254912772
0.0025                    0.0145                   4.883870166207266
0.0025                    0.0155                   4.839010594986682
0.0025                    0.0165                   4.786107318891882
0.0025                    0.0175                   4.731660136827287
0.0025                    0.0185                   4.6807725436371355
0.0025                    0.0195                   4.634984952039863
0.0025                    0.0205                   4.5935999892209045
0.0025                    0.0215                   4.555264193391668
0.0025                    0.0225                   4.518715863696739
0.0025                    0.0235                   4.48300125168595
0.0025                    0.0245                   4.447471401162383
0.0025                    0.0255                   4.411725174188274
0.0025                    0.0265                   4.375564266771157
0.0025                    0.0275                   4.3389860715355155
0.0025                    0.0285                   4.302302683757387
0.0025                    0.0295                   4.266703753005634
0.0025                    0.0305                   4.235657165069319
0.0025                    0.0315                   4.216297622445088
0.0035                    -0.0315                  3.5656203835423956
0.0035                    -0.0305                  3.5874244621042806
0.0035                    -0.0295                  3.625142709856716
0.0035                    -0.0285                  3.6716925497795687
0.0035                    -0.0275                  3.7220476285211395
0.0035                    -0.0265                  3.7735221217840875
0.0035                    -0.0255                  3.8249503608465405
0.0035                    -0.0245                  3.8759064305273183
0.0035                    -0.0235                  3.9262950453927816
0.0035                    -0.0225                  3.9761776523949357
0.0035                    -0.0215                  4.025672300352756
0.0035                    -0.0205                  4.074869971703343
0.0035                    -0.0195                  4.123769477464866
0.0035                    -0.0185                  4.1722509274575135
0.0035                    -0.0175                  4.220097349837182
0.0035                    -0.0165                  4.267054441323129
0.0035                    -0.0155                  4.312907681472879
0.0035                    -0.0145                  4.357556536466603
0.0035                    -0.0135                  4.401074543148186
0.0035                    -0.0125                  4.443750094456519
0.0035                    -0.0115                  4.486077423270759
0.0035                    -0.0105                  4.528644597315351
0.0035                    -0.0095                  4.571865926754969
0.0035                    -0.0085                  4.615570178191247
0.0035                    -0.0075                  4.658586669469622
0.0035                    -0.0065                  4.6994895228666405
0.0035                    -0.0055                  4.735307567220062
0.0035                    -0.0045                  4.762989567011014
0.0035                    -0.0035                  4.778642970108422
0.0035                    -0.0025                  4.778613038998661
0.0035                    -0.0015                  4.767717284718272
0.0035                    -5.0E-4                  4.756234710273579
0.0035                    5.0E-4                   4.752012307311135
0.0035                    0.0015                   4.75930544759029
0.0035                    0.0025                   4.7798540028811844
0.0035                    0.0035                   4.817005268681585
0.0035                    0.0045                   4.881172371814741
0.0035                    0.0055                   4.9819169041443345
0.0035                    0.0065                   5.091955692145321
0.0035                    0.0075                   5.139862541632015
0.0035                    0.0085                   5.092470581155098
0.0035                    0.0095                   5.008041538603873
0.0035                    0.0105                   4.957877664473506
0.0035                    0.0115                   4.942354332608796
0.0035                    0.0125                   4.92653363882706
0.0035                    0.0135                   4.897043166796659
0.0035                    0.0145                   4.85319253779781
0.0035                    0.0155                   4.798814429880418
0.0035                    0.0165                   4.7407591790726835
0.0035                    0.0175                   4.684257718495276
0.0035                    0.0185                   4.63343703755868
0.0035                    0.0195                   4.589006769918735
0.0035                    0.0205                   4.549738608399892
0.0035                    0.0215                   4.5138302220666136
0.0035                    0.0225                   4.47959751448759
0.0035                    0.0235                   4.445743488418121
0.0035                    0.0245                   4.41139576949357
0.0035                    0.0255                   4.376062510452877
0.0035                    0.0265                   4.339595151172833
0.0035                    0.0275                   4.302234593101729
0.0035                    0.0285                   4.264882663876595
0.0035                    0.0295                   4.229708624182078
0.0035                    0.0305                   4.2008018850973325
0.0035                    0.0315                   4.183931977717993
0.0045                    -0.0315                  3.524259472683583
0.0045                    -0.0305                  3.5440544820194293
0.0045                    -0.0295                  3.579726602880899
0.0045                    -0.0285                  3.6258591009604326
0.0045                    -0.0275                  3.6778133824440533
0.0045                    -0.0265                  3.7323119608852613
0.0045                    -0.0255                  3.7873901615508556
0.0045                    -0.0245                  3.8420395018071383
0.0045                    -0.0235                  3.8958340756450074
0.0045                    -0.0225                  3.9486919581806332
0.0045                    -0.0215                  4.000723212090685
0.0045                    -0.0205                  4.052096327246256
0.0045                    -0.0195                  4.102910607555053
0.0045                    -0.0185                  4.153104829094899
0.0045                    -0.0175                  4.202437828428613
0.0045                    -0.0165                  4.250548329530147
0.0045                    -0.0155                  4.297063431590308
0.0045                    -0.0145                  4.341709027520437
0.0045                    -0.0135                  4.384383339313084
0.0045                    -0.0125                  4.425171995760368
0.0045                    -0.0115                  4.464306497703772
0.0045                    -0.0105                  4.502090633771905
0.0045                    -0.0095                  4.5388515841230355
0.0045                    -0.0085                  4.574991763603268
0.0045                    -0.0075                  4.611346290233967
0.0045                    -0.0065                  4.648646152505275
0.0045                    -0.0055                  4.685592850126287
0.0045                    -0.0045                  4.716657185240079
0.0045                    -0.0035                  4.732285130357742
0.0045                    -0.0025                  4.728251105562002
0.0045                    -0.0015                  4.713747726127007
0.0045                    -5.0E-4                  4.70401851367101
0.0045                    5.0E-4                   4.709665988614334
0.0045                    0.0015                   4.73631347116879
0.0045                    0.0025                   4.788190656097266
0.0045                    0.0035                   4.867479321998943
0.0045                    0.0045                   4.971767938181805
0.0045                    0.0055                   5.089133956720461
0.0045                    0.0065                   5.185431714973882
0.0045                    0.0075                   5.2108785415246714
0.0045                    0.0085                   5.147489415014323
0.0045                    0.0095                   5.041654517932095
0.0045                    0.0105                   4.962308937081222
0.0045                    0.0115                   4.925432582048643
0.0045                    0.0125                   4.896398872438841
0.0045                    0.0135                   4.852317781289537
0.0045                    0.0145                   4.794967484108522
0.0045                    0.0155                   4.733310255105613
0.0045                    0.0165                   4.67433281914163
0.0045                    0.0175                   4.62083359550019
0.0045                    0.0185                   4.574198377218519
0.0045                    0.0195                   4.533938866199291
0.0045                    0.0205                   4.498474729479938
0.0045                    0.0215                   4.465868169915928
0.0045                    0.0225                   4.434328835934943
0.0045                    0.0235                   4.402460032548698
0.0045                    0.0245                   4.369350301715323
0.0045                    0.0255                   4.334580875701673
0.0045                    0.0265                   4.298231441508614
0.0045                    0.0275                   4.260984163361256
0.0045                    0.0285                   4.224375102216519
0.0045                    0.0295                   4.191055305714357
0.0045                    0.0305                   4.164806349470696
0.0045                    0.0315                   4.1500592630045325
0.0055                    -0.0315                  3.4814701398059587
0.0055                    -0.0305                  3.4997847595153693
0.0055                    -0.0295                  3.533610190385446
0.0055                    -0.0285                  3.578733859457489
0.0055                    -0.0275                  3.6312126332281673
0.0055                    -0.0265                  3.6877917468876236
0.0055                    -0.0255                  3.7460274722772255
0.0055                    -0.0245                  3.8042953527021774
0.0055                    -0.0235                  3.8616551677881104
0.0055                    -0.0225                  3.917689781856457
0.0055                    -0.0215                  3.9723655824369803
0.0055                    -0.0205                  4.025882575301672
0.0055                    -0.0195                  4.0784903084032536
0.0055                    -0.0185                  4.130299955539087
0.0055                    -0.0175                  4.181163451806116
0.0055                    -0.0165                  4.230674530932779
0.0055                    -0.0155                  4.278282334929168
0.0055                    -0.0145                  4.323441403596135
0.0055                    -0.0135                  4.365719529316959
0.0055                    -0.0125                  4.404833798524929
0.0055                    -0.0115                  4.440656392495797
0.0055                    -0.0105                  4.473284358816611
0.0055                    -0.0095                  4.503245387983425
0.0055                    -0.0085                  4.531880547494398
0.0055                    -0.0075                  4.561301732619062
0.0055                    -0.0065                  4.59332757834957
0.0055                    -0.0055                  4.627062299707552
0.0055                    -0.0045                  4.656706043056431
0.0055                    -0.0035                  4.6720820229501205
0.0055                    -0.0025                  4.669800249745697
0.0055                    -0.0015                  4.661575878112677
0.0055                    -5.0E-4                  4.662398846773793
0.0055                    5.0E-4                   4.68019331708099
0.0055                    0.0015                   4.720523920454946
0.0055                    0.0025                   4.790283908744927
0.0055                    0.0035                   4.8892978991319636
0.0055                    0.0045                   5.00495953784746
0.0055                    0.0055                   5.116038094454348
0.0055                    0.0065                   5.192678076266725
0.0055                    0.0075                   5.204030279168732
0.0055                    0.0085                   5.137799456971809
0.0055                    0.0095                   5.021470770833098
0.0055                    0.0105                   4.91919914552753
0.0055                    0.0115                   4.864001153281327
0.0055                    0.0125                   4.825852968841637
0.0055                    0.0135                   4.774509164367781
0.0055                    0.0145                   4.711494436653443
0.0055                    0.0155                   4.6492212718767245
0.0055                    0.0165                   4.594483448493806
0.0055                    0.0175                   4.547699545558711
0.0055                    0.0185                   4.507969851555413
0.0055                    0.0195                   4.473807022852519
0.0055                    0.0205                   4.443314841941361
0.0055                    0.0215                   4.4145548135446155
0.0055                    0.0225                   4.385819859535452
0.0055                    0.0235                   4.355843240277974
0.0055                    0.0245                   4.323899256477951
0.0055                    0.0255                   4.289833138743994
0.0055                    0.0265                   4.2540917595222325
0.0055                    0.0275                   4.2178052208899475
0.0055                    0.0285                   4.18286829666594
0.0055                    0.0295                   4.151908699976881
0.0055                    0.0305                   4.128159998728242
0.0055                    0.0315                   4.115108287592511
0.0065                    -0.0315                  3.437536535281756
0.0065                    -0.0305                  3.4547362665531143
0.0065                    -0.0295                  3.487035243613473
0.0065                    -0.0285                  3.5310584495008586
0.0065                    -0.0275                  3.5835090451457923
0.0065                    -0.0265                  3.641431384996266
0.0065                    -0.0255                  3.7022582608908365
0.0065                    -0.0245                  3.76392030794976
0.0065                    -0.0235                  3.824912349889491
0.0065                    -0.0225                  3.88430563183387
0.0065                    -0.0215                  3.9417251811806486
0.0065                    -0.0205                  3.9972696179730542
0.0065                    -0.0195                  4.051333883214369
0.0065                    -0.0185                  4.1043381477038565
0.0065                    -0.0175                  4.156444643816529
0.0065                    -0.0165                  4.207390140253857
0.0065                    -0.0155                  4.256507282257452
0.0065                    -0.0145                  4.302894040089909
0.0065                    -0.0135                  4.345605435919648
0.0065                    -0.0125                  4.3838156348032005
0.0065                    -0.0115                  4.41700326953288
0.0065                    -0.0105                  4.44526192247797
0.0065                    -0.0095                  4.469756757830898
0.0065                    -0.0085                  4.492875187164679
0.0065                    -0.0075                  4.517116872735638
0.0065                    -0.0065                  4.543903038504663
0.0065                    -0.0055                  4.572375522557924
0.0065                    -0.0045                  4.599164980117735
0.0065                    -0.0035                  4.61663715551281
0.0065                    -0.0025                  4.622249641589047
0.0065                    -0.0015                  4.626169224228228
0.0065                    -5.0E-4                  4.6382398846314015
0.0065                    5.0E-4                   4.663758741846099
0.0065                    0.0015                   4.711034206866662
0.0065                    0.0025                   4.788142809934406
0.0065                    0.0035                   4.8900764133907195
0.0065                    0.0045                   4.998133416547277
0.0065                    0.0055                   5.090362370049761
0.0065                    0.0065                   5.144355246228521
0.0065                    0.0075                   5.140317343099452
0.0065                    0.0085                   5.069101519899905
0.0065                    0.0095                   4.949477844186166
0.0065                    0.0105                   4.839053110921132
0.0065                    0.0115                   4.773670262494161
0.0065                    0.0125                   4.728874577174215