% Model:              Benchmark260518.mph
% Version:            COMSOL 6.2.0.339
% Date:               May 19 2026, 04:11
% Dimension:          2
% Nodes:              4096
% Expressions:        1
% Description:        压力
% Length unit:        m
% x                       y                        p (Pa)
5.0E-4                    -0.0315                  3.6892926349370874
5.0E-4                    -0.0305                  3.7284510444901855
5.0E-4                    -0.0295                  3.7817741299442837
5.0E-4                    -0.0285                  3.8398820239766396
5.0E-4                    -0.0275                  3.9010195237535252
5.0E-4                    -0.0265                  3.964826270728877
5.0E-4                    -0.0255                  4.031296315487964
5.0E-4                    -0.0245                  4.100639399137168
5.0E-4                    -0.0235                  4.17304479078055
5.0E-4                    -0.0225                  4.24854270099312
5.0E-4                    -0.0215                  4.326929219571098
5.0E-4                    -0.0205                  4.407763005786588
5.0E-4                    -0.0195                  4.490359927741279
5.0E-4                    -0.0185                  4.574056959375749
5.0E-4                    -0.0175                  4.657194962183748
5.0E-4                    -0.0165                  4.734588237893366
5.0E-4                    -0.0155                  4.798958045136843
5.0E-4                    -0.0145                  4.842426581953468
5.0E-4                    -0.0135                  4.864085635553185
5.0E-4                    -0.0125                  4.871887101670392
5.0E-4                    -0.0115                  4.872385667302007
5.0E-4                    -0.0105                  4.868636390212144
5.0E-4                    -0.0095                  4.862003727746165
5.0E-4                    -0.0085                  4.8538471437508885
5.0E-4                    -0.0075                  4.846956576112735
5.0E-4                    -0.0065                  4.844378374020742
5.0E-4                    -0.0055                  4.846701679158232
5.0E-4                    -0.0045                  4.85045704429308
5.0E-4                    -0.0035                  4.849343853627692
5.0E-4                    -0.0025                  4.838123634684981
5.0E-4                    -0.0015                  4.815932957363755
5.0E-4                    -5.0E-4                  4.786891662168505
5.0E-4                    5.0E-4                   4.7579931009087275
5.0E-4                    0.0015                   4.7352192260211865
5.0E-4                    0.0025                   4.719363115945418
5.0E-4                    0.0035                   4.717988673862507
5.0E-4                    0.0045                   4.785744954137859
5.0E-4                    0.0055                   4.934765406136428
5.0E-4                    0.0065                   5.068080057349888
5.0E-4                    0.0075                   5.128131923458422
5.0E-4                    0.0085                   5.127257798317995
5.0E-4                    0.0095                   5.086130076615656
5.0E-4                    0.0105                   5.031041416437718
5.0E-4                    0.0115                   4.988488094711764
5.0E-4                    0.0125                   4.9750782190265594
5.0E-4                    0.0135                   4.980670250829773
5.0E-4                    0.0145                   4.987873963366463
5.0E-4                    0.0155                   4.992178034491693
5.0E-4                    0.0165                   4.993589216271134
5.0E-4                    0.0175                   4.990824456904312
5.0E-4                    0.0185                   4.981090302150284
5.0E-4                    0.0195                   4.960556545226128
5.0E-4                    0.0205                   4.92947741016368
5.0E-4                    0.0215                   4.891282315775479
5.0E-4                    0.0225                   4.849083319091859
5.0E-4                    0.0235                   4.805536398888312
5.0E-4                    0.0245                   4.761708002476795
5.0E-4                    0.0255                   4.717789295450294
5.0E-4                    0.0265                   4.673983610792979
5.0E-4                    0.0275                   4.63062695825208
5.0E-4                    0.0285                   4.5881980115098875
5.0E-4                    0.0295                   4.547350689634745
5.0E-4                    0.0305                   4.509659865938298
5.0E-4                    0.0315                   4.481918579065454
0.0015                    -0.0315                  3.6496395506702157
0.0015                    -0.0305                  3.6884889281298703
0.0015                    -0.0295                  3.7447928953747778
0.0015                    -0.0285                  3.8059615411112553
0.0015                    -0.0275                  3.868782058924527
0.0015                    -0.0265                  3.9329711088590935
0.0015                    -0.0255                  3.999062629326482
0.0015                    -0.0245                  4.0679325521935885
0.0015                    -0.0235                  4.140528654623387
0.0015                    -0.0225                  4.217589509495442
0.0015                    -0.0215                  4.299421058876238
0.0015                    -0.0205                  4.385770743401258
0.0015                    -0.0195                  4.475813181159108
0.0015                    -0.0185                  4.56787558536483
0.0015                    -0.0175                  4.658283840113783
0.0015                    -0.0165                  4.740049269836634
0.0015                    -0.0155                  4.805369596070221
0.0015                    -0.0145                  4.846910317035254
0.0015                    -0.0135                  4.866582126066881
0.0015                    -0.0125                  4.874110311188588
0.0015                    -0.0115                  4.874609503472624
0.0015                    -0.0105                  4.869976154287751
0.0015                    -0.0095                  4.860828826452552
0.0015                    -0.0085                  4.8484302452468295
0.0015                    -0.0075                  4.8364903703321485
0.0015                    -0.0065                  4.829353806878619
0.0015                    -0.0055                  4.828843130995869
0.0015                    -0.0045                  4.832414973595588
0.0015                    -0.0035                  4.833879742631828
0.0015                    -0.0025                  4.82684769120991
0.0015                    -0.0015                  4.80869190624375
0.0015                    -5.0E-4                  4.782497370116027
0.0015                    5.0E-4                   4.75559034505343
0.0015                    0.0015                   4.735245637051864
0.0015                    0.0025                   4.727531337257612
0.0015                    0.0035                   4.74403071197937
0.0015                    0.0045                   4.855164146945736
0.0015                    0.0055                   5.039818689216059
0.0015                    0.0065                   5.1786608169647685
0.0015                    0.0075                   5.237433421686831
0.0015                    0.0085                   5.225385821381215
0.0015                    0.0095                   5.164714865279258
0.0015                    0.0105                   5.085267162310409
0.0015                    0.0115                   5.017572607513895
0.0015                    0.0125                   4.98679699535805
0.0015                    0.0135                   4.984932757069176
0.0015                    0.0145                   4.9894034958568465
0.0015                    0.0155                   4.993644859033646
0.0015                    0.0165                   4.9951960107193685
0.0015                    0.0175                   4.99228611342701
0.0015                    0.0185                   4.982680774015074
0.0015                    0.0195                   4.962765188688669
0.0015                    0.0205                   4.932297939129682
0.0015                    0.0215                   4.8943993431399235
0.0015                    0.0225                   4.851691488847301
0.0015                    0.0235                   4.8064581672717335
0.0015                    0.0245                   4.759985167061144
0.0015                    0.0255                   4.712858165511131
0.0015                    0.0265                   4.665372614101543
0.0015                    0.0275                   4.617844355401576
0.0015                    0.0285                   4.570711826928553
0.0015                    0.0295                   4.524828301682669
0.0015                    0.0305                   4.48293813657608
0.0015                    0.0315                   4.454230225633363
0.0025                    -0.0315                  3.5952897407121553
0.0025                    -0.0305                  3.6298384157093784
0.0025                    -0.0295                  3.684859414719827
0.0025                    -0.0285                  3.747396289462932
0.0025                    -0.0275                  3.8115142601446994
0.0025                    -0.0265                  3.8758461397198927
0.0025                    -0.0255                  3.9410837677287445
0.0025                    -0.0245                  4.008897333789567
0.0025                    -0.0235                  4.081394145317809
0.0025                    -0.0225                  4.160563600992592
0.0025                    -0.0215                  4.2477026958436
0.0025                    -0.0205                  4.342916211481128
0.0025                    -0.0195                  4.444620336657628
0.0025                    -0.0185                  4.548839198285808
0.0025                    -0.0175                  4.648597945304214
0.0025                    -0.0165                  4.734562063074637
0.0025                    -0.0155                  4.79948453263694
0.0025                    -0.0145                  4.840657666565532
0.0025                    -0.0135                  4.863317849874855
0.0025                    -0.0125                  4.874010239202093
0.0025                    -0.0115                  4.873095923915978
0.0025                    -0.0105                  4.860546520673031
0.0025                    -0.0095                  4.839057158910692
0.0025                    -0.0085                  4.814080115613091
0.0025                    -0.0075                  4.791979034472758
0.0025                    -0.0065                  4.778050483471521
0.0025                    -0.0055                  4.774698138882574
0.0025                    -0.0045                  4.780499635029725
0.0025                    -0.0035                  4.79073289533099
0.0025                    -0.0025                  4.798651702712019
0.0025                    -0.0015                  4.79910718178904
0.0025                    -5.0E-4                  4.7916447856350075
0.0025                    5.0E-4                   4.78093958826777
0.0025                    0.0015                   4.778149912184577
0.0025                    0.0025                   4.799310697512371
0.0025                    0.0035                   4.87600731130788
0.0025                    0.0045                   5.028028850745264
0.0025                    0.0055                   5.199363211164194
0.0025                    0.0065                   5.3201425202362715
0.0025                    0.0075                   5.368875865579213
0.0025                    0.0085                   5.34523238213625
0.0025                    0.0095                   5.2665335532717235
0.0025                    0.0105                   5.163279582856474
0.0025                    0.0115                   5.069571126523396
0.0025                    0.0125                   5.0119303104802455
0.0025                    0.0135                   4.991964035814332
0.0025                    0.0145                   4.991520845191306
0.0025                    0.0155                   4.995643053420427
0.0025                    0.0165                   4.996751606842725
0.0025                    0.0175                   4.99113288080469
0.0025                    0.0185                   4.977967683288394
0.0025                    0.0195                   4.957066941962535
0.0025                    0.0205                   4.928391683103359
0.0025                    0.0215                   4.892768297314625
0.0025                    0.0225                   4.851110386094835
0.0025                    0.0235                   4.804689434363578
0.0025                    0.0245                   4.754948280997042
0.0025                    0.0255                   4.702973491650598
0.0025                    0.0265                   4.649511344466567
0.0025                    0.0275                   4.5951913115977305
0.0025                    0.0285                   4.540946350723352
0.0025                    0.0295                   4.488858214683575
0.0025                    0.0305                   4.443946515607527
0.0025                    0.0315                   4.416015767712962
0.0035                    -0.0315                  3.5359803620541066
0.0035                    -0.0305                  3.5655725103096327
0.0035                    -0.0295                  3.6158052938489584
0.0035                    -0.0285                  3.6761763770504894
0.0035                    -0.0275                  3.739733344784155
0.0035                    -0.0265                  3.803606750864113
0.0035                    -0.0255                  3.86785629444652
0.0035                    -0.0245                  3.9343800959575415
0.0035                    -0.0235                  4.006255739800922
0.0035                    -0.0225                  4.086924294198111
0.0035                    -0.0215                  4.179064533614583
0.0035                    -0.0205                  4.2833424134818046
0.0035                    -0.0195                  4.397190171417785
0.0035                    -0.0185                  4.51376948406522
0.0035                    -0.0175                  4.622004087601844
0.0035                    -0.0165                  4.71090484782745
0.0035                    -0.0155                  4.7750202199078355
0.0035                    -0.0145                  4.817981358999177
0.0035                    -0.0135                  4.846645221659458
0.0035                    -0.0125                  4.859530631870086
0.0035                    -0.0115                  4.850837974991484
0.0035                    -0.0105                  4.8218966055631025
0.0035                    -0.0095                  4.781946904232234
0.0035                    -0.0085                  4.741437961470325
0.0035                    -0.0075                  4.708678379831092
0.0035                    -0.0065                  4.689518961394118
0.0035                    -0.0055                  4.68615384501797
0.0035                    -0.0045                  4.697598560013899
0.0035                    -0.0035                  4.721831610060005
0.0035                    -0.0025                  4.756146781785688
0.0035                    -0.0015                  4.795440432688873
0.0035                    -5.0E-4                  4.8339035693473384
0.0035                    5.0E-4                   4.869073041688992
0.0035                    0.0015                   4.907794583327457
0.0035                    0.0025                   4.969177696574365
0.0035                    0.0035                   5.074367878980162
0.0035                    0.0045                   5.217630989884669
0.0035                    0.0055                   5.358009622586946
0.0035                    0.0065                   5.4564639507324815
0.0035                    0.0075                   5.493236556361191
0.0035                    0.0085                   5.46055555475381
0.0035                    0.0095                   5.366152135539808
0.0035                    0.0105                   5.236819235281511
0.0035                    0.0115                   5.112527091717235
0.0035                    0.0125                   5.026607848590561
0.0035                    0.0135                   4.987417293023517
0.0035                    0.0145                   4.980568074734794
0.0035                    0.0155                   4.986578688092031
0.0035                    0.0165                   4.990153418009642
0.0035                    0.0175                   4.98249335779989
0.0035                    0.0185                   4.9642565666444884
0.0035                    0.0195                   4.940613884971761
0.0035                    0.0205                   4.913560057559688
0.0035                    0.0215                   4.881397902407239
0.0035                    0.0225                   4.8426761764214135
0.0035                    0.0235                   4.797020219530472
0.0035                    0.0245                   4.745136025342306
0.0035                    0.0255                   4.688528667462016
0.0035                    0.0265                   4.628595992734532
0.0035                    0.0275                   4.566798202095891
0.0035                    0.0285                   4.505296814043881
0.0035                    0.0295                   4.447932731797086
0.0035                    0.0305                   4.401097736801399
0.0035                    0.0315                   4.37355707264784
0.0045                    -0.0315                  3.4738503343414284
0.0045                    -0.0305                  3.499400893889385
0.0045                    -0.0295                  3.544409277423067
0.0045                    -0.0285                  3.600835981502426
0.0045                    -0.0275                  3.6624001811091924
0.0045                    -0.0265                  3.7255398961253263
0.0045                    -0.0255                  3.7894045403717795
0.0045                    -0.0245                  3.8553863076083923
0.0045                    -0.0235                  3.9266649837797276
0.0045                    -0.0225                  4.007718532686877
0.0045                    -0.0215                  4.102796247451417
0.0045                    -0.0205                  4.213751820046264
0.0045                    -0.0195                  4.337724231865767
0.0045                    -0.0185                  4.465200048872425
0.0045                    -0.0175                  4.581032715195955
0.0045                    -0.0165                  4.672395921099779
0.0045                    -0.0155                  4.7357194699512615
0.0045                    -0.0145                  4.779449975426162
0.0045                    -0.0135                  4.8101265031574725
0.0045                    -0.0125                  4.818870835523755
0.0045                    -0.0115                  4.797431738682425
0.0045                    -0.0105                  4.752043501014263
0.0045                    -0.0095                  4.697634961046857
0.0045                    -0.0085                  4.648985314880148
0.0045                    -0.0075                  4.616282651097386
0.0045                    -0.0065                  4.602558492174225
0.0045                    -0.0055                  4.605981773910552
0.0045                    -0.0045                  4.625056193298759
0.0045                    -0.0035                  4.661515994513017
0.0045                    -0.0025                  4.720083130218314
0.0045                    -0.0015                  4.803012158102877
0.0045                    -5.0E-4                  4.9027523782834885
0.0045                    5.0E-4                   5.001852964057841
0.0045                    0.0015                   5.088561448146468
0.0045                    0.0025                   5.171086749012136
0.0045                    0.0035                   5.265991066208324
0.0045                    0.0045                   5.374232328469346
0.0045                    0.0055                   5.477047434691819
0.0045                    0.0065                   5.551115464652794
0.0045                    0.0075                   5.576333687439489
0.0045                    0.0085                   5.537369883043466
0.0045                    0.0095                   5.429387282995922
0.0045                    0.0105                   5.272666633097569
0.0045                    0.0115                   5.11658828480129
0.0045                    0.0125                   5.005313907938778
0.0045                    0.0135                   4.95036923384938
0.0045                    0.0145                   4.938716101288058
0.0045                    0.0155                   4.948832575967715
0.0045                    0.0165                   4.9601946210903805
0.0045                    0.0175                   4.958159524014542
0.0045                    0.0185                   4.940508672410866
0.0045                    0.0195                   4.915493303369941
0.0045                    0.0205                   4.889225497618476
0.0045                    0.0215                   4.860021630880027
0.0045                    0.0225                   4.824932159115167
0.0045                    0.0235                   4.781924597969763
0.0045                    0.0245                   4.7299112571837885
0.0045                    0.0255                   4.6701289583973375
0.0045                    0.0265                   4.604598382722841
0.0045                    0.0275                   4.535985468962982
0.0045                    0.0285                   4.46798129080652
0.0045                    0.0295                   4.405845000840521
0.0045                    0.0305                   4.356493062516892
0.0045                    0.0315                   4.328111518207948
0.0055                    -0.0315                  3.4094971402810135
0.0055                    -0.0305                  3.431975822622242
0.0055                    -0.0295                  3.4727046852350867
0.0055                    -0.0285                  3.525659580130838
0.0055                    -0.0275                  3.5855671826088042
0.0055                    -0.0265                  3.648830049767557
0.0055                    -0.0255                  3.7138441785157887
0.0055                    -0.0245                  3.7811593866305966
0.0055                    -0.0235                  3.8532416746103335
0.0055                    -0.0225                  3.9341364528963414
0.0055                    -0.0215                  4.029426970161927
0.0055                    -0.0205                  4.143478485185432
0.0055                    -0.0195                  4.274407841400321
0.0055                    -0.0185                  4.4106268679858855
0.0055                    -0.0175                  4.533039138218951
0.0055                    -0.0165                  4.625822610219083
0.0055                    -0.0155                  4.688140675738442
0.0055                    -0.0145                  4.730738524013544
0.0055                    -0.0135                  4.757378904024462
0.0055                    -0.0125                  4.757465705661197
0.0055                    -0.0115                  4.724585474373883
0.0055                    -0.0105                  4.669649518756651
0.0055                    -0.0095                  4.61340113124934
0.0055                    -0.0085                  4.573610317241212
0.0055                    -0.0075                  4.555883856787103
0.0055                    -0.0065                  4.555939073724602
0.0055                    -0.0055                  4.568722842919934
0.0055                    -0.0045                  4.594044618890012
0.0055                    -0.0035                  4.637434194055419
0.0055                    -0.0025                  4.710197502659812
0.0055                    -0.0015                  4.824882058507597
0.0055                    -5.0E-4                  4.975918467556517
0.0055                    5.0E-4                   5.128143244652246
0.0055                    0.0015                   5.246070616341752
0.0055                    0.0025                   5.327480493372899
0.0055                    0.0035                   5.394954712321125
0.0055                    0.0045                   5.465222808577906
0.0055                    0.0055                   5.5344183733892915
0.0055                    0.0065                   5.5856829009440805
0.0055                    0.0075                   5.599330000785133
0.0055                    0.0085                   5.555360818194976
0.0055                    0.0095                   5.437481720780494
0.0055                    0.0105                   5.259754942134515
0.0055                    0.0115                   5.081465315932654
0.0055                    0.0125                   4.955267179995715
0.0055                    0.0135                   4.889227265577189
0.0055                    0.0145                   4.8702680790572135
0.0055                    0.0155                   4.881723294027204
0.0055                    0.0165                   4.902400411337021
0.0055                    0.0175                   4.912698037396391
0.0055                    0.0185                   4.904348256644343
0.0055                    0.0195                   4.882644404591362
0.0055                    0.0205                   4.85709546139306
0.0055                    0.0215                   4.8300856780258234
0.0055                    0.0225                   4.798765371765131
0.0055                    0.0235                   4.759548152081977
0.0055                    0.0245                   4.709496461167753
0.0055                    0.0255                   4.648439700551381
0.0055                    0.0265                   4.578846052018818
0.0055                    0.0275                   4.50454160543304
0.0055                    0.0285                   4.430595266588228
0.0055                    0.0295                   4.363345941493158
0.0055                    0.0305                   4.310297051165103
0.0055                    0.0315                   4.2799371916834685
0.0065                    -0.0315                  3.3431912977758875
0.0065                    -0.0305                  3.363021107919529
0.0065                    -0.0295                  3.4006177346506057
0.0065                    -0.0285                  3.4519013725360668
0.0065                    -0.0275                  3.512335732572617
0.0065                    -0.0265                  3.57793814208319
0.0065                    -0.0255                  3.646432521640331
0.0065                    -0.0245                  3.7171213262638636
0.0065                    -0.0235                  3.791290979749789
0.0065                    -0.0225                  3.8720763011482426
0.0065                    -0.0215                  3.96619159194623
0.0065                    -0.0205                  4.081025274392772
0.0065                    -0.0195                  4.216019229542564
0.0065                    -0.0185                  4.358817172544462
0.0065                    -0.0175                  4.48681428852136
0.0065                    -0.0165                  4.5808424605661076
0.0065                    -0.0155                  4.642292085240917
0.0065                    -0.0145                  4.6836555090480125
0.0065                    -0.0135                  4.705201711732338
0.0065                    -0.0125                  4.696167521599155
0.0065                    -0.0115                  4.65477602404247
0.0065                    -0.0105                  4.599604727465561
0.0065                    -0.0095                  4.556048596151555
0.0065                    -0.0085                  4.5355077718282155
0.0065                    -0.0075                  4.533370390498414
0.0065                    -0.0065                  4.542215462521599
0.0065                    -0.0055                  4.560127730784121
0.0065                    -0.0045                  4.589919450647705
0.0065                    -0.0035                  4.639544607832111
0.0065                    -0.0025                  4.725366938190164
0.0065                    -0.0015                  4.86335942329459
0.0065                    -5.0E-4                  5.041916442233582
0.0065                    5.0E-4                   5.214476346475747
0.0065                    0.0015                   5.337054102933443
0.0065                    0.0025                   5.405195630863842
0.0065                    0.0035                   5.447239761665187
0.0065                    0.0045                   5.489938120427445
0.0065                    0.0055                   5.536271245013416
0.0065                    0.0065                   5.571407640057864
0.0065                    0.0075                   5.576156477117889
0.0065                    0.0085                   5.528349665811992
0.0065                    0.0095                   5.405046295183405
0.0065                    0.0105                   5.218516610177993
0.0065                    0.0115                   5.034088425568153
0.0065                    0.0125                   4.906477431246633