% Model:              Benchmark260518.mph
% Version:            COMSOL 6.2.0.339
% Date:               May 19 2026, 22:54
% Dimension:          2
% Nodes:              4096
% Expressions:        1
% Description:        压力
% Length unit:        m
% x                       y                        p (Pa)
5.0E-4                    -0.0315                  3.6852463286151225
5.0E-4                    -0.0305                  3.704478689315159
5.0E-4                    -0.0295                  3.7306776799194004
5.0E-4                    -0.0285                  3.7592017852868786
5.0E-4                    -0.0275                  3.789074930316154
5.0E-4                    -0.0265                  3.819964657080205
5.0E-4                    -0.0255                  3.8516720369961446
5.0E-4                    -0.0245                  3.8841062984987405
5.0E-4                    -0.0235                  3.91722121859578
5.0E-4                    -0.0225                  3.9509957939889158
5.0E-4                    -0.0215                  3.985417588335501
5.0E-4                    -0.0205                  4.020470973248786
5.0E-4                    -0.0195                  4.056127877403379
5.0E-4                    -0.0185                  4.092362642055094
5.0E-4                    -0.0175                  4.129160575015883
5.0E-4                    -0.0165                  4.166545192212143
5.0E-4                    -0.0155                  4.204622871985812
5.0E-4                    -0.0145                  4.243596622011071
5.0E-4                    -0.0135                  4.28377780888137
5.0E-4                    -0.0125                  4.325591837769872
5.0E-4                    -0.0115                  4.369598049592445
5.0E-4                    -0.0105                  4.41649337329879
5.0E-4                    -0.0095                  4.467162983924918
5.0E-4                    -0.0085                  4.522340749834407
5.0E-4                    -0.0075                  4.580927150338189
5.0E-4                    -0.0065                  4.638870975968024
5.0E-4                    -0.0055                  4.691260633545138
5.0E-4                    -0.0045                  4.731513927557623
5.0E-4                    -0.0035                  4.756296200847967
5.0E-4                    -0.0025                  4.769259447292204
5.0E-4                    -0.0015                  4.775050510902043
5.0E-4                    -5.0E-4                  4.777211378317368
5.0E-4                    5.0E-4                   4.777193586209156
5.0E-4                    0.0015                   4.7735554448791255
5.0E-4                    0.0025                   4.763971829631091
5.0E-4                    0.0035                   4.748720857509433
5.0E-4                    0.0045                   4.73173172214785
5.0E-4                    0.0055                   4.717640968566891
5.0E-4                    0.0065                   4.707995745931244
5.0E-4                    0.0075                   4.71338822127176
5.0E-4                    0.0085                   4.763813471498701
5.0E-4                    0.0095                   4.849885989031267
5.0E-4                    0.0105                   4.9223790168885895
5.0E-4                    0.0115                   4.9658335833461775
5.0E-4                    0.0125                   4.990232106012857
5.0E-4                    0.0135                   5.003563311231066
5.0E-4                    0.0145                   5.009729405303701
5.0E-4                    0.0155                   5.00953143210442
5.0E-4                    0.0165                   5.004815397253084
5.0E-4                    0.0175                   4.999820630838186
5.0E-4                    0.0185                   4.9965533265726965
5.0E-4                    0.0195                   4.993831254666572
5.0E-4                    0.0205                   4.99106237653094
5.0E-4                    0.0215                   4.988365975793835
5.0E-4                    0.0225                   4.98113912132594
5.0E-4                    0.0235                   4.963269495665941
5.0E-4                    0.0245                   4.9240315166036766
5.0E-4                    0.0255                   4.865177484967872
5.0E-4                    0.0265                   4.801292424720751
5.0E-4                    0.0275                   4.736983044275393
5.0E-4                    0.0285                   4.673931206620671
5.0E-4                    0.0295                   4.613209761239782
5.0E-4                    0.0305                   4.557091315166792
5.0E-4                    0.0315                   4.515935923865175
0.0015                    -0.0315                  3.6658681319137596
0.0015                    -0.0305                  3.68505768477739
0.0015                    -0.0295                  3.7129815952646688
0.0015                    -0.0285                  3.743481875665266
0.0015                    -0.0275                  3.774870922300859
0.0015                    -0.0265                  3.8067819176019415
0.0015                    -0.0255                  3.8391266716973993
0.0015                    -0.0245                  3.8718972134427196
0.0015                    -0.0235                  3.905126949146568
0.0015                    -0.0225                  3.9388664219324374
0.0015                    -0.0215                  3.9731646089045984
0.0015                    -0.0205                  4.008048723596594
0.0015                    -0.0195                  4.043503835881721
0.0015                    -0.0185                  4.079460849003178
0.0015                    -0.0175                  4.115806844692342
0.0015                    -0.0165                  4.1524221379240185
0.0015                    -0.0155                  4.18925125601995
0.0015                    -0.0145                  4.226380159629072
0.0015                    -0.0135                  4.264084715188576
0.0015                    -0.0125                  4.302855292583453
0.0015                    -0.0115                  4.343432105609484
0.0015                    -0.0105                  4.386946898858376
0.0015                    -0.0095                  4.435048203178781
0.0015                    -0.0085                  4.489559456986221
0.0015                    -0.0075                  4.5507867036766445
0.0015                    -0.0065                  4.614864761509755
0.0015                    -0.0055                  4.675174096627216
0.0015                    -0.0045                  4.722002764815823
0.0015                    -0.0035                  4.751177859738603
0.0015                    -0.0025                  4.766824299314959
0.0015                    -0.0015                  4.772698071009768
0.0015                    -5.0E-4                  4.773252811005917
0.0015                    5.0E-4                   4.77199070525695
0.0015                    0.0015                   4.768508952823378
0.0015                    0.0025                   4.760001954923671
0.0015                    0.0035                   4.745622141756172
0.0015                    0.0045                   4.729102973274593
0.0015                    0.0055                   4.716239859345023
0.0015                    0.0065                   4.7116848327888645
0.0015                    0.0075                   4.717792185463093
0.0015                    0.0085                   4.772343754297628
0.0015                    0.0095                   4.8585761857139
0.0015                    0.0105                   4.917990808592637
0.0015                    0.0115                   4.95065474426225
0.0015                    0.0125                   4.967364962385755
0.0015                    0.0135                   4.977258393625111
0.0015                    0.0145                   4.984064429097469
0.0015                    0.0155                   4.988242003127984
0.0015                    0.0165                   4.988701338884905
0.0015                    0.0175                   4.985124255044823
0.0015                    0.0185                   4.978936786385066
0.0015                    0.0195                   4.971565196838146
0.0015                    0.0205                   4.963103251116006
0.0015                    0.0215                   4.951816240526884
0.0015                    0.0225                   4.936135597568613
0.0015                    0.0235                   4.916510848654769
0.0015                    0.0245                   4.885764153852391
0.0015                    0.0255                   4.836646527016356
0.0015                    0.0265                   4.775168390023801
0.0015                    0.0275                   4.709382097522372
0.0015                    0.0285                   4.642648107880017
0.0015                    0.0295                   4.57684725999015
0.0015                    0.0305                   4.5162107665295395
0.0015                    0.0315                   4.474682759125968
0.0025                    -0.0315                  3.639303315817981
0.0025                    -0.0305                  3.656570671648664
0.0025                    -0.0295                  3.684269581130789
0.0025                    -0.0285                  3.716144022411545
0.0025                    -0.0275                  3.7491953458459824
0.0025                    -0.0265                  3.7824408533446197
0.0025                    -0.0255                  3.815662412393475
0.0025                    -0.0245                  3.8488784426371954
0.0025                    -0.0235                  3.8821924989990215
0.0025                    -0.0225                  3.9157443068918516
0.0025                    -0.0215                  3.9496761577483896
0.0025                    -0.0205                  3.9840952030987404
0.0025                    -0.0195                  4.019028916496405
0.0025                    -0.0185                  4.054382477541127
0.0025                    -0.0175                  4.0899215973294645
0.0025                    -0.0165                  4.125308995864117
0.0025                    -0.0155                  4.160209035006027
0.0025                    -0.0145                  4.194451060908905
0.0025                    -0.0135                  4.228192069680388
0.0025                    -0.0125                  4.262016809292833
0.0025                    -0.0115                  4.297000667995718
0.0025                    -0.0105                  4.334802654832703
0.0025                    -0.0095                  4.37783354240598
0.0025                    -0.0085                  4.42907669914047
0.0025                    -0.0075                  4.490406604922963
0.0025                    -0.0065                  4.559421828777311
0.0025                    -0.0055                  4.629048068400747
0.0025                    -0.0045                  4.687334836906309
0.0025                    -0.0035                  4.726984667999899
0.0025                    -0.0025                  4.748319446230266
0.0025                    -0.0015                  4.7538402813992136
0.0025                    -5.0E-4                  4.751539382758264
0.0025                    5.0E-4                   4.749622832595907
0.0025                    0.0015                   4.750062656958043
0.0025                    0.0025                   4.749818729430215
0.0025                    0.0035                   4.7457941081787425
0.0025                    0.0045                   4.739002303800355
0.0025                    0.0055                   4.7365491119906835
0.0025                    0.0065                   4.747186791001378
0.0025                    0.0075                   4.781289353569312
0.0025                    0.0085                   4.839984152023648
0.0025                    0.0095                   4.893511131354251
0.0025                    0.0105                   4.924033931996148
0.0025                    0.0115                   4.9403742772773445
0.0025                    0.0125                   4.949558167087072
0.0025                    0.0135                   4.95689247286924
0.0025                    0.0145                   4.963340246338599
0.0025                    0.0155                   4.9681889610373915
0.0025                    0.0165                   4.969915779545036
0.0025                    0.0175                   4.966808888932299
0.0025                    0.0185                   4.95858167514826
0.0025                    0.0195                   4.9465533788117515
0.0025                    0.0205                   4.931344744633115
0.0025                    0.0215                   4.912815791173955
0.0025                    0.0225                   4.891121722643385
0.0025                    0.0235                   4.864086251662345
0.0025                    0.0245                   4.829004876742863
0.0025                    0.0255                   4.783059535394192
0.0025                    0.0265                   4.724753192570183
0.0025                    0.0275                   4.657867082306998
0.0025                    0.0285                   4.587234397276576
0.0025                    0.0295                   4.517343873194833
0.0025                    0.0305                   4.456081266249859
0.0025                    0.0315                   4.418133022107777
0.0035                    -0.0315                  3.610276542699894
0.0035                    -0.0305                  3.625254999363767
0.0035                    -0.0295                  3.6509380930942714
0.0035                    -0.0285                  3.6823428455187215
0.0035                    -0.0275                  3.715990572169137
0.0035                    -0.0265                  3.7500964712122307
0.0035                    -0.0255                  3.7839796168946673
0.0035                    -0.0245                  3.81748905415551
0.0035                    -0.0235                  3.850702853582586
0.0035                    -0.0225                  3.8838047513793903
0.0035                    -0.0215                  3.9170191595569386
0.0035                    -0.0205                  3.9505513261502294
0.0035                    -0.0195                  3.9845169356138315
0.0035                    -0.0185                  4.018864995733818
0.0035                    -0.0175                  4.053316674692944
0.0035                    -0.0165                  4.087361898915801
0.0035                    -0.0155                  4.120358886056708
0.0035                    -0.0145                  4.151760747392794
0.0035                    -0.0135                  4.1814388763702945
0.0035                    -0.0125                  4.209979460590378
0.0035                    -0.0115                  4.23880259731483
0.0035                    -0.0105                  4.270096654168555
0.0035                    -0.0095                  4.306595665270578
0.0035                    -0.0085                  4.351424298059959
0.0035                    -0.0075                  4.407559232448569
0.0035                    -0.0065                  4.475031348563144
0.0035                    -0.0055                  4.5497877938394335
0.0035                    -0.0045                  4.619749041806176
0.0035                    -0.0035                  4.671195859864459
0.0035                    -0.0025                  4.698137823062022
0.0035                    -0.0015                  4.7034745342678
0.0035                    -5.0E-4                  4.70015373966173
0.0035                    5.0E-4                   4.701697799691127
0.0035                    0.0015                   4.713467649043442
0.0035                    0.0025                   4.73356427076219
0.0035                    0.0035                   4.75696034125958
0.0035                    0.0045                   4.7806124895684725
0.0035                    0.0055                   4.807401485284991
0.0035                    0.0065                   4.842179500895812
0.0035                    0.0075                   4.883963913140182
0.0035                    0.0085                   4.919282546762428
0.0035                    0.0095                   4.93403269107437
0.0035                    0.0105                   4.9340202192069595
0.0035                    0.0115                   4.932633727839943
0.0035                    0.0125                   4.934694892161533
0.0035                    0.0135                   4.939565610400206
0.0035                    0.0145                   4.94505269014598
0.0035                    0.0155                   4.949273426514979
0.0035                    0.0165                   4.949948683817773
0.0035                    0.0175                   4.945046907899661
0.0035                    0.0185                   4.933958404536734
0.0035                    0.0195                   4.917264579506396
0.0035                    0.0205                   4.896012256562469
0.0035                    0.0215                   4.871005196806312
0.0035                    0.0225                   4.8418231345173375
0.0035                    0.0235                   4.807234974722602
0.0035                    0.0245                   4.76577948248233
0.0035                    0.0255                   4.7160814275828775
0.0035                    0.0265                   4.657159794442861
0.0035                    0.0275                   4.589740440556784
0.0035                    0.0285                   4.517794369912197
0.0035                    0.0295                   4.447993294926911
0.0035                    0.0305                   4.390096451093807
0.0035                    0.0315                   4.356535997361237
0.0045                    -0.0315                  3.5799324004924804
0.0045                    -0.0305                  3.592927525216511
0.0045                    -0.0295                  3.6161091918009216
0.0045                    -0.0285                  3.6457266047095507
0.0045                    -0.0275                  3.6786304599869695
0.0045                    -0.0265                  3.712667749058572
0.0045                    -0.0255                  3.7466527273996997
0.0045                    -0.0245                  3.780094623161011
0.0045                    -0.0235                  3.8129082876195644
0.0045                    -0.0225                  3.845231572073044
0.0045                    -0.0215                  3.877320931942388
0.0045                    -0.0205                  3.90947025093161
0.0045                    -0.0195                  3.9419219677807478
0.0045                    -0.0185                  3.974762678352687
0.0045                    -0.0175                  4.00781508181114
0.0045                    -0.0165                  4.0405634734893345
0.0045                    -0.0155                  4.072180707787437
0.0045                    -0.0145                  4.101731904372965
0.0045                    -0.0135                  4.128599043590892
0.0045                    -0.0125                  4.15306100143658
0.0045                    -0.0115                  4.176689029815407
0.0045                    -0.0105                  4.202132408798751
0.0045                    -0.0095                  4.232477448486429
0.0045                    -0.0085                  4.270394124134765
0.0045                    -0.0075                  4.318107340179654
0.0045                    -0.0065                  4.376985985718853
0.0045                    -0.0055                  4.448387689288517
0.0045                    -0.0045                  4.523173661777545
0.0045                    -0.0035                  4.583529121248107
0.0045                    -0.0025                  4.617769337852128
0.0045                    -0.0015                  4.628507747730262
0.0045                    -5.0E-4                  4.633079105627746
0.0045                    5.0E-4                   4.646936111791083
0.0045                    0.0015                   4.675793711970504
0.0045                    0.0025                   4.720293585465701
0.0045                    0.0035                   4.778226201753585
0.0045                    0.0045                   4.844461863148455
0.0045                    0.0055                   4.910134585997872
0.0045                    0.0065                   4.964387202157157
0.0045                    0.0075                   4.995995017510911
0.0045                    0.0085                   4.9964851164917405
0.0045                    0.0095                   4.971958830147842
0.0045                    0.0105                   4.943052070264661
0.0045                    0.0115                   4.92623485354476
0.0045                    0.0125                   4.922353488087907
0.0045                    0.0135                   4.924465901410428
0.0045                    0.0145                   4.927744114752124
0.0045                    0.0155                   4.9297373722512665
0.0045                    0.0165                   4.927757282027415
0.0045                    0.0175                   4.919591843265131
0.0045                    0.0185                   4.90466601842778
0.0045                    0.0195                   4.883462399961239
0.0045                    0.0205                   4.856916342152061
0.0045                    0.0215                   4.825567402963976
0.0045                    0.0225                   4.789226040415132
0.0045                    0.0235                   4.747294223080596
0.0045                    0.0245                   4.699018372631868
0.0045                    0.0255                   4.643745814499537
0.0045                    0.0265                   4.5813581396936085
0.0045                    0.0275                   4.512935964559723
0.0045                    0.0285                   4.44198901556417
0.0045                    0.0295                   4.375199982919733
0.0045                    0.0305                   4.321803670174981
0.0045                    0.0315                   4.291861862856997
0.0055                    -0.0315                  3.5486734201942083
0.0055                    -0.0305                  3.560066422334839
0.0055                    -0.0295                  3.580866510569332
0.0055                    -0.0285                  3.6081979644676156
0.0055                    -0.0275                  3.6394295231599987
0.0055                    -0.0265                  3.6724664087077654
0.0055                    -0.0255                  3.7058481418736235
0.0055                    -0.0245                  3.7387376603615046
0.0055                    -0.0235                  3.7707878855790073
0.0055                    -0.0225                  3.8019891427215917
0.0055                    -0.0215                  3.8325532161452447
0.0055                    -0.0205                  3.862822663478445
0.0055                    -0.0195                  3.8931775398943897
0.0055                    -0.0185                  3.9239212463888355
0.0055                    -0.0175                  3.9551427525118097
0.0055                    -0.0165                  3.986570909274125
0.0055                    -0.0155                  4.01747417563953
0.0055                    -0.0145                  4.0467190323152025
0.0055                    -0.0135                  4.073129371567908
0.0055                    -0.0125                  4.096239987986296
0.0055                    -0.0115                  4.117214354959414
0.0055                    -0.0105                  4.139026019093066
0.0055                    -0.0095                  4.165063958406125
0.0055                    -0.0085                  4.198047673385545
0.0055                    -0.0075                  4.239206195882465
0.0055                    -0.0065                  4.289128808277944
0.0055                    -0.0055                  4.350358524934537
0.0055                    -0.0045                  4.420021943456938
0.0055                    -0.0035                  4.485053473252269
0.0055                    -0.0025                  4.529874358002926
0.0055                    -0.0015                  4.555200503554123
0.0055                    -5.0E-4                  4.578153186101893
0.0055                    5.0E-4                   4.610484690679076
0.0055                    0.0015                   4.656521144724286
0.0055                    0.0025                   4.719957620328982
0.0055                    0.0035                   4.803346233893271
0.0055                    0.0045                   4.901015041581418
0.0055                    0.0055                   4.994108396058185
0.0055                    0.0065                   5.059016208999207
0.0055                    0.0075                   5.079108288333764
0.0055                    0.0085                   5.052939619464062
0.0055                    0.0095                   4.999438782804913
0.0055                    0.0105                   4.948772125613342
0.0055                    0.0115                   4.920456095193983
0.0055                    0.0125                   4.91171458675392
0.0055                    0.0135                   4.910537738104162
0.0055                    0.0145                   4.910235070819137
0.0055                    0.0155                   4.908260280074777
0.0055                    0.0165                   4.902168056631638
0.0055                    0.0175                   4.889914687613901
0.0055                    0.0185                   4.870891842748012
0.0055                    0.0195                   4.845481866468523
0.0055                    0.0205                   4.814163167822227
0.0055                    0.0215                   4.777142556349066
0.0055                    0.0225                   4.7343632982213375
0.0055                    0.0235                   4.685604797763703
0.0055                    0.0245                   4.63068066506342
0.0055                    0.0255                   4.5696841118822675
0.0055                    0.0265                   4.503356955504408
0.0055                    0.0275                   4.433657206186442
0.0055                    0.0285                   4.364314701036362
0.0055                    0.0295                   4.301155278236229
0.0055                    0.0305                   4.251882353465133
0.0055                    0.0315                   4.224723255418989
0.0065                    -0.0315                  3.516723001147639
0.0065                    -0.0305                  3.5268248380030975
0.0065                    -0.0295                  3.5455350400787475
0.0065                    -0.0285                  3.570559186613
0.0065                    -0.0275                  3.5997129779537174
0.0065                    -0.0265                  3.631121939853398
0.0065                    -0.0255                  3.663283863488781
0.0065                    -0.0245                  3.6951393291856807
0.0065                    -0.0235                  3.7260744470840845
0.0065                    -0.0225                  3.755862096471607
0.0065                    -0.0215                  3.78458705821214
0.0065                    -0.0205                  3.812574917353033
0.0065                    -0.0195                  3.8403153007990607
0.0065                    -0.0185                  3.868361777938091
0.0065                    -0.0175                  3.897193115962595
0.0065                    -0.0165                  3.927031857595109
0.0065                    -0.0155                  3.957624860189469
0.0065                    -0.0145                  3.9880519821875344
0.0065                    -0.0135                  4.016788987795917
0.0065                    -0.0125                  4.042378023217543
0.0065                    -0.0115                  4.064740093912204
0.0065                    -0.0105                  4.086188209377079
0.0065                    -0.0095                  4.110217904968325
0.0065                    -0.0085                  4.140572782574945
0.0065                    -0.0075                  4.178576055493234
0.0065                    -0.0065                  4.223194415223496
0.0065                    -0.0055                  4.274667598314469
0.0065                    -0.0045                  4.335764528071418
0.0065                    -0.0035                  4.400483437710271
0.0065                    -0.0025                  4.453781320354691
0.0065                    -0.0015                  4.495253699558761
0.0065                    -5.0E-4                  4.5366346567736935
0.0065                    5.0E-4                   4.586195193502688
0.0065                    0.0015                   4.649208151466928
0.0065                    0.0025                   4.729999376813622
0.0065                    0.0035                   4.829477939389649
0.0065                    0.0045                   4.938328248189442
0.0065                    0.0055                   5.035491701854747
0.0065                    0.0065                   5.098211827811243
0.0065                    0.0075                   5.1112506532548405
0.0065                    0.0085                   5.074171641897213
0.0065                    0.0095                   5.0086740826022895
0.0065                    0.0105                   4.94820532537886
0.0065                    0.0115                   4.913590692838454
0.0065                    0.0125                   4.900748245835127