% Model:              Benchmark260518.mph
% Version:            COMSOL 6.2.0.339
% Date:               May 19 2026, 01:31
% Dimension:          2
% Nodes:              4096
% Expressions:        1
% Description:        压力
% Length unit:        m
% x                       y                        p (Pa)
% mirrored_by_python_y_to_minus_y, coord_match_decimals=12
0.0005 -0.0315 4.94766931201
0.0005 -0.0305 4.96273050025
0.0005 -0.0295 4.98031655003
0.0005 -0.0285 4.99453365713
0.0005 -0.0275 5.00214150464
0.0005 -0.0265 5.00381858467
0.0005 -0.0255 5.00218020438
0.0005 -0.0245 4.99684000122
0.0005 -0.0235 4.98431473889
0.0005 -0.0225 4.9584401972
0.0005 -0.0215 4.90849066585
0.0005 -0.0205 4.83628157924
0.0005 -0.0195 4.78388083001
0.0005 -0.0185 4.77671437256
0.0005 -0.0175 4.78673657144
0.0005 -0.0165 4.79426593831
0.0005 -0.0155 4.80027044068
0.0005 -0.0145 4.80527598883
0.0005 -0.0135 4.80942082133
0.0005 -0.0125 4.81232565123
0.0005 -0.0115 4.81310220303
0.0005 -0.0105 4.81065988843
0.0005 -0.0095 4.80291599236
0.0005 -0.0085 4.7866414682
0.0005 -0.0075 4.75975608104
0.0005 -0.0065 4.72417389607
0.0005 -0.0055 4.68383200974
0.0005 -0.0045 4.64219326006
0.0005 -0.0035 4.60147697586
0.0005 -0.0025 4.56200151894
0.0005 -0.0015 4.52357506259
0.0005 -0.0005 4.48600508694
0.0005 0.0005 4.44907592848
0.0005 0.0015 4.41261503054
0.0005 0.0025 4.37649279752
0.0005 0.0035 4.34062411741
0.0005 0.0045 4.30494778707
0.0005 0.0055 4.26944847935
0.0005 0.0065 4.23416047915
0.0005 0.0075 4.19913685239
0.0005 0.0085 4.16442939203
0.0005 0.0095 4.13006957815
0.0005 0.0105 4.09606039909
0.0005 0.0115 4.06239705222
0.0005 0.0125 4.02907606168
0.0005 0.0135 3.9960885934
0.0005 0.0145 3.96341340779
0.0005 0.0155 3.93101405778
0.0005 0.0165 3.89885353065
0.0005 0.0175 3.86691209725
0.0005 0.0185 3.83518522521
0.0005 0.0195 3.80367925059
0.0005 0.0205 3.77241420476
0.0005 0.0215 3.74140871549
0.0005 0.0225 3.71067415331
0.0005 0.0235 3.68023161239
0.0005 0.0245 3.65012449278
0.0005 0.0255 3.62041892821
0.0005 0.0265 3.59121321881
0.0005 0.0275 3.56264452607
0.0005 0.0285 3.53494333828
0.0005 0.0295 3.50844588802
0.0005 0.0305 3.48405608372
0.0005 0.0315 3.46614402012
0.0015 -0.0315 4.93125569912
0.0015 -0.0305 4.95154373933
0.0015 -0.0295 4.97494281996
0.0015 -0.0285 4.99039757816
0.0015 -0.0275 4.99662176591
0.0015 -0.0265 4.9977345924
0.0015 -0.0255 4.99633138816
0.0015 -0.0245 4.99223609437
0.0015 -0.0235 4.98240294776
0.0015 -0.0225 4.96042121919
0.0015 -0.0215 4.91664804146
0.0015 -0.0205 4.84628075131
0.0015 -0.0195 4.79569685986
0.0015 -0.0185 4.78685712223
0.0015 -0.0175 4.78973349607
0.0015 -0.0165 4.79541435223
0.0015 -0.0155 4.80081518374
0.0015 -0.0145 4.80552976194
0.0015 -0.0135 4.80973192426
0.0015 -0.0125 4.81312511824
0.0015 -0.0115 4.81442772061
0.0015 -0.0105 4.81226432401
0.0015 -0.0095 4.80464594826
0.0015 -0.0085 4.78740488569
0.0015 -0.0075 4.75779787078
0.0015 -0.0065 4.71868839502
0.0015 -0.0055 4.67549982426
0.0015 -0.0045 4.63243040909
0.0015 -0.0035 4.59145841166
0.0015 -0.0025 4.55258176833
0.0015 -0.0015 4.51514981318
0.0015 -0.0005 4.4785549976
0.0015 0.0005 4.44239902222
0.0015 0.0015 4.40644400776
0.0015 0.0025 4.37056204681
0.0015 0.0035 4.33469912388
0.0015 0.0045 4.29886612679
0.0015 0.0055 4.26313300328
0.0015 0.0065 4.22760872409
0.0015 0.0075 4.19240841601
0.0015 0.0085 4.15761988393
0.0015 0.0095 4.12328309813
0.0015 0.0105 4.0893918337
0.0015 0.0115 4.05591014298
0.0015 0.0125 4.02278925508
0.0015 0.0135 3.98997752694
0.0015 0.0145 3.95742311186
0.0015 0.0155 3.92507818157
0.0015 0.0165 3.89290581712
0.0015 0.0175 3.86088448339
0.0015 0.0185 3.82900673426
0.0015 0.0195 3.79727639805
0.0015 0.0205 3.76570233947
0.0015 0.0215 3.73429220834
0.0015 0.0225 3.70305288897
0.0015 0.0235 3.67199719194
0.0015 0.0245 3.64114911349
0.0015 0.0255 3.61054534415
0.0015 0.0265 3.58023554796
0.0015 0.0275 3.5502929652
0.0015 0.0285 3.52084178904
0.0015 0.0295 3.49223504809
0.0015 0.0305 3.46605306688
0.0015 0.0315 3.44809438186
0.0025 -0.0315 4.90519832376
0.0025 -0.0305 4.93136340486
0.0025 -0.0295 4.96251128463
0.0025 -0.0285 4.98286910087
0.0025 -0.0275 4.99097140784
0.0025 -0.0265 4.99261559145
0.0025 -0.0255 4.99147769085
0.0025 -0.0245 4.98817823498
0.0025 -0.0235 4.98085567372
0.0025 -0.0225 4.965002358
0.0025 -0.0215 4.934620502
0.0025 -0.0205 4.88801588857
0.0025 -0.0195 4.83990562368
0.0025 -0.0185 4.81076257167
0.0025 -0.0175 4.80124212572
0.0025 -0.0165 4.80062243789
0.0025 -0.0155 4.80325056058
0.0025 -0.0145 4.80716595987
0.0025 -0.0135 4.8116674769
0.0025 -0.0125 4.81581836532
0.0025 -0.0115 4.81707452186
0.0025 -0.0105 4.81297566006
0.0025 -0.0095 4.80153481307
0.0025 -0.0085 4.77873041466
0.0025 -0.0075 4.74367837679
0.0025 -0.0065 4.70077947626
0.0025 -0.0055 4.65561078504
0.0025 -0.0045 4.61251183118
0.0025 -0.0035 4.57269986936
0.0025 -0.0025 4.53555735185
0.0025 -0.0015 4.49995733477
0.0025 -0.0005 4.46494962199
0.0025 0.0005 4.4299527449
0.0025 0.0015 4.39467268164
0.0025 0.0025 4.35900249653
0.0025 0.0035 4.32297887511
0.0025 0.0045 4.28675443696
0.0025 0.0055 4.25055567835
0.0025 0.0065 4.21462831335
0.0025 0.0075 4.17918173164
0.0025 0.0085 4.14434527022
0.0025 0.0095 4.11015109211
0.0025 0.0105 4.07654618589
0.0025 0.0115 4.04342326062
0.0025 0.0125 4.01065727691
0.0025 0.0135 3.97813346049
0.0025 0.0145 3.94576160278
0.0025 0.0155 3.91347873439
0.0025 0.0165 3.88124483942
0.0025 0.0175 3.84903642641
0.0025 0.0185 3.81684176394
0.0025 0.0195 3.7846558125
0.0025 0.0205 3.75247589195
0.0025 0.0215 3.72030102885
0.0025 0.0225 3.68813296227
0.0025 0.0235 3.65597640478
0.0025 0.0245 3.62383910688
0.0025 0.0255 3.59173231321
0.0025 0.0265 3.55967729652
0.0025 0.0275 3.52773645674
0.0025 0.0285 3.49614953422
0.0025 0.0295 3.46583853031
0.0025 0.0305 3.43961850753
0.0025 0.0315 3.42337304727
0.0035 -0.0315 4.87133581898
0.0035 -0.0305 4.90242833848
0.0035 -0.0295 4.94203127924
0.0035 -0.0285 4.97070754126
0.0035 -0.0275 4.98388749249
0.0035 -0.0265 4.98723453884
0.0035 -0.0255 4.98639542532
0.0035 -0.0245 4.98330776922
0.0035 -0.0235 4.97749590297
0.0035 -0.0225 4.96661104534
0.0035 -0.0215 4.94707000956
0.0035 -0.0205 4.91608399727
0.0035 -0.0195 4.87826026464
0.0035 -0.0185 4.84477182506
0.0035 -0.0175 4.82250156107
0.0035 -0.0165 4.8108170462
0.0035 -0.0155 4.80669689787
0.0035 -0.0145 4.80781158108
0.0035 -0.0135 4.81225216547
0.0035 -0.0125 4.81717431184
0.0035 -0.0115 4.81733195236
0.0035 -0.0105 4.80795161748
0.0035 -0.0095 4.78725010225
0.0035 -0.0085 4.75436916526
0.0035 -0.0075 4.71250311351
0.0035 -0.0065 4.66773178275
0.0035 -0.0055 4.62426402165
0.0035 -0.0045 4.58440265842
0.0035 -0.0035 4.54799925225
0.0035 -0.0025 4.51383059359
0.0035 -0.0015 4.48057062562
0.0035 -0.0005 4.44725543887
0.0035 0.0005 4.41329468561
0.0035 0.0015 4.37840485439
0.0035 0.0025 4.3425724484
0.0035 0.0035 4.30601127024
0.0035 0.0045 4.2690926271
0.0035 0.0055 4.23225218553
0.0035 0.0065 4.19589232907
0.0035 0.0075 4.16030065356
0.0035 0.0085 4.12560412527
0.0035 0.0095 4.09176932906
0.0035 0.0105 4.05864354122
0.0035 0.0115 4.02601694219
0.0035 0.0125 3.99368106382
0.0035 0.0135 3.96146633282
0.0035 0.0145 3.92925460671
0.0035 0.0155 3.89697268438
0.0035 0.0165 3.86457761142
0.0035 0.0175 3.83204320195
0.0035 0.0185 3.79935151354
0.0035 0.0195 3.76648942163
0.0035 0.0205 3.73344923408
0.0035 0.0215 3.70023043098
0.0035 0.0225 3.66683979416
0.0035 0.0235 3.6332897111
0.0035 0.0245 3.59959750627
0.0035 0.0255 3.56579289415
0.0035 0.0265 3.53195027002
0.0035 0.0275 3.49829348881
0.0035 0.0285 3.46548359135
0.0035 0.0295 3.43517707438
0.0035 0.0305 3.41062128974
0.0035 0.0315 3.39645642351
0.0045 -0.0315 4.83026251942
0.0045 -0.0305 4.86440041958
0.0045 -0.0295 4.91175253185
0.0045 -0.0285 4.95086089193
0.0045 -0.0275 4.97274299101
0.0045 -0.0265 4.98034689612
0.0045 -0.0255 4.98058230299
0.0045 -0.0245 4.97744548069
0.0045 -0.0235 4.97196647709
0.0045 -0.0225 4.96342245047
0.0045 -0.0215 4.95008646701
0.0045 -0.0205 4.92966607567
0.0045 -0.0195 4.9022591796
0.0045 -0.0185 4.87181054696
0.0045 -0.0175 4.84325696351
0.0045 -0.0165 4.82046447939
0.0045 -0.0155 4.80553535313
0.0045 -0.0145 4.79922565437
0.0045 -0.0135 4.80038114459
0.0045 -0.0125 4.80491699923
0.0045 -0.0115 4.80402469353
0.0045 -0.0105 4.7882536735
0.0045 -0.0095 4.75612772003
0.0045 -0.0085 4.71316459327
0.0045 -0.0075 4.66715072623
0.0045 -0.0065 4.62423222696
0.0045 -0.0055 4.58610770369
0.0045 -0.0045 4.55209127981
0.0045 -0.0035 4.52068216293
0.0045 -0.0025 4.4901417549
0.0045 -0.0015 4.45928473131
0.0045 -0.0005 4.42733798201
0.0045 0.0005 4.39381990306
0.0045 0.0015 4.35859987578
0.0045 0.0025 4.32191219723
0.0045 0.0035 4.28427734696
0.0045 0.0045 4.24636250854
0.0045 0.0055 4.20882946596
0.0045 0.0065 4.17219767729
0.0045 0.0075 4.13675162238
0.0045 0.0085 4.10251742793
0.0045 0.0095 4.06931184471
0.0045 0.0105 4.03683586195
0.0045 0.0115 4.0047713299
0.0045 0.0125 3.97284805178
0.0045 0.0135 3.94087103228
0.0045 0.0145 3.90871614559
0.0045 0.0155 3.87630994968
0.0045 0.0165 3.84360767344
0.0045 0.0175 3.81057788834
0.0045 0.0185 3.77719663441
0.0045 0.0195 3.74344934611
0.0045 0.0205 3.7093358038
0.0045 0.0215 3.67487332911
0.0045 0.0225 3.64009632886
0.0045 0.0235 3.60505449198
0.0045 0.0245 3.56981695268
0.0045 0.0255 3.53449709325
0.0045 0.0265 3.49932680885
0.0045 0.0275 3.46482770734
0.0045 0.0285 3.4320991149
0.0045 0.0295 3.40310146418
0.0045 0.0305 3.38072236616
0.0045 0.0315 3.36835602659
0.0055 -0.0315 4.78247528591
0.0055 -0.0305 4.8176744687
0.0055 -0.0295 4.87049125661
0.0055 -0.0285 4.91982274959
0.0055 -0.0275 4.95323077169
0.0055 -0.0265 4.9691442722
0.0055 -0.0255 4.97297576877
0.0055 -0.0245 4.97057118636
0.0055 -0.0235 4.96502465404
0.0055 -0.0225 4.95694796688
0.0055 -0.0215 4.94567136308
0.0055 -0.0205 4.93006069023
0.0055 -0.0195 4.90911645046
0.0055 -0.0185 4.88284590053
0.0055 -0.0175 4.85286273096
0.0055 -0.0165 4.8222098477
0.0055 -0.0155 4.79499264624
0.0055 -0.0145 4.77592704431
0.0055 -0.0135 4.7678154008
0.0055 -0.0125 4.76775592885
0.0055 -0.0115 4.76497305347
0.0055 -0.0105 4.74601297319
0.0055 -0.0095 4.70814734803
0.0055 -0.0085 4.6612360289
0.0055 -0.0075 4.61623817469
0.0055 -0.0065 4.57869957803
0.0055 -0.0055 4.54780941106
0.0055 -0.0045 4.5203368867
0.0055 -0.0035 4.4939240832
0.0055 -0.0025 4.46683065643
0.0055 -0.0015 4.43798828262
0.0055 -0.0005 4.40664629147
0.0055 0.0005 4.37251057936
0.0055 0.0015 4.33583628137
0.0055 0.0025 4.29735455373
0.0055 0.0035 4.25805368269
0.0055 0.0045 4.21895223684
0.0055 0.0055 4.18089304783
0.0055 0.0065 4.14438867094
0.0055 0.0075 4.10955959298
0.0055 0.0085 4.07618988357
0.0055 0.0095 4.04386592824
0.0055 0.0105 4.01213009021
0.0055 0.0115 3.98058995006
0.0055 0.0125 3.9489625556
0.0055 0.0135 3.9170681213
0.0055 0.0145 3.88479978168
0.0055 0.0155 3.85209099525
0.0055 0.0165 3.81889292453
0.0055 0.0175 3.78516616692
0.0055 0.0185 3.75088479958
0.0055 0.0195 3.71604622372
0.0055 0.0205 3.68067946672
0.0055 0.0215 3.64484755539
0.0055 0.0225 3.60864477423
0.0055 0.0235 3.57219537808
0.0055 0.0245 3.53566616474
0.0055 0.0255 3.49931187455
0.0055 0.0265 3.46357607104
0.0055 0.0275 3.429249767
0.0055 0.0285 3.39762499498
0.0055 0.0295 3.37053781591
0.0055 0.0305 3.35030673541
0.0055 0.0315 3.33941659853
0.0065 -0.0315 4.72861141214
0.0065 -0.0305 4.76322024208
0.0065 -0.0295 4.81846994014
0.0065 -0.0285 4.87547136247
0.0065 -0.0275 4.92059749544
0.0065 -0.0265 4.94829601624
0.0065 -0.0255 4.96014589912
0.0065 -0.0245 4.96142170534
0.0065 -0.0235 4.95697505669
0.0065 -0.0225 4.94901711417
0.0065 -0.0215 4.93781667246
0.0065 -0.0205 4.92313819569
0.0065 -0.0195 4.90449924506
0.0065 -0.0185 4.88075676101
0.0065 -0.0175 4.85092507279
0.0065 -0.0165 4.81582665107
0.0065 -0.0155 4.77884294944
0.0065 -0.0145 4.74558396311
0.0065 -0.0135 4.72220166129
0.0065 -0.0125 4.71065700202
0.0065 -0.0115 4.7032708603
0.0065 -0.0105 4.68533304232
0.0065 -0.0095 4.65095789801
0.0065 -0.0085 4.60916344539
0.0065 -0.0075 4.57065987822
0.0065 -0.0065 4.53990319137
0.0065 -0.0055 4.51518307175
0.0065 -0.0045 4.49272399316
0.0065 -0.0035 4.47024443008
0.0065 -0.0025 4.44589295199
0.0065 -0.0015 4.41815455388
0.0065 -0.0005 4.38614440478
0.0065 0.0005 4.34986120216
0.0065 0.0015 4.31029746669
0.0065 0.0025 4.26897956895
0.0065 0.0035 4.22753125322
0.0065 0.0045 4.18732352859
0.0065 0.0055 4.14922912192
0.0065 0.0065 4.11350840372
0.0065 0.0075 4.07988288154
0.0065 0.0085 4.04775227893
0.0065 0.0095 4.01644515236
0.0065 0.0105 3.98539750125
0.0065 0.0115 3.95421971481
0.0065 0.0125 3.92267925603
0.0065 0.0135 3.8906474511
0.0065 0.0145 3.85804607362
0.0065 0.0155 3.82481183046
0.0065 0.0165 3.79088495475
0.0065 0.0175 3.75621845212
0.0065 0.0185 3.72079748315
0.0065 0.0195 3.68465677884
0.0065 0.0205 3.64788801998
0.0065 0.0215 3.61063615547
0.0065 0.0225 3.57309076212
0.0065 0.0235 3.53548402346
0.0065 0.0245 3.49811006788
0.0065 0.0255 3.46137903466
0.0065 0.0265 3.42590518963
0.0065 0.0275 3.39259626182
0.0065 0.0285 3.36268923551
0.0065 0.0295 3.33771885052
0.0065 0.0305 3.31948894426
0.0065 0.0315 3.30985205205
0.0075 -0.0315 4.66955070772
0.0075 -0.0305 4.70227208856
0.0075 -0.0295 4.75702395808
0.0075 -0.0285 4.8179977911
0.0075 -0.0275 4.8722862844
0.0075 -0.0265 4.91226738192
0.0075 -0.0255 4.93575284078
0.0075 -0.0245 4.94515765201
0.0075 -0.0235 4.94503664887
0.0075 -0.0225 4.9387940031
0.0075 -0.0215 4.92791533806
0.0075 -0.0205 4.91341447533
0.0075 -0.0195 4.89540269169
0.0075 -0.0185 4.87222923333
0.0075 -0.0175 4.84207229521
0.0075 -0.0165 4.80464340094
0.0075 -0.0155 4.7618505864
0.0075 -0.0145 4.71799164179
0.0075 -0.0135 4.6794887052
0.0075 -0.0125 4.65265344277
0.0075 -0.0115 4.63678257008
0.0075 -0.0105 4.62089714206
0.0075 -0.0095 4.59554330705
0.0075 -0.0085 4.56437207514
0.0075 -0.0075 4.53534464022
0.0075 -0.0065 4.51110507007
0.0075 -0.0055 4.49033435113
0.0075 -0.0045 4.47069507601
0.0075 -0.0035 4.45078884367
0.0075 -0.0025 4.42831390206
0.0075 -0.0015 4.40044949698
0.0075 -0.0005 4.36605176367
0.0075 0.0005 4.32580439949
0.0075 0.0015 4.28181021236
0.0075 0.0025 4.23674480149
0.0075 0.0035 4.19302193408
0.0075 0.0045 4.15225378967
0.0075 0.0055 4.11500238537
0.0075 0.0065 4.08089672096
0.0075 0.0075 4.04901187332
0.0075 0.0085 4.01830655591
0.0075 0.0095 3.98793392517
0.0075 0.0105 3.95734700942
0.0075 0.0115 3.92625593785
0.0075 0.0125 3.89452946991
0.0075 0.0135 3.86210214711
0.0075 0.0145 3.82891274673
0.0075 0.0155 3.7948836014
0.0075 0.0165 3.75993655552
0.0075 0.0175 3.72402866392
0.0075 0.0185 3.68718657467
0.0075 0.0195 3.64952433487
0.0075 0.0205 3.61124032679
0.0075 0.0215 3.5725996236
0.0075 0.0225 3.53391481792
0.0075 0.0235 3.4955402507
0.0075 0.0245 3.45789111405
0.0075 0.0255 3.42148811966
0.0075 0.0265 3.38701021697
0.0075 0.0275 3.35532512537
0.0075 0.0285 3.32748218606
0.0075 0.0295 3.30469061075
0.0075 0.0305 3.28833475176
0.0075 0.0315 3.27980531583
0.0085 -0.0315 4.60615216162
0.0085 -0.0305 4.63613975396
0.0085 -0.0295 4.68813279234
0.0085 -0.0285 4.74943315108
0.0085 -0.0275 4.80881735414
0.0085 -0.0265 4.85831502709
0.0085 -0.0255 4.89351421032
0.0085 -0.0245 4.91375454596
0.0085 -0.0235 4.92145093914
0.0085 -0.0225 4.91992282386
0.0085 -0.0215 4.91173881379
0.0085 -0.0205 4.89889009893
0.0085 -0.0195 4.88163695827
0.0085 -0.0185 4.85823826328
0.0085 -0.0175 4.82700054575
0.0085 -0.0165 4.78728262155
0.0085 -0.0155 4.74010955377
0.0085 -0.0145 4.6894125149
0.0085 -0.0135 4.64223298296
0.0085 -0.0125 4.60504284724
0.0085 -0.0115 4.58061584334
0.0085 -0.0105 4.56538075989
0.0085 -0.0095 4.54983407648
0.0085 -0.0085 4.52980852527
0.0085 -0.0075 4.50897413592
0.0085 -0.0065 4.48975631901
0.0085 -0.0055 4.47190792237
0.0085 -0.0045 4.45431625545
0.0085 -0.0035 4.43565068418
0.0085 -0.0025 4.4134707011
0.0085 -0.0015 4.38406018251
0.0085 -0.0005 4.34562304699
0.0085 0.0005 4.29970392457
0.0085 0.0015 4.25001342155
0.0085 0.0025 4.20079045741
0.0085 0.0035 4.15535733267
0.0085 0.0045 4.11517923055
0.0085 0.0055 4.0799194109
0.0085 0.0065 4.04816340666
0.0085 0.0075 4.01823569875
0.0085 0.0085 3.9887911581
0.0085 0.0095 3.9590082224
0.0085 0.0105 3.92850574127
0.0085 0.0115 3.89716313081
0.0085 0.0125 3.86495967158
0.0085 0.0135 3.83186483767
0.0085 0.0145 3.79779449847
0.0085 0.0155 3.76263128191
0.0085 0.0165 3.72628402923
0.0085 0.0175 3.688750448
0.0085 0.0185 3.65015469928
0.0085 0.0195 3.61074919366
0.0085 0.0205 3.57088707384
0.0085 0.0215 3.53098242671
0.0085 0.0225 3.49147741918
0.0085 0.0235 3.45283058837
0.0085 0.0245 3.41553018244
0.0085 0.0255 3.3801232283
0.0085 0.0265 3.34724176619
0.0085 0.0275 3.31761207096
0.0085 0.0285 3.29205034042
0.0085 0.0295 3.27146581757
0.0085 0.0305 3.25690147369
0.0085 0.0315 3.24939296738
0.0095 -0.0315 4.5391905177
0.0095 -0.0305 4.56603043129
0.0095 -0.0295 4.61381446397
0.0095 -0.0285 4.67251449442
0.0095 -0.0275 4.7327491638
0.0095 -0.0265 4.78717371419
0.0095 -0.0255 4.8306667014
0.0095 -0.0245 4.86066487297
0.0095 -0.0235 4.8773112751
0.0095 -0.0225 4.88266291046
0.0095 -0.0215 4.8792447155
0.0095 -0.0205 4.86907591177
0.0095 -0.0195 4.85247978978
0.0095 -0.0185 4.82829481972
0.0095 -0.0175 4.79539713457
0.0095 -0.0165 4.7533314724
0.0095 -0.0155 4.70346599574
0.0095 -0.0145 4.65038348524
0.0095 -0.0135 4.60165442283
0.0095 -0.0125 4.56305593939
0.0095 -0.0115 4.53689154591
0.0095 -0.0105 4.52341994499
0.0095 -0.0095 4.51676333061
0.0095 -0.0085 4.50715711094
0.0095 -0.0075 4.49211779763
0.0095 -0.0065 4.47536483994
0.0095 -0.0055 4.45899455595
0.0095 -0.0045 4.44247818346
0.0095 -0.0035 4.42355248894
0.0095 -0.0025 4.39938021703
0.0095 -0.0015 4.36662590347
0.0095 -0.0005 4.32304957966
0.0095 0.0005 4.27050205966
0.0095 0.0015 4.21472179903
0.0095 0.0025 4.1620918989
0.0095 0.0035 4.11652694474
0.0095 0.0045 4.07850816217
0.0095 0.0055 4.04617999407
0.0095 0.0065 4.01692682859
0.0095 0.0075 3.98858213694
0.0095 0.0085 3.95982524779
0.0095 0.0095 3.93008656196
0.0095 0.0105 3.89923822823
0.0095 0.0115 3.8673276079
0.0095 0.0125 3.83438694752
0.0095 0.0135 3.8003410502
0.0095 0.0145 3.76502301799
0.0095 0.0155 3.72826512157
0.0095 0.0165 3.69000540431
0.0095 0.0175 3.65035913132
0.0095 0.0185 3.60963246198
0.0095 0.0195 3.56828440225
0.0095 0.0205 3.5268610879
0.0095 0.0215 3.48593032468
0.0095 0.0225 3.44603745967
0.0095 0.0235 3.40769123911
0.0095 0.0245 3.37137513473
0.0095 0.0255 3.33757062193
0.0095 0.0265 3.30677858169
0.0095 0.0275 3.27953323941
0.0095 0.0285 3.2564134929
0.0095 0.0295 3.23806407916
0.0095 0.0305 3.22524526498
0.0095 0.0315 3.21870642503
0.0105 -0.0315 4.46934606493
0.0105 -0.0305 4.49292169577
0.0105 -0.0295 4.53569470765
0.0105 -0.0285 4.58972537566
0.0105 -0.0275 4.64727734285
0.0105 -0.0265 4.7019348886
0.0105 -0.0255 4.74870171717
0.0105 -0.0245 4.78435313431
0.0105 -0.0235 4.80764061092
0.0105 -0.0225 4.81903179783
0.0105 -0.0215 4.81990662184
0.0105 -0.0205 4.81150805748
0.0105 -0.0195 4.79431869182
0.0105 -0.0185 4.76831689743
0.0105 -0.0175 4.73362115768
0.0105 -0.0165 4.6910945216
0.0105 -0.0155 4.64343142473
0.0105 -0.0145 4.5955521698
0.0105 -0.0135 4.55346627025
0.0105 -0.0125 4.52176001856
0.0105 -0.0115 4.5017614161
0.0105 -0.0105 4.49386172485
0.0105 -0.0095 4.49609227828
0.0105 -0.0085 4.49787689987
0.0105 -0.0075 4.48905380868
0.0105 -0.0065 4.47181066824
0.0105 -0.0055 4.45296527434
0.0105 -0.0045 4.43418025987
0.0105 -0.0035 4.41240917568
0.0105 -0.0025 4.38379163233
0.0105 -0.0015 4.34553105134
0.0105 -0.0005 4.29590643805
0.0105 0.0005 4.23697167839
0.0105 0.0015 4.1765939044
0.0105 0.0025 4.12313763238
0.0105 0.0035 4.07990795603
0.0105 0.0045 4.04531286552
0.0105 0.0055 4.01583316026
0.0105 0.0065 3.9882833816
0.0105 0.0075 3.9605238709
0.0105 0.0085 3.93161556615
0.0105 0.0095 3.90134582692
0.0105 0.0105 3.86981860621
0.0105 0.0115 3.83714385531
0.0105 0.0125 3.80325781246
0.0105 0.0135 3.76791688462
0.0105 0.0145 3.73082716382
0.0105 0.0155 3.69181616062
0.0105 0.0165 3.65095857388
0.0105 0.0175 3.60861242638
0.0105 0.0185 3.56536908592
0.0105 0.0195 3.52195245426
0.0105 0.0205 3.47911016739
0.0105 0.0215 3.4375297437
0.0105 0.0225 3.39779514392
0.0105 0.0235 3.36038236148
0.0105 0.0245 3.32568159387
0.0105 0.0255 3.29403036749
0.0105 0.0265 3.26574591901
0.0105 0.0275 3.24115241297
0.0105 0.0285 3.22060524047
0.0105 0.0295 3.20452002089
0.0105 0.0305 3.19341920297
0.0105 0.0315 3.18781404696
0.0115 -0.0315 4.39717924032
0.0115 -0.0305 4.41753238865
0.0115 -0.0295 4.45491240552
0.0115 -0.0285 4.50294966349
0.0115 -0.0275 4.55525404298
0.0115 -0.0265 4.60635136071
0.0115 -0.0255 4.65173047363
0.0115 -0.0245 4.68807646593
0.0115 -0.0235 4.71343007529
0.0115 -0.0225 4.72705515335
0.0115 -0.0215 4.72903341236
0.0115 -0.0205 4.71981663041
0.0115 -0.0195 4.70015997736
0.0115 -0.0185 4.67136581366
0.0115 -0.0175 4.63553939807
0.0115 -0.0165 4.59589830251
0.0115 -0.0155 4.55676820706
0.0115 -0.0145 4.52285049548
0.0115 -0.0135 4.49735454693
0.0115 -0.0125 4.48129388348
0.0115 -0.0115 4.47325166888
0.0115 -0.0105 4.47405782895
0.0115 -0.0095 4.48630453717
0.0115 -0.0085 4.50094417701
0.0115 -0.0075 4.50118096898
0.0115 -0.0065 4.48327634537
0.0115 -0.0055 4.45689094405
0.0115 -0.0045 4.42960888228
0.0115 -0.0035 4.40063930253
0.0115 -0.0025 4.36496234691
0.0115 -0.0015 4.31912969699
0.0115 -0.0005 4.26264640996
0.0115 0.0005 4.19894060679
0.0115 0.0015 4.13725747979
0.0115 0.0025 4.08652222701
0.0115 0.0035 4.04808384656
0.0115 0.0045 4.01739514212
0.0115 0.0055 3.98964750451
0.0115 0.0065 3.96225118303
0.0115 0.0075 3.93382246455
0.0115 0.0085 3.90396465117
0.0115 0.0095 3.87281522206
0.0115 0.0105 3.84056160892
0.0115 0.0115 3.80711485091
0.0115 0.0125 3.77207111825
0.0115 0.0135 3.73490363274
0.0115 0.0145 3.6952336658
0.0115 0.0155 3.65303702864
0.0115 0.0165 3.6087157736
0.0115 0.0175 3.56303212932
0.0115 0.0185 3.51695667393
0.0115 0.0195 3.47149725491
0.0115 0.0205 3.42756068949
0.0115 0.0215 3.38587273015
0.0115 0.0225 3.34695707439
0.0115 0.0235 3.3111588692
0.0115 0.0245 3.27869254865
0.0115 0.0255 3.24969572636
0.0115 0.0265 3.22427717934
0.0115 0.0275 3.20255439873
0.0115 0.0285 3.18468255585
0.0115 0.0295 3.17088173755
0.0115 0.0305 3.16147346094
0.0115 0.0315 3.15677140597
0.0125 -0.0315 4.323134817
0.0125 -0.0305 4.34036727686
0.0125 -0.0295 4.37222078041
0.0125 -0.0285 4.41351000804
0.0125 -0.0275 4.45893697347
0.0125 -0.0265 4.50387762313
0.0125 -0.0255 4.5443765142
0.0125 -0.0245 4.57724710723
0.0125 -0.0235 4.60012998312
0.0125 -0.0225 4.61147264119
0.0125 -0.0215 4.61053736463
0.0125 -0.0205 4.59752474358
0.0125 -0.0195 4.57373939807
0.0125 -0.0185 4.54182168621
0.0125 -0.0175 4.50600273933
0.0125 -0.0165 4.47199650854
0.0125 -0.0155 4.4460183386
0.0125 -0.0145 4.43256835788
0.0125 -0.0135 4.43209355411
0.0125 -0.0125 4.43930464615
0.0125 -0.0115 4.44773102964
0.0125 -0.0105 4.46013715309
0.0125 -0.0095 4.48399867993
0.0125 -0.0085 4.51144251982
0.0125 -0.0075 4.52148116262
0.0125 -0.0065 4.50437401842
0.0125 -0.0055 4.46861767154
0.0125 -0.0045 4.42706872337
0.0125 -0.0035 4.38499609159
0.0125 -0.0025 4.33962986096
0.0125 -0.0015 4.28631672222
0.0125 -0.0005 4.22452923733
0.0125 0.0005 4.15974541624
0.0125 0.0015 4.10152486946
0.0125 0.0025 4.05622230088
0.0125 0.0035 4.02229012636
0.0125 0.0045 3.99393496447
0.0125 0.0055 3.96634135055
0.0125 0.0065 3.9376568781
0.0125 0.0075 3.90757327863
0.0125 0.0085 3.87640549905
0.0125 0.0095 3.84458206882
0.0125 0.0105 3.81199243214
0.0125 0.0115 3.77790141815
0.0125 0.0125 3.74129782885
0.0125 0.0135 3.70138196123
0.0125 0.0145 3.6579060843
0.0125 0.0155 3.61129176395
0.0125 0.0165 3.56252791319
0.0125 0.0175 3.51293659124
0.0125 0.0185 3.46390735766
0.0125 0.0195 3.41667944548
0.0125 0.0205 3.37221142855
0.0125 0.0215 3.33114011864
0.0125 0.0225 3.29380847917
0.0125 0.0235 3.26033440399
0.0125 0.0245 3.23069326176
0.0125 0.0255 3.20479377853
0.0125 0.0265 3.18253620555
0.0125 0.0275 3.16385091038
0.0125 0.0285 3.1487223403
0.0125 0.0295 3.1372073238
0.0125 0.0305 3.12945892199
0.0125 0.0315 3.12562836246
0.0135 -0.0315 4.24756415109
0.0135 -0.0305 4.2617858501
0.0135 -0.0295 4.28812014002
0.0135 -0.0285 4.32231395485
0.0135 -0.0275 4.35997380508
0.0135 -0.0265 4.39720277865
0.0135 -0.0255 4.43055005561
0.0135 -0.0245 4.45703129966
0.0135 -0.0235 4.47417306927
0.0135 -0.0225 4.48012138791
0.0135 -0.0215 4.47388563992
0.0135 -0.0205 4.45570493133
0.0135 -0.0195 4.42747370332
0.0135 -0.0185 4.39310369752
0.0135 -0.0175 4.35863439513
0.0135 -0.0165 4.33172858532
0.0135 -0.0155 4.32004493277
0.0135 -0.0145 4.32831748381
0.0135 -0.0135 4.35497549024
0.0135 -0.0125 4.38830016524
0.0135 -0.0115 4.41678628073
0.0135 -0.0105 4.44419372467
0.0135 -0.0095 4.48015177599
0.0135 -0.0085 4.51745537266
0.0135 -0.0075 4.53427446609
0.0135 -0.0065 4.51832444954
0.0135 -0.0055 4.47551325191
0.0135 -0.0045 4.41968249792
0.0135 -0.0035 4.36154000161
0.0135 -0.0025 4.30447928592
0.0135 -0.0015 4.24599950227
0.0135 -0.0005 4.18429597788
0.0135 0.0005 4.12403183249
0.0135 0.0015 4.07274205001
0.0135 0.0025 4.03274435389
0.0135 0.0035 4.00079997071
0.0135 0.0045 3.97223078285
0.0135 0.0055 3.94330313115
0.0135 0.0065 3.91249003225
0.0135 0.0075 3.88050362559
0.0135 0.0085 3.84861286049
0.0135 0.0095 3.81710793482
0.0135 0.0105 3.78494117064
0.0135 0.0115 3.75018728516
0.0135 0.0125 3.71112426839
0.0135 0.0135 3.66693488795
0.0135 0.0145 3.61795806302
0.0135 0.0155 3.56548774121
0.0135 0.0165 3.51136531979
0.0135 0.0175 3.45755259798
0.0135 0.0185 3.40579312892
0.0135 0.0195 3.35741119635
0.0135 0.0205 3.31324537054
0.0135 0.0215 3.27368541417
0.0135 0.0225 3.23877202795
0.0135 0.0235 3.20832005136
0.0135 0.0245 3.18203362405
0.0135 0.0255 3.1595941945
0.0135 0.0265 3.14071588863
0.0135 0.0275 3.12517349084
0.0135 0.0285 3.11281363022
0.0135 0.0295 3.10356079486
0.0135 0.0305 3.09742847694
0.0135 0.0315 3.09443463267
0.0145 -0.0315 4.17075316558
0.0145 -0.0305 4.18205976898
0.0145 -0.0295 4.20295355649
0.0145 -0.0285 4.22997126945
0.0145 -0.0275 4.25949654334
0.0145 -0.0265 4.28825012251
0.0145 -0.0255 4.31323274335
0.0145 -0.0245 4.33175446888
0.0145 -0.0235 4.34153228313
0.0145 -0.0225 4.34086364813
0.0145 -0.0215 4.32890754652
0.0145 -0.0205 4.3061252423
0.0145 -0.0195 4.27487891235
0.0145 -0.0185 4.23998284731
0.0145 -0.0175 4.20870022281
0.0145 -0.0165 4.18978354933
0.0145 -0.0155 4.19133929046
0.0145 -0.0145 4.21760223365
0.0145 -0.0135 4.26530658573
0.0145 -0.0125 4.32019881407
0.0145 -0.0115 4.36890502424
0.0145 -0.0105 4.41333687356
0.0145 -0.0095 4.4608062361
0.0145 -0.0085 4.50442127691
0.0145 -0.0075 4.52498678155
0.0145 -0.0065 4.51105652025
0.0145 -0.0055 4.46628653663
0.0145 -0.0045 4.40251061967
0.0145 -0.0035 4.33210269717
0.0145 -0.0025 4.26415093919
0.0145 -0.0015 4.2019216368
0.0145 -0.0005 4.14415570871
0.0145 0.0005 4.09148511966
0.0145 0.0015 4.04699715789
0.0145 0.0025 4.01076410668
0.0145 0.0035 3.97932703786
0.0145 0.0045 3.94921175027
0.0145 0.0055 3.91813687195
0.0145 0.0065 3.88503601208
0.0145 0.0075 3.85190883944
0.0145 0.0085 3.82100999723
0.0145 0.0095 3.79139490092
0.0145 0.0105 3.76024432688
0.0145 0.0115 3.72421126077
0.0145 0.0125 3.68098728088
0.0145 0.0135 3.63032760132
0.0145 0.0145 3.57382793692
0.0145 0.0155 3.51412474504
0.0145 0.0165 3.45407987746
0.0145 0.0175 3.39622011625
0.0145 0.0185 3.34244045806
0.0145 0.0195 3.29391174038
0.0145 0.0205 3.2511366279
0.0145 0.0215 3.21409667714
0.0145 0.0225 3.1824351307
0.0145 0.0235 3.15562907048
0.0145 0.0245 3.13312056409
0.0145 0.0255 3.11439656985
0.0145 0.0265 3.09902491411
0.0145 0.0275 3.08666225263
0.0145 0.0285 3.0770496182
0.0145 0.0295 3.07000693799
0.0145 0.0305 3.06543407005
0.0145 0.0315 3.06324116258
0.0155 -0.0315 4.09294944326
0.0155 -0.0305 4.10141302497
0.0155 -0.0295 4.11696844495
0.0155 -0.0285 4.13688299767
0.0155 -0.0275 4.15825830565
0.0155 -0.0265 4.17838296104
0.0155 -0.0255 4.19470466088
0.0155 -0.0245 4.20491867654
0.0155 -0.0235 4.20714371871
0.0155 -0.0225 4.20014026732
0.0155 -0.0215 4.18355558843
0.0155 -0.0205 4.1582686032
0.0155 -0.0195 4.12696560254
0.0155 -0.0185 4.09480008594
0.0155 -0.0175 4.06946663497
0.0155 -0.0165 4.05977189025
0.0155 -0.0155 4.07291940168
0.0155 -0.0145 4.1111648875
0.0155 -0.0135 4.16890648596
0.0155 -0.0125 4.23426074777
0.0155 -0.0115 4.29836217612
0.0155 -0.0105 4.359983863
0.0155 -0.0095 4.41902041808
0.0155 -0.0085 4.46800242988
0.0155 -0.0075 4.49245143752
0.0155 -0.0065 4.48278588426
0.0155 -0.0055 4.44066985458
0.0155 -0.0045 4.37506053872
0.0155 -0.0035 4.29870432379
0.0155 -0.0025 4.22513695172
0.0155 -0.0015 4.16159644686
0.0155 -0.0005 4.10710456115
0.0155 0.0005 4.05947003151
0.0155 0.0015 4.01887168792
0.0155 0.0025 3.98481187677
0.0155 0.0035 3.95385928608
0.0155 0.0045 3.92249566134
0.0155 0.0055 3.8892533394
0.0155 0.0065 3.85472139537
0.0155 0.0075 3.8223587813
0.0155 0.0085 3.79450062362
0.0155 0.0095 3.76815150154
0.0155 0.0105 3.73787458627
0.0155 0.0115 3.69894704803
0.0155 0.0125 3.64903752127
0.0155 0.0135 3.58929291854
0.0155 0.0145 3.52333903473
0.0155 0.0155 3.45553478041
0.0155 0.0165 3.38970820856
0.0155 0.0175 3.32867594856
0.0155 0.0185 3.27415138242
0.0155 0.0195 3.2268517183
0.0155 0.0205 3.18672320115
0.0155 0.0215 3.15321468586
0.0155 0.0225 3.12553519845
0.0155 0.0235 3.10284890671
0.0155 0.0245 3.08438984747
0.0155 0.0255 3.06950780962
0.0155 0.0265 3.05767171722
0.0155 0.0275 3.0484553361
0.0155 0.0285 3.04152084883
0.0155 0.0295 3.03660673164
0.0155 0.0305 3.03352128474
0.0155 0.0315 3.03208666989
0.0165 -0.0315 4.01438162684
0.0165 -0.0305 4.02005236245
0.0165 -0.0295 4.03036758611
0.0165 -0.0285 4.04332869743
0.0165 -0.0275 4.05676982959
0.0165 -0.0265 4.06857768848
0.0165 -0.0255 4.07669361954
0.0165 -0.0245 4.07925488192
0.0165 -0.0235 4.07485194242
0.0165 -0.0225 4.06283242152
0.0165 -0.0215 4.04356234883
0.0165 -0.0205 4.01861631004
0.0165 -0.0195 3.99104874103
0.0165 -0.0185 3.96585684626
0.0165 -0.0175 3.94994646431
0.0165 -0.0165 3.95093223382
0.0165 -0.0155 3.97371262316
0.0165 -0.0145 4.01710933496
0.0165 -0.0135 4.07380028577