% Model:              Benchmark260518.mph
% Version:            COMSOL 6.2.0.339
% Date:               May 19 2026, 03:53
% Dimension:          2
% Nodes:              4096
% Expressions:        1
% Description:        压力
% Length unit:        m
% x                       y                        p (Pa)
5.0E-4                    -0.0315                  3.576818616642816
5.0E-4                    -0.0305                  3.622872832770687
5.0E-4                    -0.0295                  3.6856192665833953
5.0E-4                    -0.0285                  3.7538870248138467
5.0E-4                    -0.0275                  3.8253462016335043
5.0E-4                    -0.0265                  3.899145675268998
5.0E-4                    -0.0255                  3.974795105273719
5.0E-4                    -0.0245                  4.05216584865781
5.0E-4                    -0.0235                  4.131396270707048
5.0E-4                    -0.0225                  4.212880196622265
5.0E-4                    -0.0215                  4.297149653980447
5.0E-4                    -0.0205                  4.384697702237918
5.0E-4                    -0.0195                  4.475714470021159
5.0E-4                    -0.0185                  4.569821000160752
5.0E-4                    -0.0175                  4.666206215000588
5.0E-4                    -0.0165                  4.762543082358496
5.0E-4                    -0.0155                  4.852339965558001
5.0E-4                    -0.0145                  4.926732811668445
5.0E-4                    -0.0135                  4.976397719991557
5.0E-4                    -0.0125                  5.000467983181075
5.0E-4                    -0.0115                  5.008614467304306
5.0E-4                    -0.0105                  5.008776102231261
5.0E-4                    -0.0095                  5.004755234544959
5.0E-4                    -0.0085                  4.998140650434042
5.0E-4                    -0.0075                  4.989443322318873
5.0E-4                    -0.0065                  4.980440288372387
5.0E-4                    -0.0055                  4.974579173317666
5.0E-4                    -0.0045                  4.973143590972934
5.0E-4                    -0.0035                  4.9696890517300565
5.0E-4                    -0.0025                  4.949339700840218
5.0E-4                    -0.0015                  4.898281318460048
5.0E-4                    -5.0E-4                  4.816080606483112
5.0E-4                    5.0E-4                   4.715248480155486
5.0E-4                    0.0015                   4.619574066776025
5.0E-4                    0.0025                   4.5558607507934745
5.0E-4                    0.0035                   4.530946784066497
5.0E-4                    0.0045                   4.532090280580902
5.0E-4                    0.0055                   4.541980953970192
5.0E-4                    0.0065                   4.587016520632922
5.0E-4                    0.0075                   4.725791425914173
5.0E-4                    0.0085                   4.8025776861569645
5.0E-4                    0.0095                   4.773510928665492
5.0E-4                    0.0105                   4.766864051682056
5.0E-4                    0.0115                   4.768977237144441
5.0E-4                    0.0125                   4.7760924639270685
5.0E-4                    0.0135                   4.790610985605451
5.0E-4                    0.0145                   4.8106873859005645
5.0E-4                    0.0155                   4.8321533219648245
5.0E-4                    0.0165                   4.8503759649306435
5.0E-4                    0.0175                   4.864480306614707
5.0E-4                    0.0185                   4.873737070785615
5.0E-4                    0.0195                   4.873486104416036
5.0E-4                    0.0205                   4.860591346412232
5.0E-4                    0.0215                   4.8367667936623935
5.0E-4                    0.0225                   4.805510700779269
5.0E-4                    0.0235                   4.770170283918499
5.0E-4                    0.0245                   4.733616765532551
5.0E-4                    0.0255                   4.697588723998706
5.0E-4                    0.0265                   4.662546350359438
5.0E-4                    0.0275                   4.628681993235034
5.0E-4                    0.0285                   4.59625229589906
5.0E-4                    0.0295                   4.565523332455945
5.0E-4                    0.0305                   4.537454988188209
5.0E-4                    0.0315                   4.516850389096068
0.0015                    -0.0315                  3.5302891023646006
0.0015                    -0.0305                  3.576242066091188
0.0015                    -0.0295                  3.6432197157720236
0.0015                    -0.0285                  3.716476629821121
0.0015                    -0.0275                  3.7919699227729255
0.0015                    -0.0265                  3.8686783888517406
0.0015                    -0.0255                  3.946149195667848
0.0015                    -0.0245                  4.024195722055901
0.0015                    -0.0235                  4.1029996842534
0.0015                    -0.0225                  4.183224921006784
0.0015                    -0.0215                  4.2660631428918885
0.0015                    -0.0205                  4.3531194919446365
0.0015                    -0.0195                  4.445981210167177
0.0015                    -0.0185                  4.545538870472972
0.0015                    -0.0175                  4.651006998913539
0.0015                    -0.0165                  4.758110100900644
0.0015                    -0.0155                  4.857124636930458
0.0015                    -0.0145                  4.9360137246379185
0.0015                    -0.0135                  4.984398800314307
0.0015                    -0.0125                  5.0052111060653255
0.0015                    -0.0115                  5.011688972062972
0.0015                    -0.0105                  5.011293698459594
0.0015                    -0.0095                  5.006915697897058
0.0015                    -0.0085                  4.998704085542631
0.0015                    -0.0075                  4.985668310357172
0.0015                    -0.0065                  4.969610881460383
0.0015                    -0.0055                  4.955412129106055
0.0015                    -0.0045                  4.946407977215365
0.0015                    -0.0035                  4.938170326264963
0.0015                    -0.0025                  4.9173002500980685
0.0015                    -0.0015                  4.868974466027056
0.0015                    -5.0E-4                  4.78883160784537
0.0015                    5.0E-4                   4.68739314790482
0.0015                    0.0015                   4.591416791192809
0.0015                    0.0025                   4.530892838087327
0.0015                    0.0035                   4.514069577308179
0.0015                    0.0045                   4.521863611826876
0.0015                    0.0055                   4.528447034506658
0.0015                    0.0065                   4.650046153923867
0.0015                    0.0075                   4.903041605858656
0.0015                    0.0085                   4.958849962325105
0.0015                    0.0095                   4.8190532220581925
0.0015                    0.0105                   4.756506035442822
0.0015                    0.0115                   4.761432673057785
0.0015                    0.0125                   4.770742006387849
0.0015                    0.0135                   4.784998076728748
0.0015                    0.0145                   4.805524329467762
0.0015                    0.0155                   4.830897511516706
0.0015                    0.0165                   4.856334765619398
0.0015                    0.0175                   4.877154671221147
0.0015                    0.0185                   4.890116334030943
0.0015                    0.0195                   4.890936422825634
0.0015                    0.0205                   4.876295020363838
0.0015                    0.0215                   4.8478563907714705
0.0015                    0.0225                   4.810430223734895
0.0015                    0.0235                   4.768851627333024
0.0015                    0.0245                   4.72700378207797
0.0015                    0.0255                   4.686948306625699
0.0015                    0.0265                   4.649148045624862
0.0015                    0.0275                   4.613318134484549
0.0015                    0.0285                   4.57903861804865
0.0015                    0.0295                   4.546268177505859
0.0015                    0.0305                   4.51648340377404
0.0015                    0.0315                   4.495997764130011
0.0025                    -0.0315                  3.4665410797670746
0.0025                    -0.0305                  3.507807676932365
0.0025                    -0.0295                  3.5743301166425154
0.0025                    -0.0285                  3.6512626445775194
0.0025                    -0.0275                  3.731450252806103
0.0025                    -0.0265                  3.812303015071569
0.0025                    -0.0255                  3.8927727449048555
0.0025                    -0.0245                  3.97231660449228
0.0025                    -0.0235                  4.050936203056852
0.0025                    -0.0225                  4.129506164848163
0.0025                    -0.0215                  4.210019907872104
0.0025                    -0.0205                  4.2955834909275925
0.0025                    -0.0195                  4.389949132194136
0.0025                    -0.0185                  4.49599043807683
0.0025                    -0.0175                  4.613170713705757
0.0025                    -0.0165                  4.734721034002298
0.0025                    -0.0155                  4.846516971477739
0.0025                    -0.0145                  4.933020975184561
0.0025                    -0.0135                  4.984453253090241
0.0025                    -0.0125                  5.007492839049141
0.0025                    -0.0115                  5.016140526476408
0.0025                    -0.0105                  5.015237416612683
0.0025                    -0.0095                  5.004637066372916
0.0025                    -0.0085                  4.982898103905138
0.0025                    -0.0075                  4.951372664564673
0.0025                    -0.0065                  4.916178592043517
0.0025                    -0.0055                  4.885336502502225
0.0025                    -0.0045                  4.8636229116346605
0.0025                    -0.0035                  4.848913889764266
0.0025                    -0.0025                  4.831840339785541
0.0025                    -0.0015                  4.798728692037489
0.0025                    -5.0E-4                  4.738971969683455
0.0025                    5.0E-4                   4.656279947204482
0.0025                    0.0015                   4.573565678854395
0.0025                    0.0025                   4.5198201571296055
0.0025                    0.0035                   4.507251909914488
0.0025                    0.0045                   4.521535041879814
0.0025                    0.0055                   4.594281013093947
0.0025                    0.0065                   4.916389272882763
0.0025                    0.0075                   5.33116618575184
0.0025                    0.0085                   5.350406047886232
0.0025                    0.0095                   5.023333369829325
0.0025                    0.0105                   4.795964782025176
0.0025                    0.0115                   4.761318062429818
0.0025                    0.0125                   4.76778714572721
0.0025                    0.0135                   4.781735758575318
0.0025                    0.0145                   4.8045146416435
0.0025                    0.0155                   4.836360940689141
0.0025                    0.0165                   4.870973938982596
0.0025                    0.0175                   4.898763132436003
0.0025                    0.0185                   4.912314543603205
0.0025                    0.0195                   4.908875485971552
0.0025                    0.0205                   4.888658482506949
0.0025                    0.0215                   4.85339556114503
0.0025                    0.0225                   4.808066317222891
0.0025                    0.0235                   4.758906797524519
0.0025                    0.0245                   4.710634669787479
0.0025                    0.0255                   4.66574718579736
0.0025                    0.0265                   4.624551377558403
0.0025                    0.0275                   4.586169310854921
0.0025                    0.0285                   4.549725660309818
0.0025                    0.0295                   4.515408928938202
0.0025                    0.0305                   4.48585527237817
0.0025                    0.0315                   4.467383415347823
0.0035                    -0.0315                  3.3971267103552667
0.0035                    -0.0305                  3.432956282720154
0.0035                    -0.0295                  3.494832991911466
0.0035                    -0.0285                  3.5710750189136666
0.0035                    -0.0275                  3.6535038765462633
0.0035                    -0.0265                  3.7376997571034525
0.0035                    -0.0255                  3.8214098894953157
0.0035                    -0.0245                  3.903325202102256
0.0035                    -0.0235                  3.9828825968692168
0.0035                    -0.0225                  4.060711503614272
0.0035                    -0.0215                  4.139178900924421
0.0035                    -0.0205                  4.222485703765931
0.0035                    -0.0195                  4.316074979314717
0.0035                    -0.0185                  4.425099913490568
0.0035                    -0.0175                  4.550625502611775
0.0035                    -0.0165                  4.685053285580895
0.0035                    -0.0155                  4.811030486448989
0.0035                    -0.0145                  4.909447779325665
0.0035                    -0.0135                  4.970363969012692
0.0035                    -0.0125                  5.00161262611401
0.0035                    -0.0115                  5.014782868970541
0.0035                    -0.0105                  5.009362310685709
0.0035                    -0.0095                  4.981965003780774
0.0035                    -0.0085                  4.934266073600681
0.0035                    -0.0075                  4.874361009815244
0.0035                    -0.0065                  4.8140846355265
0.0035                    -0.0055                  4.764281086098445
0.0035                    -0.0045                  4.730823217929727
0.0035                    -0.0035                  4.7128902988466725
0.0035                    -0.0025                  4.703721341744377
0.0035                    -0.0015                  4.694517340756633
0.0035                    -5.0E-4                  4.676932769438391
0.0035                    5.0E-4                   4.647965872982051
0.0035                    0.0015                   4.615033274098799
0.0035                    0.0025                   4.595865639619998
0.0035                    0.0035                   4.61303858049258
0.0035                    0.0045                   4.694146099762975
0.0035                    0.0055                   4.939427185544239
0.0035                    0.0065                   5.470470065588164
0.0035                    0.0075                   5.980824847548144
0.0035                    0.0085                   5.985920365346272
0.0035                    0.0095                   5.512581111849576
0.0035                    0.0105                   5.042274454270777
0.0035                    0.0115                   4.839378522291003
0.0035                    0.0125                   4.783303709242283
0.0035                    0.0135                   4.779975143851713
0.0035                    0.0145                   4.801569230278262
0.0035                    0.0155                   4.840195643742759
0.0035                    0.0165                   4.885288915896446
0.0035                    0.0175                   4.920940148790366
0.0035                    0.0185                   4.931663903098892
0.0035                    0.0195                   4.916232822449192
0.0035                    0.0205                   4.8848042925733015
0.0035                    0.0215                   4.840801713928366
0.0035                    0.0225                   4.788312157076751
0.0035                    0.0235                   4.734414340552582
0.0035                    0.0245                   4.682670362179613
0.0035                    0.0255                   4.6353606985307305
0.0035                    0.0265                   4.592247911786735
0.0035                    0.0275                   4.55216895777346
0.0035                    0.0285                   4.514507024254394
0.0035                    0.0295                   4.480196154242541
0.0035                    0.0305                   4.452357356340916
0.0035                    0.0315                   4.436027203813008
0.0045                    -0.0315                  3.3246983552769755
0.0045                    -0.0305                  3.3563162438952
0.0045                    -0.0295                  3.4129034050521105
0.0045                    -0.0285                  3.485555622145279
0.0045                    -0.0275                  3.566992780745459
0.0045                    -0.0265                  3.6522915094923043
0.0045                    -0.0255                  3.7383880208468834
0.0045                    -0.0245                  3.8232127404268494
0.0045                    -0.0235                  3.9053656279206543
0.0045                    -0.0225                  3.9846428615574894
0.0045                    -0.0215                  4.062859571104761
0.0045                    -0.0205                  4.1443908929737905
0.0045                    -0.0195                  4.235528336333319
0.0045                    -0.0185                  4.34258935332435
0.0045                    -0.0175                  4.469907520677002
0.0045                    -0.0165                  4.613321994701327
0.0045                    -0.0155                  4.753918639265268
0.0045                    -0.0145                  4.866492854458415
0.0045                    -0.0135                  4.939960918279161
0.0045                    -0.0125                  4.9819070925115625
0.0045                    -0.0115                  4.998550245233973
0.0045                    -0.0105                  4.984195025835081
0.0045                    -0.0095                  4.934877232165162
0.0045                    -0.0085                  4.858676280834247
0.0045                    -0.0075                  4.77221032631956
0.0045                    -0.0065                  4.694397064692101
0.0045                    -0.0055                  4.638937007210206
0.0045                    -0.0045                  4.607954217678797
0.0045                    -0.0035                  4.5953531713821345
0.0045                    -0.0025                  4.594920168644843
0.0045                    -0.0015                  4.60405506941742
0.0045                    -5.0E-4                  4.622838330950967
0.0045                    5.0E-4                   4.656205334726993
0.0045                    0.0015                   4.711691311149643
0.0045                    0.0025                   4.795675333380482
0.0045                    0.0035                   4.927022770358799
0.0045                    0.0045                   5.150421563221315
0.0045                    0.0055                   5.55281804793751
0.0045                    0.0065                   6.137577568634897
0.0045                    0.0075                   6.6090925632253
0.0045                    0.0085                   6.605168833354633
0.0045                    0.0095                   6.088744744575682
0.0045                    0.0105                   5.426248250808948
0.0045                    0.0115                   4.993364389602689
0.0045                    0.0125                   4.808525665318314
0.0045                    0.0135                   4.750300256591914
0.0045                    0.0145                   4.754455902421084
0.0045                    0.0155                   4.795052644864266
0.0045                    0.0165                   4.853748267169655
0.0045                    0.0175                   4.9059891243404845
0.0045                    0.0185                   4.924294943066844
0.0045                    0.0195                   4.902195322860162
0.0045                    0.0205                   4.857520278444914
0.0045                    0.0215                   4.803771067588869
0.0045                    0.0225                   4.747445664758675
0.0045                    0.0235                   4.6937709179347715
0.0045                    0.0245                   4.643954806002622
0.0045                    0.0255                   4.5982329113896
0.0045                    0.0265                   4.555641620608002
0.0045                    0.0275                   4.515381072800689
0.0045                    0.0285                   4.477675988435781
0.0045                    0.0295                   4.444206555726459
0.0045                    0.0305                   4.418048790197281
0.0045                    0.0315                   4.403251032607336
0.0055                    -0.0315                  3.2500571040117348
0.0055                    -0.0305                  3.279138680224834
0.0055                    -0.0295                  3.331778460164557
0.0055                    -0.0285                  3.4003971249567773
0.0055                    -0.0275                  3.4787430515031943
0.0055                    -0.0265                  3.562523189461195
0.0055                    -0.0255                  3.6490462388902123
0.0055                    -0.0245                  3.7363728981840967
0.0055                    -0.0235                  3.8225569477524166
0.0055                    -0.0225                  3.906101373673174
0.0055                    -0.0215                  3.9873748021818844
0.0055                    -0.0205                  4.069234850549826
0.0055                    -0.0195                  4.1574071749379655
0.0055                    -0.0185                  4.2587459090907585
0.0055                    -0.0175                  4.381841430453481
0.0055                    -0.0165                  4.5293584506464715
0.0055                    -0.0155                  4.683330077767095
0.0055                    -0.0145                  4.8121618897952425
0.0055                    -0.0135                  4.900648114042862
0.0055                    -0.0125                  4.954914212103496
0.0055                    -0.0115                  4.975147735957381
0.0055                    -0.0105                  4.950396347359675
0.0055                    -0.0095                  4.878781102611256
0.0055                    -0.0085                  4.777791748606191
0.0055                    -0.0075                  4.676560469905582
0.0055                    -0.0065                  4.601749300135331
0.0055                    -0.0055                  4.562028862182181
0.0055                    -0.0045                  4.54675056873697
0.0055                    -0.0035                  4.543409915308115
0.0055                    -0.0025                  4.548361619748158
0.0055                    -0.0015                  4.565020061710562
0.0055                    -5.0E-4                  4.602177713896454
0.0055                    5.0E-4                   4.677038791525074
0.0055                    0.0015                   4.814551541520803
0.0055                    0.0025                   5.029917854526721
0.0055                    0.0035                   5.313799742348754
0.0055                    0.0045                   5.656476996226804
0.0055                    0.0055                   6.077425324693341
0.0055                    0.0065                   6.552250090554173
0.0055                    0.0075                   6.896901477902347
0.0055                    0.0085                   6.857417488507547
0.0055                    0.0095                   6.34301038363488
0.0055                    0.0105                   5.617890547326937
0.0055                    0.0115                   5.07373999172056
0.0055                    0.0125                   4.799933269789815
0.0055                    0.0135                   4.685936678922119
0.0055                    0.0145                   4.65810617165037
0.0055                    0.0155                   4.685433697550769
0.0055                    0.0165                   4.749236949097665
0.0055                    0.0175                   4.819421973354597
0.0055                    0.0185                   4.858999946232869
0.0055                    0.0195                   4.8484108166065365
0.0055                    0.0205                   4.800191869673858
0.0055                    0.0215                   4.741941266927669
0.0055                    0.0225                   4.68826001480319
0.0055                    0.0235                   4.640860818077586
0.0055                    0.0245                   4.598095962831246
0.0055                    0.0255                   4.557445032565967
0.0055                    0.0265                   4.517571271946169
0.0055                    0.0275                   4.478435913958738
0.0055                    0.0285                   4.441335328629084
0.0055                    0.0295                   4.408628975572006
0.0055                    0.0305                   4.383450051060636
0.0055                    0.0315                   4.369415460120266
0.0065                    -0.0315                  3.1734268966369097
0.0065                    -0.0305                  3.201643105297175
0.0065                    -0.0295                  3.252550538414785
0.0065                    -0.0285                  3.318563413846339
0.0065                    -0.0275                  3.393610173068982
0.0065                    -0.0265                  3.4740200351272454
0.0065                    -0.0255                  3.558331797336166
0.0065                    -0.0245                  3.646157596193995
0.0065                    -0.0235                  3.7363857766756197
0.0065                    -0.0225                  3.826271437920541
0.0065                    -0.0215                  3.9137805467731317
0.0065                    -0.0205                  3.9985603781420354
0.0065                    -0.0195                  4.0855197403608505
0.0065                    -0.0185                  4.182789395681747
0.0065                    -0.0175                  4.300689552983972
0.0065                    -0.0165                  4.447775039747016
0.0065                    -0.0155                  4.611740676211607
0.0065                    -0.0145                  4.760549074494315
0.0065                    -0.0135                  4.872984254277597
0.0065                    -0.0125                  4.94564131761281
0.0065                    -0.0115                  4.96853174759442
0.0065                    -0.0105                  4.9286411069812
0.0065                    -0.0095                  4.833518884049642
0.0065                    -0.0085                  4.714895671871021
0.0065                    -0.0075                  4.6139933074594275
0.0065                    -0.0065                  4.557098699439967
0.0065                    -0.0055                  4.537721576075708
0.0065                    -0.0045                  4.5342232333476655
0.0065                    -0.0035                  4.535671655948969
0.0065                    -0.0025                  4.542967781655612
0.0065                    -0.0015                  4.563834102397898
0.0065                    -5.0E-4                  4.612321689494205
0.0065                    5.0E-4                   4.711150376710482
0.0065                    0.0015                   4.897144698166135
0.0065                    0.0025                   5.190439198456922
0.0065                    0.0035                   5.552468234961019
0.0065                    0.0045                   5.928041550714924
0.0065                    0.0055                   6.29027897918932
0.0065                    0.0065                   6.613357597000002
0.0065                    0.0075                   6.804114553414242
0.0065                    0.0085                   6.703270612208604
0.0065                    0.0095                   6.235063026345179
0.0065                    0.0105                   5.5814596162202825
0.0065                    0.0115                   5.055906936077477
0.0065                    0.0125                   4.768194510278215