% Model:              Benchmark260518.mph
% Version:            COMSOL 6.2.0.339
% Date:               May 19 2026, 18:11
% Dimension:          2
% Nodes:              4096
% Expressions:        1
% Description:        压力
% Length unit:        m
% x                       y                        p (Pa)
5.0E-4                    -0.0315                  3.511837650584354
5.0E-4                    -0.0305                  3.5387456238822104
5.0E-4                    -0.0295                  3.5754441420051304
5.0E-4                    -0.0285                  3.6153505094393807
5.0E-4                    -0.0275                  3.657114603092402
5.0E-4                    -0.0265                  3.700261455976169
5.0E-4                    -0.0255                  3.744484475675831
5.0E-4                    -0.0245                  3.789609388231079
5.0E-4                    -0.0235                  3.8354933511669085
5.0E-4                    -0.0225                  3.8820162954339574
5.0E-4                    -0.0215                  3.929061783085676
5.0E-4                    -0.0205                  3.976514836063807
5.0E-4                    -0.0195                  4.024265361214138
5.0E-4                    -0.0185                  4.072217576267291
5.0E-4                    -0.0175                  4.120296198176611
5.0E-4                    -0.0165                  4.168444517853777
5.0E-4                    -0.0155                  4.21662991027922
5.0E-4                    -0.0145                  4.264843731611294
5.0E-4                    -0.0135                  4.313078089577429
5.0E-4                    -0.0125                  4.36132513937131
5.0E-4                    -0.0115                  4.409574461935513
5.0E-4                    -0.0105                  4.457760474084173
5.0E-4                    -0.0095                  4.505768101861324
5.0E-4                    -0.0085                  4.553532723869569
5.0E-4                    -0.0075                  4.6009938146944345
5.0E-4                    -0.0065                  4.648132403520398
5.0E-4                    -0.0055                  4.694269568720577
5.0E-4                    -0.0045                  4.736647661856649
5.0E-4                    -0.0035                  4.771493777247136
5.0E-4                    -0.0025                  4.794847956705696
5.0E-4                    -0.0015                  4.806404444551378
5.0E-4                    -5.0E-4                  4.810588116772114
5.0E-4                    5.0E-4                   4.810931029986996
5.0E-4                    0.0015                   4.808914111415715
5.0E-4                    0.0025                   4.805294958184482
5.0E-4                    0.0035                   4.8004583574575115
5.0E-4                    0.0045                   4.794495153797655
5.0E-4                    0.0055                   4.787112329591487
5.0E-4                    0.0065                   4.777676311120862
5.0E-4                    0.0075                   4.786354833929356
5.0E-4                    0.0085                   4.836307578909314
5.0E-4                    0.0095                   4.8997854312183
5.0E-4                    0.0105                   4.941899270106649
5.0E-4                    0.0115                   4.965871810024873
5.0E-4                    0.0125                   4.982187144987677
5.0E-4                    0.0135                   4.9943714465046956
5.0E-4                    0.0145                   5.002410056071005
5.0E-4                    0.0155                   5.004680753600135
5.0E-4                    0.0165                   5.001607275069212
5.0E-4                    0.0175                   4.995704880145491
5.0E-4                    0.0185                   4.987265390043014
5.0E-4                    0.0195                   4.97610839546493
5.0E-4                    0.0205                   4.9637261910998625
5.0E-4                    0.0215                   4.951678952514044
5.0E-4                    0.0225                   4.939546582853031
5.0E-4                    0.0235                   4.920241560303987
5.0E-4                    0.0245                   4.893978418797474
5.0E-4                    0.0255                   4.875957543184898
5.0E-4                    0.0265                   4.864541404874787
5.0E-4                    0.0275                   4.848863239791648
5.0E-4                    0.0285                   4.830520720119918
5.0E-4                    0.0295                   4.811791337917356
5.0E-4                    0.0305                   4.794259130047954
5.0E-4                    0.0315                   4.781359543669343
0.0015                    -0.0315                  3.484772842550864
0.0015                    -0.0305                  3.51170416043013
0.0015                    -0.0295                  3.5510000006208777
0.0015                    -0.0285                  3.593960136442612
0.0015                    -0.0275                  3.638222187416419
0.0015                    -0.0265                  3.6832983016591827
0.0015                    -0.0255                  3.729067962564923
0.0015                    -0.0245                  3.775495983355374
0.0015                    -0.0235                  3.822566148898998
0.0015                    -0.0225                  3.8702439199433214
0.0015                    -0.0215                  3.918461115981682
0.0015                    -0.0205                  3.967110533054427
0.0015                    -0.0195                  4.016056040795787
0.0015                    -0.0185                  4.065154961208839
0.0015                    -0.0175                  4.114283919138899
0.0015                    -0.0165                  4.163358782471956
0.0015                    -0.0155                  4.212341855292224
0.0015                    -0.0145                  4.261234247336003
0.0015                    -0.0135                  4.310061619148387
0.0015                    -0.0125                  4.358862155161836
0.0015                    -0.0115                  4.407672222240855
0.0015                    -0.0105                  4.456508079053113
0.0015                    -0.0095                  4.50536117096337
0.0015                    -0.0085                  4.554199300645547
0.0015                    -0.0075                  4.602970979929308
0.0015                    -0.0065                  4.651417517953703
0.0015                    -0.0055                  4.698369696889
0.0015                    -0.0045                  4.740850636027861
0.0015                    -0.0035                  4.775152788448269
0.0015                    -0.0025                  4.797293331046585
0.0015                    -0.0015                  4.80779842217619
0.0015                    -5.0E-4                  4.811686525754949
0.0015                    5.0E-4                   4.811804255718544
0.0015                    0.0015                   4.809455941033005
0.0015                    0.0025                   4.805686769436632
0.0015                    0.0035                   4.800988091151123
0.0015                    0.0045                   4.795599047534601
0.0015                    0.0055                   4.790209432781836
0.0015                    0.0065                   4.787596448243753
0.0015                    0.0075                   4.794914233223958
0.0015                    0.0085                   4.836863561939609
0.0015                    0.0095                   4.893192741059695
0.0015                    0.0105                   4.92643350707555
0.0015                    0.0115                   4.945099407898548
0.0015                    0.0125                   4.957877341117832
0.0015                    0.0135                   4.968332148541068
0.0015                    0.0145                   4.977227892856417
0.0015                    0.0155                   4.983220676915448
0.0015                    0.0165                   4.9830314673995915
0.0015                    0.0175                   4.975526234235763
0.0015                    0.0185                   4.96289067475767
0.0015                    0.0195                   4.948496798210561
0.0015                    0.0205                   4.935112711301395
0.0015                    0.0215                   4.92315929564619
0.0015                    0.0225                   4.911505200673031
0.0015                    0.0235                   4.896168414713021
0.0015                    0.0245                   4.882053420562855
0.0015                    0.0255                   4.871307015273235
0.0015                    0.0265                   4.85735783923421
0.0015                    0.0275                   4.839978092453228
0.0015                    0.0285                   4.820341762593467
0.0015                    0.0295                   4.800138575909502
0.0015                    0.0305                   4.781307270693926
0.0015                    0.0315                   4.7681355246845065
0.0025                    -0.0315                  3.4476632477966604
0.0025                    -0.0305                  3.4720393636297366
0.0025                    -0.0295                  3.5113421188345244
0.0025                    -0.0285                  3.556746882742666
0.0025                    -0.0275                  3.604052204882665
0.0025                    -0.0265                  3.6519313954373533
0.0025                    -0.0255                  3.700131864694399
0.0025                    -0.0245                  3.7487039649039207
0.0025                    -0.0235                  3.7977656110381472
0.0025                    -0.0225                  3.8474120262723193
0.0025                    -0.0215                  3.8976650294190507
0.0025                    -0.0205                  3.9484490384069213
0.0025                    -0.0195                  3.9995955801082594
0.0025                    -0.0185                  4.050878793190898
0.0025                    -0.0175                  4.102072802505523
0.0025                    -0.0165                  4.153008830782417
0.0025                    -0.0155                  4.203606847179837
0.0025                    -0.0145                  4.253873006718455
0.0025                    -0.0135                  4.303874621232616
0.0025                    -0.0125                  4.353710701017464
0.0025                    -0.0115                  4.4034941488961605
0.0025                    -0.0105                  4.453343014208945
0.0025                    -0.0095                  4.503343774774596
0.0025                    -0.0085                  4.553466725667574
0.0025                    -0.0075                  4.60340325549709
0.0025                    -0.0065                  4.652257862692664
0.0025                    -0.0055                  4.698303120540084
0.0025                    -0.0045                  4.738930600653946
0.0025                    -0.0035                  4.771511083257903
0.0025                    -0.0025                  4.793711704631488
0.0025                    -0.0015                  4.806333126803192
0.0025                    -5.0E-4                  4.812397481088715
0.0025                    5.0E-4                   4.813311194673805
0.0025                    0.0015                   4.81073309108357
0.0025                    0.0025                   4.806933420221084
0.0025                    0.0035                   4.803478556469707
0.0025                    0.0045                   4.801478756517702
0.0025                    0.0055                   4.802929569239128
0.0025                    0.0065                   4.811678845628638
0.0025                    0.0075                   4.83387758448434
0.0025                    0.0085                   4.86721804688896
0.0025                    0.0095                   4.8972564522134725
0.0025                    0.0105                   4.916899002034013
0.0025                    0.0115                   4.930074297646641
0.0025                    0.0125                   4.940776232098922
0.0025                    0.0135                   4.950400951277985
0.0025                    0.0145                   4.958564030777962
0.0025                    0.0155                   4.963742237502297
0.0025                    0.0165                   4.962917905655485
0.0025                    0.0175                   4.954551652862016
0.0025                    0.0185                   4.941177872870163
0.0025                    0.0195                   4.926484635297092
0.0025                    0.0205                   4.913206923608184
0.0025                    0.0215                   4.9018058796676485
0.0025                    0.0225                   4.891001515209972
0.0025                    0.0235                   4.879633301247044
0.0025                    0.0245                   4.868134862256525
0.0025                    0.0255                   4.855913740502603
0.0025                    0.0265                   4.840473688192416
0.0025                    0.0275                   4.8220542101517
0.0025                    0.0285                   4.801520115782461
0.0025                    0.0295                   4.780307719027246
0.0025                    0.0305                   4.761541313284766
0.0025                    0.0315                   4.749605710302063
0.0035                    -0.0315                  3.407181850090316
0.0035                    -0.0305                  3.4285487886834582
0.0035                    -0.0295                  3.4654697373467527
0.0035                    -0.0285                  3.5109254688043725
0.0035                    -0.0275                  3.5600394290820754
0.0035                    -0.0265                  3.6103786493139514
0.0035                    -0.0255                  3.661085750812674
0.0035                    -0.0245                  3.7120386582801
0.0035                    -0.0235                  3.7633864771686967
0.0035                    -0.0225                  3.815334071873291
0.0035                    -0.0215                  3.8680215930455315
0.0035                    -0.0205                  3.9214494395691064
0.0035                    -0.0195                  3.9754485856392683
0.0035                    -0.0185                  4.029705967925715
0.0035                    -0.0175                  4.083843549579308
0.0035                    -0.0165                  4.137525255751517
0.0035                    -0.0155                  4.190546343263504
0.0035                    -0.0145                  4.242865460175298
0.0035                    -0.0135                  4.294571811276574
0.0035                    -0.0125                  4.345820281626681
0.0035                    -0.0115                  4.396781212091414
0.0035                    -0.0105                  4.447611299692451
0.0035                    -0.0095                  4.498398415762477
0.0035                    -0.0085                  4.548989791240041
0.0035                    -0.0075                  4.5986738122237965
0.0035                    -0.0065                  4.645965908656302
0.0035                    -0.0055                  4.688794579328782
0.0035                    -0.0045                  4.725658772661121
0.0035                    -0.0035                  4.75620293923743
0.0035                    -0.0025                  4.780453482390618
0.0035                    -0.0015                  4.798167998718419
0.0035                    -5.0E-4                  4.80818242778944
0.0035                    5.0E-4                   4.810219444117262
0.0035                    0.0015                   4.80752045098201
0.0035                    0.0025                   4.805103370629222
0.0035                    0.0035                   4.806464206189061
0.0035                    0.0045                   4.813365730713572
0.0035                    0.0055                   4.82691885162607
0.0035                    0.0065                   4.846443157030528
0.0035                    0.0075                   4.868190099670173
0.0035                    0.0085                   4.886732981077948
0.0035                    0.0095                   4.899167427929461
0.0035                    0.0105                   4.907971660214385
0.0035                    0.0115                   4.9164002092071595
0.0035                    0.0125                   4.925264052110048
0.0035                    0.0135                   4.933979095109154
0.0035                    0.0145                   4.940704643076507
0.0035                    0.0155                   4.9431504454680075
0.0035                    0.0165                   4.9397978404884695
0.0035                    0.0175                   4.931030315531578
0.0035                    0.0185                   4.918977693782747
0.0035                    0.0195                   4.905897806889175
0.0035                    0.0205                   4.89353072883071
0.0035                    0.0215                   4.882249368232551
0.0035                    0.0225                   4.871055709129692
0.0035                    0.0235                   4.8590945904452685
0.0035                    0.0245                   4.846389436599374
0.0035                    0.0255                   4.832675612988833
0.0035                    0.0265                   4.81666403793411
0.0035                    0.0275                   4.797911886020918
0.0035                    0.0285                   4.777029763822985
0.0035                    0.0295                   4.756125235064275
0.0035                    0.0305                   4.7388182481910315
0.0035                    0.0315                   4.728819344554472
0.0045                    -0.0315                  3.364843434728924
0.0045                    -0.0305                  3.38374984157402
0.0045                    -0.0295                  3.4177632298030027
0.0045                    -0.0285                  3.4616128074490904
0.0045                    -0.0275                  3.510876562640465
0.0045                    -0.0265                  3.5626085628219637
0.0045                    -0.0255                  3.615275562586878
0.0045                    -0.0245                  3.6683442228940573
0.0045                    -0.0235                  3.7218278802861047
0.0045                    -0.0225                  3.775968821565733
0.0045                    -0.0215                  3.8310304493169847
0.0045                    -0.0205                  3.8871475929445034
0.0045                    -0.0195                  3.9442276267134706
0.0045                    -0.0185                  4.001922710132066
0.0045                    -0.0175                  4.059691889154575
0.0045                    -0.0165                  4.116945491410515
0.0045                    -0.0155                  4.173220253144862
0.0045                    -0.0145                  4.2283002907976535
0.0045                    -0.0135                  4.282222610471496
0.0045                    -0.0125                  4.335173012832471
0.0045                    -0.0115                  4.387345190810535
0.0045                    -0.0105                  4.438842835682247
0.0045                    -0.0095                  4.48960679118263
0.0045                    -0.0085                  4.539271211091499
0.0045                    -0.0075                  4.5868802281312
0.0045                    -0.0065                  4.630700166674953
0.0045                    -0.0055                  4.669256364707767
0.0045                    -0.0045                  4.702213678719408
0.0045                    -0.0035                  4.730930250746907
0.0045                    -0.0025                  4.757101251238062
0.0045                    -0.0015                  4.77872109095577
0.0045                    -5.0E-4                  4.790707536752448
0.0045                    5.0E-4                   4.792603777993705
0.0045                    0.0015                   4.790797362558214
0.0045                    0.0025                   4.793070369951853
0.0045                    0.0035                   4.804074635151537
0.0045                    0.0045                   4.824198509196278
0.0045                    0.0055                   4.8501337097193025
0.0045                    0.0065                   4.874687581034902
0.0045                    0.0075                   4.890469686021618
0.0045                    0.0085                   4.895878201486906
0.0045                    0.0095                   4.89632487897791
0.0045                    0.0105                   4.898160790748756
0.0045                    0.0115                   4.902757135349227
0.0045                    0.0125                   4.908673534609749
0.0045                    0.0135                   4.914199463847749
0.0045                    0.0145                   4.916700912314296
0.0045                    0.0155                   4.9145232419773714
0.0045                    0.0165                   4.908523548643494
0.0045                    0.0175                   4.900545996628427
0.0045                    0.0185                   4.89191324112495
0.0045                    0.0195                   4.882959068269443
0.0045                    0.0205                   4.873263295737262
0.0045                    0.0215                   4.86243362484492
0.0045                    0.0225                   4.8504100447180765
0.0045                    0.0235                   4.8374589050316406
0.0045                    0.0245                   4.823417206876939
0.0045                    0.0255                   4.8077447565791385
0.0045                    0.0265                   4.790373428427754
0.0045                    0.0275                   4.771154232246598
0.0045                    0.0285                   4.750613229583043
0.0045                    0.0295                   4.7308924550933495
0.0045                    0.0305                   4.715430775188082
0.0045                    0.0315                   4.707384717414423
0.0055                    -0.0315                  3.3211711335806253
0.0055                    -0.0305                  3.3382463880208437
0.0055                    -0.0295                  3.3696919470753537
0.0055                    -0.0285                  3.4114326027603403
0.0055                    -0.0275                  3.459750697498187
0.0055                    -0.0265                  3.5117614704976505
0.0055                    -0.0255                  3.565551742991465
0.0055                    -0.0245                  3.620150247583167
0.0055                    -0.0235                  3.6753010744975994
0.0055                    -0.0225                  3.731182319378538
0.0055                    -0.0215                  3.7881545311989835
0.0055                    -0.0205                  3.846541887497642
0.0055                    -0.0195                  3.906443770761957
0.0055                    -0.0185                  3.967606474932416
0.0055                    -0.0175                  4.029403526364862
0.0055                    -0.0165                  4.09095721448748
0.0055                    -0.0155                  4.151384310257326
0.0055                    -0.0145                  4.210068009024656
0.0055                    -0.0135                  4.266800630174807
0.0055                    -0.0125                  4.321711532619702
0.0055                    -0.0115                  4.375017227283966
0.0055                    -0.0105                  4.426751846244243
0.0055                    -0.0095                  4.476629392287849
0.0055                    -0.0085                  4.524021985290612
0.0055                    -0.0075                  4.567966353654981
0.0055                    -0.0065                  4.607302939490823
0.0055                    -0.0055                  4.641949854177229
0.0055                    -0.0045                  4.672156322737896
0.0055                    -0.0035                  4.69947021376696
0.0055                    -0.0025                  4.72531377022194
0.0055                    -0.0015                  4.746137168040216
0.0055                    -5.0E-4                  4.756613135709528
0.0055                    5.0E-4                   4.758275005103673
0.0055                    0.0015                   4.760371143498837
0.0055                    0.0025                   4.771422638144128
0.0055                    0.0035                   4.794125959778586
0.0055                    0.0045                   4.825729497804882
0.0055                    0.0055                   4.85931059817767
0.0055                    0.0065                   4.885223975301924
0.0055                    0.0075                   4.896192157360212
0.0055                    0.0085                   4.893925756044475
0.0055                    0.0095                   4.8878516796982465
0.0055                    0.0105                   4.884968926935133
0.0055                    0.0115                   4.885216358639978
0.0055                    0.0125                   4.8856810163231765
0.0055                    0.0135                   4.883510431119584
0.0055                    0.0145                   4.877568579270656
0.0055                    0.0155                   4.869508204164752
0.0055                    0.0165                   4.862065142681509
0.0055                    0.0175                   4.857049759665345
0.0055                    0.0185                   4.854407507895621
0.0055                    0.0195                   4.85231153537573
0.0055                    0.0205                   4.848109689320303
0.0055                    0.0215                   4.839987865545834
0.0055                    0.0225                   4.82848000557994
0.0055                    0.0235                   4.815215763883563
0.0055                    0.0245                   4.800558218090934
0.0055                    0.0255                   4.783768936517946
0.0055                    0.0265                   4.76499398714802
0.0055                    0.0275                   4.745403636202826
0.0055                    0.0285                   4.725835321057859
0.0055                    0.0295                   4.707607215890663
0.0055                    0.0305                   4.6937354862053
0.0055                    0.0315                   4.687283872724726
0.0065                    -0.0315                  3.276459856498047
0.0065                    -0.0305                  3.2922049924202836
0.0065                    -0.0295                  3.3216355331847196
0.0065                    -0.0285                  3.36142770133492
0.0065                    -0.0275                  3.4084316844931846
0.0065                    -0.0265                  3.4600200300668753
0.0065                    -0.0255                  3.5141865891022315
0.0065                    -0.0245                  3.5696544300984976
0.0065                    -0.0235                  3.625863386883067
0.0065                    -0.0225                  3.682833098749445
0.0065                    -0.0215                  3.740959556853239
0.0065                    -0.0205                  3.8007788230136104
0.0065                    -0.0195                  3.8627072541544942
0.0065                    -0.0185                  3.926787921891818
0.0065                    -0.0175                  3.9925163500293603
0.0065                    -0.0165                  4.058835180122526
0.0065                    -0.0155                  4.124349102337201
0.0065                    -0.0145                  4.187732580692416
0.0065                    -0.0135                  4.2481528483052795
0.0065                    -0.0125                  4.30541950321871
0.0065                    -0.0115                  4.359764647988717
0.0065                    -0.0105                  4.411339152568415
0.0065                    -0.0095                  4.459789469966161
0.0065                    -0.0085                  4.5042566743567205
0.0065                    -0.0075                  4.543846625844481
0.0065                    -0.0065                  4.5785156696054194
0.0065                    -0.0055                  4.609426342585158
0.0065                    -0.0045                  4.637700633660556
0.0065                    -0.0035                  4.663938461222478
0.0065                    -0.0025                  4.68750545242365
0.0065                    -0.0015                  4.705002894666066
0.0065                    -5.0E-4                  4.713912207041775
0.0065                    5.0E-4                   4.7188424253662635
0.0065                    0.0015                   4.728895232261238
0.0065                    0.0025                   4.749592970022363
0.0065                    0.0035                   4.780772087225974
0.0065                    0.0045                   4.8180100615152135
0.0065                    0.0055                   4.853490924520981
0.0065                    0.0065                   4.878076354079085
0.0065                    0.0075                   4.885846739033262
0.0065                    0.0085                   4.879218149995459
0.0065                    0.0095                   4.868023426239571
0.0065                    0.0105                   4.859582749400392
0.0065                    0.0115                   4.853123658240831
0.0065                    0.0125                   4.844017009580666