% Model:              Benchmark260518.mph
% Version:            COMSOL 6.2.0.339
% Date:               May 20 2026, 07:21
% Dimension:          2
% Nodes:              4096
% Expressions:        1
% Description:        压力
% Length unit:        m
% x                       y                        p (Pa)
5.0E-4                    -0.0315                  3.6214867725833892
5.0E-4                    -0.0305                  3.649491904212999
5.0E-4                    -0.0295                  3.687595988460246
5.0E-4                    -0.0285                  3.72902941268181
5.0E-4                    -0.0275                  3.7723863623402467
5.0E-4                    -0.0265                  3.8171855638913526
5.0E-4                    -0.0255                  3.8631567699304026
5.0E-4                    -0.0245                  3.9101958187022534
5.0E-4                    -0.0235                  3.958219531611197
5.0E-4                    -0.0225                  4.007142623857904
5.0E-4                    -0.0215                  4.056874465100643
5.0E-4                    -0.0205                  4.107330682418536
5.0E-4                    -0.0195                  4.158446468287703
5.0E-4                    -0.0185                  4.21019246631239
5.0E-4                    -0.0175                  4.262577946127845
5.0E-4                    -0.0165                  4.31565563300099
5.0E-4                    -0.0155                  4.369537978410687
5.0E-4                    -0.0145                  4.424342910988826
5.0E-4                    -0.0135                  4.480217554437523
5.0E-4                    -0.0125                  4.536293002031892
5.0E-4                    -0.0115                  4.589012841621213
5.0E-4                    -0.0105                  4.6337092506265325
5.0E-4                    -0.0095                  4.665207232770806
5.0E-4                    -0.0085                  4.682325601144974
5.0E-4                    -0.0075                  4.6897199172389685
5.0E-4                    -0.0065                  4.691398848372726
5.0E-4                    -0.0055                  4.689401110243427
5.0E-4                    -0.0045                  4.68526310572104
5.0E-4                    -0.0035                  4.6808099144455495
5.0E-4                    -0.0025                  4.67800095604553
5.0E-4                    -0.0015                  4.677444117551121
5.0E-4                    -5.0E-4                  4.677152807645385
5.0E-4                    5.0E-4                   4.673414833873467
5.0E-4                    0.0015                   4.663154932578547
5.0E-4                    0.0025                   4.646170596513544
5.0E-4                    0.0035                   4.6256239936854655
5.0E-4                    0.0045                   4.605980810837251
5.0E-4                    0.0055                   4.5896156716622
5.0E-4                    0.0065                   4.575648712993102
5.0E-4                    0.0075                   4.589185849860422
5.0E-4                    0.0085                   4.687469157846533
5.0E-4                    0.0095                   4.834789488533287
5.0E-4                    0.0105                   4.942990459380192
5.0E-4                    0.0115                   5.002267490736718
5.0E-4                    0.0125                   5.032115157246635
5.0E-4                    0.0135                   5.045714959040383
5.0E-4                    0.0145                   5.0496844452979515
5.0E-4                    0.0155                   5.045427785544443
5.0E-4                    0.0165                   5.032248764182518
5.0E-4                    0.0175                   5.009836071420899
5.0E-4                    0.0185                   4.9829486919182795
5.0E-4                    0.0195                   4.96066704831594
5.0E-4                    0.0205                   4.948284381903312
5.0E-4                    0.0215                   4.94535701698071
5.0E-4                    0.0225                   4.947258071239465
5.0E-4                    0.0235                   4.939660424913898
5.0E-4                    0.0245                   4.908989980132819
5.0E-4                    0.0255                   4.865978295605234
5.0E-4                    0.0265                   4.824234487631584
5.0E-4                    0.0275                   4.783023349472939
5.0E-4                    0.0285                   4.742489442242778
5.0E-4                    0.0295                   4.704207896845638
5.0E-4                    0.0305                   4.669708893382937
5.0E-4                    0.0315                   4.644558226345007
0.0015                    -0.0315                  3.593263608728633
0.0015                    -0.0305                  3.621347655252207
0.0015                    -0.0295                  3.6621611156134035
0.0015                    -0.0285                  3.706658249497672
0.0015                    -0.0275                  3.7523512244596935
0.0015                    -0.0265                  3.798725720704099
0.0015                    -0.0255                  3.8457192547654797
0.0015                    -0.0245                  3.89341692847947
0.0015                    -0.0235                  3.941940882340005
0.0015                    -0.0225                  3.991363956542329
0.0015                    -0.0215                  4.041678097750605
0.0015                    -0.0205                  4.092805411840505
0.0015                    -0.0195                  4.144642800365503
0.0015                    -0.0185                  4.197113668807902
0.0015                    -0.0175                  4.250210334290119
0.0015                    -0.0165                  4.304029783098206
0.0015                    -0.0155                  4.358820646346974
0.0015                    -0.0145                  4.415012004468396
0.0015                    -0.0135                  4.472843042685705
0.0015                    -0.0125                  4.531209815814126
0.0015                    -0.0115                  4.586237217711274
0.0015                    -0.0105                  4.63270094394138
0.0015                    -0.0095                  4.664707387160414
0.0015                    -0.0085                  4.682091986232855
0.0015                    -0.0075                  4.690467026800866
0.0015                    -0.0065                  4.692678406999707
0.0015                    -0.0055                  4.689905405691023
0.0015                    -0.0045                  4.683532787648414
0.0015                    -0.0035                  4.67586300468597
0.0015                    -0.0025                  4.66994815092923
0.0015                    -0.0015                  4.66748589797994
0.0015                    -5.0E-4                  4.667175002097773
0.0015                    5.0E-4                   4.665176100405782
0.0015                    0.0015                   4.657515206147172
0.0015                    0.0025                   4.642901476513005
0.0015                    0.0035                   4.624166259750717
0.0015                    0.0045                   4.60629879083133
0.0015                    0.0055                   4.593448417864369
0.0015                    0.0065                   4.591501718005443
0.0015                    0.0075                   4.611118720474302
0.0015                    0.0085                   4.713814554798887
0.0015                    0.0095                   4.859488972295572
0.0015                    0.0105                   4.952894440694678
0.0015                    0.0115                   5.002358751871703
0.0015                    0.0125                   5.025606645735989
0.0015                    0.0135                   5.0361988000264155
0.0015                    0.0145                   5.039865237264496
0.0015                    0.0155                   5.037510387713402
0.0015                    0.0165                   5.024855536841034
0.0015                    0.0175                   4.995804726577977
0.0015                    0.0185                   4.956063562339036
0.0015                    0.0195                   4.922889259581495
0.0015                    0.0205                   4.903582590745477
0.0015                    0.0215                   4.893454421743225
0.0015                    0.0225                   4.887348818491682
0.0015                    0.0235                   4.8790359079804215
0.0015                    0.0245                   4.862292904713242
0.0015                    0.0255                   4.833821797679252
0.0015                    0.0265                   4.797991852961705
0.0015                    0.0275                   4.760094178336202
0.0015                    0.0285                   4.720723546506041
0.0015                    0.0295                   4.681333691888299
0.0015                    0.0305                   4.644616069488463
0.0015                    0.0315                   4.619211080570834
0.0025                    -0.0315                  3.5544796489808452
0.0025                    -0.0305                  3.580052391427498
0.0025                    -0.0295                  3.62094615359155
0.0025                    -0.0285                  3.6678608597471807
0.0025                    -0.0275                  3.716311765906015
0.0025                    -0.0265                  3.764861095252913
0.0025                    -0.0255                  3.813316064017312
0.0025                    -0.0245                  3.8619236655253433
0.0025                    -0.0235                  3.9110745792903905
0.0025                    -0.0225                  3.96112754642334
0.0025                    -0.0215                  4.012281429015152
0.0025                    -0.0205                  4.064532520199954
0.0025                    -0.0195                  4.117730878480993
0.0025                    -0.0185                  4.171697640820004
0.0025                    -0.0175                  4.2263380044553225
0.0025                    -0.0165                  4.281711302711789
0.0025                    -0.0155                  4.338065892478716
0.0025                    -0.0145                  4.395762805091614
0.0025                    -0.0135                  4.454852641978565
0.0025                    -0.0125                  4.514058349721147
0.0025                    -0.0115                  4.569661675845051
0.0025                    -0.0105                  4.6172628399847815
0.0025                    -0.0095                  4.651972719699479
0.0025                    -0.0085                  4.673899873216626
0.0025                    -0.0075                  4.686351706056372
0.0025                    -0.0065                  4.688397869698314
0.0025                    -0.0055                  4.6799228270863305
0.0025                    -0.0045                  4.664802347522933
0.0025                    -0.0035                  4.648905442570324
0.0025                    -0.0025                  4.637316969124586
0.0025                    -0.0015                  4.632873974843859
0.0025                    -5.0E-4                  4.635219374647209
0.0025                    5.0E-4                   4.640951396721454
0.0025                    0.0015                   4.645201117604497
0.0025                    0.0025                   4.644599228482274
0.0025                    0.0035                   4.639390079582612
0.0025                    0.0045                   4.634603527998683
0.0025                    0.0055                   4.638855567580972
0.0025                    0.0065                   4.662381614464096
0.0025                    0.0075                   4.723759415778875
0.0025                    0.0085                   4.8206244961558244
0.0025                    0.0095                   4.911235450859974
0.0025                    0.0105                   4.969983740371516
0.0025                    0.0115                   5.00192653656295
0.0025                    0.0125                   5.017642111207628
0.0025                    0.0135                   5.025666982713761
0.0025                    0.0145                   5.028959482689158
0.0025                    0.0155                   5.026080862624282
0.0025                    0.0165                   5.009475912970354
0.0025                    0.0175                   4.972689083209063
0.0025                    0.0185                   4.923858060382523
0.0025                    0.0195                   4.880967577404704
0.0025                    0.0205                   4.853343884569745
0.0025                    0.0215                   4.836995146236552
0.0025                    0.0225                   4.824555113890787
0.0025                    0.0235                   4.812358905276014
0.0025                    0.0245                   4.797580973152308
0.0025                    0.0255                   4.777039563880179
0.0025                    0.0265                   4.750595702054806
0.0025                    0.0275                   4.719133398712576
0.0025                    0.0285                   4.682863321524449
0.0025                    0.0295                   4.6437725477790215
0.0025                    0.0305                   4.607501396878119
0.0025                    0.0315                   4.584419409295651
0.0035                    -0.0315                  3.5119573128258192
0.0035                    -0.0305                  3.534590521265658
0.0035                    -0.0295                  3.573174262342629
0.0035                    -0.0285                  3.620097852634071
0.0035                    -0.0275                  3.6700501598819533
0.0035                    -0.0265                  3.7203414769946903
0.0035                    -0.0255                  3.7701044540094566
0.0035                    -0.0245                  3.8194514831049284
0.0035                    -0.0235                  3.8689544164146272
0.0035                    -0.0225                  3.919316521790918
0.0035                    -0.0215                  3.9711047786504228
0.0035                    -0.0205                  4.024559343009999
0.0035                    -0.0195                  4.079562962578676
0.0035                    -0.0185                  4.135787035980318
0.0035                    -0.0175                  4.192900904446002
0.0035                    -0.0165                  4.250697526439381
0.0035                    -0.0155                  4.309034793109037
0.0035                    -0.0145                  4.367644566800031
0.0035                    -0.0135                  4.425888771694068
0.0035                    -0.0125                  4.482442662422981
0.0035                    -0.0115                  4.5350753169775455
0.0035                    -0.0105                  4.582061883918538
0.0035                    -0.0095                  4.620937398376871
0.0035                    -0.0085                  4.649940051108648
0.0035                    -0.0075                  4.666100526989029
0.0035                    -0.0065                  4.663708996987163
0.0035                    -0.0055                  4.643956380136604
0.0035                    -0.0045                  4.616302054847664
0.0035                    -0.0035                  4.59051131774763
0.0035                    -0.0025                  4.573543616403586
0.0035                    -0.0015                  4.569544756262729
0.0035                    -5.0E-4                  4.578940705887458
0.0035                    5.0E-4                   4.599841308837613
0.0035                    0.0015                   4.6283814917156345
0.0035                    0.0025                   4.659044285544134
0.0035                    0.0035                   4.687919105322596
0.0035                    0.0045                   4.71642576584981
0.0035                    0.0055                   4.750731321557716
0.0035                    0.0065                   4.797433448851351
0.0035                    0.0075                   4.856612506853416
0.0035                    0.0085                   4.915237965235633
0.0035                    0.0095                   4.958258260743783
0.0035                    0.0105                   4.98382008791009
0.0035                    0.0115                   4.998425235367701
0.0035                    0.0125                   5.007710490176093
0.0035                    0.0135                   5.0140042496282415
0.0035                    0.0145                   5.016574306524225
0.0035                    0.0155                   5.010631415588117
0.0035                    0.0165                   4.986265278702382
0.0035                    0.0175                   4.938792400135922
0.0035                    0.0185                   4.8793902198107055
0.0035                    0.0195                   4.826853909749392
0.0035                    0.0205                   4.792649919463595
0.0035                    0.0215                   4.7733482948909485
0.0035                    0.0225                   4.7586248211561175
0.0035                    0.0235                   4.743901917937782
0.0035                    0.0245                   4.72822244773657
0.0035                    0.0255                   4.7110825872427755
0.0035                    0.0265                   4.69184867553929
0.0035                    0.0275                   4.667428861598269
0.0035                    0.0285                   4.635642263976208
0.0035                    0.0295                   4.59937907302176
0.0035                    0.0305                   4.566269446897913
0.0035                    0.0315                   4.546116791796903
0.0045                    -0.0315                  3.4673640708328928
0.0045                    -0.0305                  3.487525421802042
0.0045                    -0.0295                  3.5232363680948984
0.0045                    -0.0285                  3.5685225351490915
0.0045                    -0.0275                  3.6183949257492554
0.0045                    -0.0265                  3.6694729385090827
0.0045                    -0.0255                  3.7200479942643474
0.0045                    -0.0245                  3.769751079740189
0.0045                    -0.0235                  3.819102068995425
0.0045                    -0.0225                  3.8690996373371247
0.0045                    -0.0215                  3.920825476836562
0.0045                    -0.0205                  3.9750513364660183
0.0045                    -0.0195                  4.031953548319224
0.0045                    -0.0185                  4.091101918524551
0.0045                    -0.0175                  4.15172207095017
0.0045                    -0.0165                  4.212950627904751
0.0045                    -0.0155                  4.2738530812490945
0.0045                    -0.0145                  4.333159965620723
0.0045                    -0.0135                  4.3892349066967355
0.0045                    -0.0125                  4.440636944759907
0.0045                    -0.0115                  4.487266549330669
0.0045                    -0.0105                  4.530498830718647
0.0045                    -0.0095                  4.570921318600554
0.0045                    -0.0085                  4.604341155329799
0.0045                    -0.0075                  4.620184206329353
0.0045                    -0.0065                  4.610667680994847
0.0045                    -0.0055                  4.5809888643303545
0.0045                    -0.0045                  4.545225637800943
0.0045                    -0.0035                  4.516760252258144
0.0045                    -0.0025                  4.503146186509936
0.0045                    -0.0015                  4.506168632756451
0.0045                    -5.0E-4                  4.525570351334915
0.0045                    5.0E-4                   4.5622035824038925
0.0045                    0.0015                   4.616471791189976
0.0045                    0.0025                   4.684148490802132
0.0045                    0.0035                   4.75644376483907
0.0045                    0.0045                   4.825169286879395
0.0045                    0.0055                   4.886453219407008
0.0045                    0.0065                   4.937457329197604
0.0045                    0.0075                   4.97253734303516
0.0045                    0.0085                   4.988215178610627
0.0045                    0.0095                   4.990426597954156
0.0045                    0.0105                   4.989830565035428
0.0045                    0.0115                   4.992046722793175
0.0045                    0.0125                   4.996695449335564
0.0045                    0.0135                   5.001149563798406
0.0045                    0.0145                   5.001139054669112
0.0045                    0.0155                   4.988000970579012
0.0045                    0.0165                   4.951401928304673
0.0045                    0.0175                   4.891101109749604
0.0045                    0.0185                   4.822175683710619
0.0045                    0.0195                   4.763785823410794
0.0045                    0.0205                   4.726506826035134
0.0045                    0.0215                   4.705820664102203
0.0045                    0.0225                   4.690480890809783
0.0045                    0.0235                   4.67593391536797
0.0045                    0.0245                   4.6616562866540185
0.0045                    0.0255                   4.6473996063635346
0.0045                    0.0265                   4.63188161605914
0.0045                    0.0275                   4.611562234957733
0.0045                    0.0285                   4.583966767484968
0.0045                    0.0295                   4.551856086383595
0.0045                    0.0305                   4.522777435714948
0.0045                    0.0315                   4.505327309190543
0.0055                    -0.0315                  3.4212503359979554
0.0055                    -0.0305                  3.43945257637301
0.0055                    -0.0295                  3.4724800434477823
0.0055                    -0.0285                  3.5155883168506468
0.0055                    -0.0275                  3.564412099996269
0.0055                    -0.0265                  3.6154517965609947
0.0055                    -0.0255                  3.666363838256382
0.0055                    -0.0245                  3.716109684796138
0.0055                    -0.0235                  3.7648558172223847
0.0055                    -0.0225                  3.813700113968534
0.0055                    -0.0215                  3.864271106480892
0.0055                    -0.0205                  3.918193342841757
0.0055                    -0.0195                  3.97645525747693
0.0055                    -0.0185                  4.038896037358835
0.0055                    -0.0175                  4.104182401334635
0.0055                    -0.0165                  4.170295882908251
0.0055                    -0.0155                  4.23495011925964
0.0055                    -0.0145                  4.295748377994642
0.0055                    -0.0135                  4.350108852801936
0.0055                    -0.0125                  4.396529993332271
0.0055                    -0.0115                  4.436483115539016
0.0055                    -0.0105                  4.473780126482827
0.0055                    -0.0095                  4.510613957948966
0.0055                    -0.0085                  4.541988406161803
0.0055                    -0.0075                  4.554657177609787
0.0055                    -0.0065                  4.54082837895558
0.0055                    -0.0055                  4.509367153233961
0.0055                    -0.0045                  4.478092941888177
0.0055                    -0.0035                  4.460498104681945
0.0055                    -0.0025                  4.4594431421958385
0.0055                    -0.0015                  4.472509381456087
0.0055                    -5.0E-4                  4.500036359615487
0.0055                    5.0E-4                   4.546914272189233
0.0055                    0.0015                   4.6182741463904415
0.0055                    0.0025                   4.711965561459837
0.0055                    0.0035                   4.814365395432484
0.0055                    0.0045                   4.909259930920422
0.0055                    0.0055                   4.985711123004162
0.0055                    0.0065                   5.033546697454003
0.0055                    0.0075                   5.046369296891972
0.0055                    0.0085                   5.031106467672252
0.0055                    0.0095                   5.006361248457896
0.0055                    0.0105                   4.989293727026916
0.0055                    0.0115                   4.9839780959945035
0.0055                    0.0125                   4.984884578267442
0.0055                    0.0135                   4.985767210397171
0.0055                    0.0145                   4.9789628855312555
0.0055                    0.0155                   4.953077145874053
0.0055                    0.0165                   4.9007082312056935
0.0055                    0.0175                   4.827855088548135
0.0055                    0.0185                   4.752809435598242
0.0055                    0.0195                   4.693478519399292
0.0055                    0.0205                   4.656075479710008
0.0055                    0.0215                   4.634187775085074
0.0055                    0.0225                   4.619020937062922
0.0055                    0.0235                   4.607336078724109
0.0055                    0.0245                   4.597155201951718
0.0055                    0.0255                   4.586470154528516
0.0055                    0.0265                   4.573154792896107
0.0055                    0.0275                   4.554783677688614
0.0055                    0.0285                   4.530421777336977
0.0055                    0.0295                   4.502555387893221
0.0055                    0.0305                   4.477437330173629
0.0055                    0.0315                   4.462394186276714
0.0065                    -0.0315                  3.3739051236171256
0.0065                    -0.0305                  3.39047519827432
0.0065                    -0.0295                  3.421105162466584
0.0065                    -0.0285                  3.4620121337299246
0.0065                    -0.0275                  3.509476004399
0.0065                    -0.0265                  3.5601483827079403
0.0065                    -0.0255                  3.6112955055723583
0.0065                    -0.0245                  3.661163975738222
0.0065                    -0.0235                  3.7092689140771733
0.0065                    -0.0225                  3.756466672373829
0.0065                    -0.0215                  3.804757398218718
0.0065                    -0.0205                  3.8567765539397754
0.0065                    -0.0195                  3.9149370702612396
0.0065                    -0.0185                  3.9802530140070482
0.0065                    -0.0175                  4.051299715153753
0.0065                    -0.0165                  4.12437191940455
0.0065                    -0.0155                  4.195014227039241
0.0065                    -0.0145                  4.259020880612138
0.0065                    -0.0135                  4.313324361671215
0.0065                    -0.0125                  4.3570707975110095
0.0065                    -0.0115                  4.392347401502466
0.0065                    -0.0105                  4.423808636282318
0.0065                    -0.0095                  4.454088399349785
0.0065                    -0.0085                  4.479523681278531
0.0065                    -0.0075                  4.4887698572341375
0.0065                    -0.0065                  4.4754245989671215
0.0065                    -0.0055                  4.4516497837308275
0.0065                    -0.0045                  4.435336775709442
0.0065                    -0.0035                  4.433099446780666
0.0065                    -0.0025                  4.44245586007233
0.0065                    -0.0015                  4.461645869353076
0.0065                    -5.0E-4                  4.494197336492545
0.0065                    5.0E-4                   4.548990688622469
0.0065                    0.0015                   4.6327860042700095
0.0065                    0.0025                   4.738976764617179
0.0065                    0.0035                   4.849511219195486
0.0065                    0.0045                   4.949307196659418
0.0065                    0.0055                   5.027343921414974
0.0065                    0.0065                   5.070546801198198
0.0065                    0.0075                   5.072800856777595
0.0065                    0.0085                   5.044429414017316
0.0065                    0.0095                   5.008178679422929
0.0065                    0.0105                   4.9835084181423746
0.0065                    0.0115                   4.973338510215143
0.0065                    0.0125                   4.969607418523085