% Model:              Benchmark260518.mph
% Version:            COMSOL 6.2.0.339
% Date:               May 21 2026, 10:33
% Dimension:          2
% Nodes:              4096
% Expressions:        1
% Description:        压力
% Length unit:        m
% x                       y                        p (Pa)
5.0E-4                    -0.0315                  4.204992241803591
5.0E-4                    -0.0305                  4.2313933238348955
5.0E-4                    -0.0295                  4.2674282903472776
5.0E-4                    -0.0285                  4.3065783749563025
5.0E-4                    -0.0275                  4.347440930369426
5.0E-4                    -0.0265                  4.389394787845405
5.0E-4                    -0.0255                  4.431918936051211
5.0E-4                    -0.0245                  4.47461689533414
5.0E-4                    -0.0235                  4.5171071100159725
5.0E-4                    -0.0225                  4.559204277858882
5.0E-4                    -0.0215                  4.600320455948576
5.0E-4                    -0.0205                  4.638128781515201
5.0E-4                    -0.0195                  4.669530607944703
5.0E-4                    -0.0185                  4.691239264485451
5.0E-4                    -0.0175                  4.702961398503415
5.0E-4                    -0.0165                  4.708386007553473
5.0E-4                    -0.0155                  4.710496644631403
5.0E-4                    -0.0145                  4.710628225773213
5.0E-4                    -0.0135                  4.709452204610473
5.0E-4                    -0.0125                  4.707361498224113
5.0E-4                    -0.0115                  4.70470591667702
5.0E-4                    -0.0105                  4.7019972052250605
5.0E-4                    -0.0095                  4.699847974889291
5.0E-4                    -0.0085                  4.698806783113259
5.0E-4                    -0.0075                  4.699176041530897
5.0E-4                    -0.0065                  4.700909352905782
5.0E-4                    -0.0055                  4.7037203639533995
5.0E-4                    -0.0045                  4.707236572411592
5.0E-4                    -0.0035                  4.711100554687288
5.0E-4                    -0.0025                  4.715083631616347
5.0E-4                    -0.0015                  4.719128000145911
5.0E-4                    -5.0E-4                  4.723348615674463
5.0E-4                    5.0E-4                   4.728056420010864
5.0E-4                    0.0015                   4.733767194783627
5.0E-4                    0.0025                   4.741147366344984
5.0E-4                    0.0035                   4.750845689884942
5.0E-4                    0.0045                   4.763183840337598
5.0E-4                    0.0055                   4.777740499297196
5.0E-4                    0.0065                   4.7928748321833705
5.0E-4                    0.0075                   4.805598662100525
5.0E-4                    0.0085                   4.812260892947965
5.0E-4                    0.0095                   4.8100800237033745
5.0E-4                    0.0105                   4.798678963892229
5.0E-4                    0.0115                   4.780760724791156
5.0E-4                    0.0125                   4.761084537392744
5.0E-4                    0.0135                   4.744083214461145
5.0E-4                    0.0145                   4.731282279096671
5.0E-4                    0.0155                   4.732229844814492
5.0E-4                    0.0165                   4.781574534819602
5.0E-4                    0.0175                   4.8738092278554035
5.0E-4                    0.0185                   4.94833661081859
5.0E-4                    0.0195                   4.9851877848198605
5.0E-4                    0.0205                   5.001015494309177
5.0E-4                    0.0215                   5.007473698302667
5.0E-4                    0.0225                   5.011005958899615
5.0E-4                    0.0235                   5.011880106298149
5.0E-4                    0.0245                   5.009000435048114
5.0E-4                    0.0255                   5.003601368848736
5.0E-4                    0.0265                   4.999169060826786
5.0E-4                    0.0275                   4.996782268036815
5.0E-4                    0.0285                   4.995070130024164
5.0E-4                    0.0295                   4.993485508699589
5.0E-4                    0.0305                   4.991042383002581
5.0E-4                    0.0315                   4.987252977455519
0.0015                    -0.0315                  4.178449988361644
0.0015                    -0.0305                  4.20501629609823
0.0015                    -0.0295                  4.243986659097232
0.0015                    -0.0285                  4.286910162253637
0.0015                    -0.0275                  4.331477173927213
0.0015                    -0.0265                  4.3770703655937275
0.0015                    -0.0255                  4.423266618616813
0.0015                    -0.0245                  4.469602717059365
0.0015                    -0.0235                  4.515623373623532
0.0015                    -0.0225                  4.560777920806316
0.0015                    -0.0215                  4.603810142588079
0.0015                    -0.0205                  4.642026150127901
0.0015                    -0.0195                  4.672425232520358
0.0015                    -0.0185                  4.692271336337902
0.0015                    -0.0175                  4.7027112416965196
0.0015                    -0.0165                  4.708157275366564
0.0015                    -0.0155                  4.710680161946218
0.0015                    -0.0145                  4.710953534498184
0.0015                    -0.0135                  4.709811610506456
0.0015                    -0.0125                  4.7077903672618095
0.0015                    -0.0115                  4.70486549201983
0.0015                    -0.0105                  4.701422320444161
0.0015                    -0.0095                  4.698522838291958
0.0015                    -0.0085                  4.697083096452923
0.0015                    -0.0075                  4.697468576713429
0.0015                    -0.0065                  4.699547397687084
0.0015                    -0.0055                  4.702909208775688
0.0015                    -0.0045                  4.707028710445478
0.0015                    -0.0035                  4.71142140394801
0.0015                    -0.0025                  4.715802920086732
0.0015                    -0.0015                  4.7200467999101665
0.0015                    -5.0E-4                  4.724169760119126
0.0015                    5.0E-4                   4.728396734191044
0.0015                    0.0015                   4.733186169056568
0.0015                    0.0025                   4.739191060503501
0.0015                    0.0035                   4.747159627104134
0.0015                    0.0045                   4.757587854789601
0.0015                    0.0055                   4.770270838129012
0.0015                    0.0065                   4.784092541283973
0.0015                    0.0075                   4.796638505909263
0.0015                    0.0085                   4.804291028875319
0.0015                    0.0095                   4.803841547436695
0.0015                    0.0105                   4.794270935029281
0.0015                    0.0115                   4.777774429795292
0.0015                    0.0125                   4.759217962962511
0.0015                    0.0135                   4.743857315976447
0.0015                    0.0145                   4.737246274369672
0.0015                    0.0155                   4.74673481387385
0.0015                    0.0165                   4.813974855668251
0.0015                    0.0175                   4.914792753014004
0.0015                    0.0185                   4.976508971151539
0.0015                    0.0195                   4.998012745449976
0.0015                    0.0205                   4.999511069975376
0.0015                    0.0215                   4.996671469763655
0.0015                    0.0225                   4.995519141401812
0.0015                    0.0235                   4.995571988152369
0.0015                    0.0245                   4.994599639612299
0.0015                    0.0255                   4.991234534998645
0.0015                    0.0265                   4.9862063030818735
0.0015                    0.0275                   4.981054613163567
0.0015                    0.0285                   4.976170836311786
0.0015                    0.0295                   4.971070388978923
0.0015                    0.0305                   4.965909535402361
0.0015                    0.0315                   4.962865964763985
0.0025                    -0.0315                  4.142057818907383
0.0025                    -0.0305                  4.16636317472584
0.0025                    -0.0295                  4.205993951855419
0.0025                    -0.0285                  4.252595435756769
0.0025                    -0.0275                  4.302227648576048
0.0025                    -0.0265                  4.353503023541666
0.0025                    -0.0255                  4.405734533589165
0.0025                    -0.0245                  4.458181932158601
0.0025                    -0.0235                  4.509829965164952
0.0025                    -0.0225                  4.559185788837253
0.0025                    -0.0215                  4.604038269896971
0.0025                    -0.0205                  4.641486311287386
0.0025                    -0.0195                  4.669467239233109
0.0025                    -0.0185                  4.687356883483941
0.0025                    -0.0175                  4.697790412377104
0.0025                    -0.0165                  4.704396177397538
0.0025                    -0.0155                  4.707411510366988
0.0025                    -0.0145                  4.706953915020451
0.0025                    -0.0135                  4.705705248938111
0.0025                    -0.0125                  4.704205723027917
0.0025                    -0.0115                  4.700286547447147
0.0025                    -0.0105                  4.694836198367021
0.0025                    -0.0095                  4.690697429601925
0.0025                    -0.0085                  4.689427218714016
0.0025                    -0.0075                  4.691106945108469
0.0025                    -0.0065                  4.695006072424226
0.0025                    -0.0055                  4.7002426193506235
0.0025                    -0.0045                  4.70602427854911
0.0025                    -0.0035                  4.711738704146271
0.0025                    -0.0025                  4.7169855242080025
0.0025                    -0.0015                  4.7214994630712255
0.0025                    -5.0E-4                  4.7251667125835155
0.0025                    5.0E-4                   4.728120960675602
0.0025                    0.0015                   4.73081617039864
0.0025                    0.0025                   4.733995788050281
0.0025                    0.0035                   4.738587647044749
0.0025                    0.0045                   4.745468042912004
0.0025                    0.0055                   4.754976934254942
0.0025                    0.0065                   4.766656540986297
0.0025                    0.0075                   4.7789505895594795
0.0025                    0.0085                   4.789113425263131
0.0025                    0.0095                   4.7940525687674
0.0025                    0.0105                   4.791751508461088
0.0025                    0.0115                   4.783326346437665
0.0025                    0.0125                   4.7733641468384596
0.0025                    0.0135                   4.769988488086071
0.0025                    0.0145                   4.784737961204054
0.0025                    0.0155                   4.835144236191724
0.0025                    0.0165                   4.921581351628642
0.0025                    0.0175                   4.997111839126254
0.0025                    0.0185                   5.027064480887956
0.0025                    0.0195                   5.022449296370526
0.0025                    0.0205                   5.004859770684776
0.0025                    0.0215                   4.9910467989689575
0.0025                    0.0225                   4.984909828824424
0.0025                    0.0235                   4.982920760717451
0.0025                    0.0245                   4.980938185858047
0.0025                    0.0255                   4.97734450453871
0.0025                    0.0265                   4.971902221243978
0.0025                    0.0275                   4.964927044237855
0.0025                    0.0285                   4.957150462151291
0.0025                    0.0295                   4.949512372877638
0.0025                    0.0305                   4.943514356890332
0.0025                    0.0315                   4.94036886387591
0.0035                    -0.0315                  4.102412962427343
0.0035                    -0.0305                  4.124171838056003
0.0035                    -0.0295                  4.162330650112036
0.0035                    -0.0285                  4.210466118394396
0.0035                    -0.0275                  4.264169053241153
0.0035                    -0.0265                  4.3210846334828314
0.0035                    -0.0255                  4.379840873462894
0.0035                    -0.0245                  4.439075128433581
0.0035                    -0.0235                  4.496860301141825
0.0035                    -0.0225                  4.550442987461801
0.0035                    -0.0215                  4.5965247045986635
0.0035                    -0.0205                  4.632362633935276
0.0035                    -0.0195                  4.657738425600154
0.0035                    -0.0185                  4.6744813241881165
0.0035                    -0.0175                  4.685758009891329
0.0035                    -0.0165                  4.693441073180175
0.0035                    -0.0155                  4.695857942598529
0.0035                    -0.0145                  4.692989052475595
0.0035                    -0.0135                  4.690875331323083
0.0035                    -0.0125                  4.6905779942956745
0.0035                    -0.0115                  4.686090644561384
0.0035                    -0.0105                  4.679076711387989
0.0035                    -0.0095                  4.6754270875799335
0.0035                    -0.0085                  4.676665690519116
0.0035                    -0.0075                  4.68164136972258
0.0035                    -0.0065                  4.6887647226438816
0.0035                    -0.0055                  4.696755161210667
0.0035                    -0.0045                  4.704722480089988
0.0035                    -0.0035                  4.712046620758254
0.0035                    -0.0025                  4.71825462619398
0.0035                    -0.0015                  4.722970291608715
0.0035                    -5.0E-4                  4.725970808391578
0.0035                    5.0E-4                   4.727320387125604
0.0035                    0.0015                   4.727519340254622
0.0035                    0.0025                   4.727506020544498
0.0035                    0.0035                   4.728467807016756
0.0035                    0.0045                   4.73161678948531
0.0035                    0.0055                   4.7378101423455945
0.0035                    0.0065                   4.747203947317594
0.0035                    0.0075                   4.759195727330937
0.0035                    0.0085                   4.77252224152332
0.0035                    0.0095                   4.78567236574173
0.0035                    0.0105                   4.797132659570323
0.0035                    0.0115                   4.806952813782768
0.0035                    0.0125                   4.8195333061139065
0.0035                    0.0135                   4.844271174877406
0.0035                    0.0145                   4.892584053680901
0.0035                    0.0155                   4.968073991344168
0.0035                    0.0165                   5.04800577283486
0.0035                    0.0175                   5.093460911747469
0.0035                    0.0185                   5.0903817536301315
0.0035                    0.0195                   5.0560211628917395
0.0035                    0.0205                   5.016847265783136
0.0035                    0.0215                   4.990283376455215
0.0035                    0.0225                   4.9781547747007
0.0035                    0.0235                   4.973469872570257
0.0035                    0.0245                   4.96959228320458
0.0035                    0.0255                   4.9642747691669715
0.0035                    0.0265                   4.956858676477792
0.0035                    0.0275                   4.947610708287936
0.0035                    0.0285                   4.937640451159866
0.0035                    0.0295                   4.928438637624804
0.0035                    0.0305                   4.921578895444879
0.0035                    0.0315                   4.9179389040278245
0.0045                    -0.0315                  4.060916592670715
0.0045                    -0.0305                  4.080998353467898
0.0045                    -0.0295                  4.11750965271381
0.0045                    -0.0285                  4.165652008193687
0.0045                    -0.0275                  4.221535270288113
0.0045                    -0.0265                  4.282460050845937
0.0045                    -0.0255                  4.346459905148374
0.0045                    -0.0245                  4.411508776215744
0.0045                    -0.0235                  4.474803150480904
0.0045                    -0.0225                  4.532442378970001
0.0045                    -0.0215                  4.580007347901164
0.0045                    -0.0205                  4.614992030317555
0.0045                    -0.0195                  4.638566841882591
0.0045                    -0.0185                  4.654471317515013
0.0045                    -0.0175                  4.666277305018294
0.0045                    -0.0165                  4.67415046933602
0.0045                    -0.0155                  4.675523387381496
0.0045                    -0.0145                  4.670480345889008
0.0045                    -0.0135                  4.665871901632358
0.0045                    -0.0125                  4.66467307937567
0.0045                    -0.0115                  4.661615563738382
0.0045                    -0.0105                  4.657968709027474
0.0045                    -0.0095                  4.659099751279783
0.0045                    -0.0085                  4.665171920466544
0.0045                    -0.0075                  4.674101920478039
0.0045                    -0.0065                  4.684171479488105
0.0045                    -0.0055                  4.6942784714904295
0.0045                    -0.0045                  4.703723534116752
0.0045                    -0.0035                  4.7120101960859895
0.0045                    -0.0025                  4.7187098435721095
0.0045                    -0.0015                  4.723420680130761
0.0045                    -5.0E-4                  4.725857128882485
0.0045                    5.0E-4                   4.726047277652105
0.0045                    0.0015                   4.724539310997727
0.0045                    0.0025                   4.722449599972607
0.0045                    0.0035                   4.7212300093558435
0.0045                    0.0045                   4.7222453657861365
0.0045                    0.0055                   4.7264744381851305
0.0045                    0.0065                   4.734444482457973
0.0045                    0.0075                   4.746361671136828
0.0045                    0.0085                   4.7623355474808164
0.0045                    0.0095                   4.782786576906098
0.0045                    0.0105                   4.808219987911748
0.0045                    0.0115                   4.839433553858507
0.0045                    0.0125                   4.880036567943123
0.0045                    0.0135                   4.935879462048723
0.0045                    0.0145                   5.010148861068533
0.0045                    0.0155                   5.094230693451833
0.0045                    0.0165                   5.160741260819333
0.0045                    0.0175                   5.181139617384835
0.0045                    0.0185                   5.151121730510971
0.0045                    0.0195                   5.091475842319545
0.0045                    0.0205                   5.032249750190731
0.0045                    0.0215                   4.992666532523343
0.0045                    0.0225                   4.9736360458980915
0.0045                    0.0235                   4.965438111883616
0.0045                    0.0245                   4.958959991331618
0.0045                    0.0255                   4.950967706493843
0.0045                    0.0265                   4.940618412538933
0.0045                    0.0275                   4.928746230729035
0.0045                    0.0285                   4.917056443055092
0.0045                    0.0295                   4.90680538852791
0.0045                    0.0305                   4.899191982071114
0.0045                    0.0315                   4.895103972002839
0.0055                    -0.0315                  4.0179000033632235
0.0055                    -0.0305                  4.037434264932925
0.0055                    -0.0295                  4.073267686432404
0.0055                    -0.0285                  4.121186219469127
0.0055                    -0.0275                  4.177710659605914
0.0055                    -0.0265                  4.240271398025804
0.0055                    -0.0255                  4.306875646935321
0.0055                    -0.0245                  4.37538860943024
0.0055                    -0.0235                  4.4426853345391795
0.0055                    -0.0225                  4.504200484890052
0.0055                    -0.0215                  4.554639343481471
0.0055                    -0.0205                  4.59123647337854
0.0055                    -0.0195                  4.614880333904094
0.0055                    -0.0185                  4.630121332648771
0.0055                    -0.0175                  4.641630723083214
0.0055                    -0.0165                  4.649236708599117
0.0055                    -0.0155                  4.650429587776761
0.0055                    -0.0145                  4.6453260172272905
0.0055                    -0.0135                  4.638976251881144
0.0055                    -0.0125                  4.636044548366423
0.0055                    -0.0115                  4.6364094551944675
0.0055                    -0.0105                  4.640066264569938
0.0055                    -0.0095                  4.6477678764484835
0.0055                    -0.0085                  4.658278519793478
0.0055                    -0.0075                  4.669941859537999
0.0055                    -0.0065                  4.681599183136662
0.0055                    -0.0055                  4.692550435054419
0.0055                    -0.0045                  4.702359122779053
0.0055                    -0.0035                  4.710672849823595
0.0055                    -0.0025                  4.717123098086747
0.0055                    -0.0015                  4.7213310647182025
0.0055                    -5.0E-4                  4.723036913088654
0.0055                    5.0E-4                   4.72233929226598
0.0055                    0.0015                   4.719917931258191
0.0055                    0.0025                   4.717070418099054
0.0055                    0.0035                   4.715417187455231
0.0055                    0.0045                   4.716385531749205
0.0055                    0.0055                   4.720891605531417
0.0055                    0.0065                   4.729370235781317
0.0055                    0.0075                   4.742207937010649
0.0055                    0.0085                   4.760269083523307
0.0055                    0.0095                   4.785032800120229
0.0055                    0.0105                   4.818582931543819
0.0055                    0.0115                   4.863460209520561
0.0055                    0.0125                   4.922286835383766
0.0055                    0.0135                   4.996432886659518
0.0055                    0.0145                   5.082947636471301
0.0055                    0.0155                   5.16801758856203
0.0055                    0.0165                   5.225686789041387
0.0055                    0.0175                   5.233189118744301
0.0055                    0.0185                   5.188607941002788
0.0055                    0.0195                   5.113742143019387
0.0055                    0.0205                   5.041491341420847
0.0055                    0.0215                   4.992903068707836
0.0055                    0.0225                   4.968249423978096
0.0055                    0.0235                   4.956345996833743
0.0055                    0.0245                   4.946632010955816
0.0055                    0.0255                   4.93529327928017
0.0055                    0.0265                   4.922101873006496
0.0055                    0.0275                   4.90815633632388
0.0055                    0.0285                   4.895126131639611
0.0055                    0.0295                   4.884141155093388
0.0055                    0.0305                   4.876059473547216
0.0055                    0.0315                   4.871744653933971
0.0065                    -0.0315                  3.9732249298633495
0.0065                    -0.0305                  3.993489540879926
0.0065                    -0.0295                  4.030217053318776
0.0065                    -0.0285                  4.078755638858658
0.0065                    -0.0275                  4.135311971866145
0.0065                    -0.0265                  4.197286671270284
0.0065                    -0.0255                  4.263151658926638
0.0065                    -0.0245                  4.331679153432107
0.0065                    -0.0235                  4.400624304543044
0.0065                    -0.0225                  4.465627733130887
0.0065                    -0.0215                  4.520696589752839
0.0065                    -0.0205                  4.561750333130819
0.0065                    -0.0195                  4.587981782128929
0.0065                    -0.0185                  4.6037302967279405
0.0065                    -0.0175                  4.614993565097717
0.0065                    -0.0165                  4.622573660993746
0.0065                    -0.0155                  4.624309809227598
0.0065                    -0.0145                  4.620263041212698
0.0065                    -0.0135                  4.614929079866571
0.0065                    -0.0125                  4.613697122440647
0.0065                    -0.0115                  4.618411794430658
0.0065                    -0.0105                  4.627789807062766
0.0065                    -0.0095                  4.639966023860998
0.0065                    -0.0085                  4.653284092908221
0.0065                    -0.0075                  4.666494710103258
0.0065                    -0.0065                  4.678796256536898
0.0065                    -0.0055                  4.689738963872343
0.0065                    -0.0045                  4.699030489667273
0.0065                    -0.0035                  4.706362247588018
0.0065                    -0.0025                  4.711354795601158
0.0065                    -0.0015                  4.713631316568335
0.0065                    -5.0E-4                  4.713036305944852
0.0065                    5.0E-4                   4.709993885840713
0.0065                    0.0015                   4.7057891483626095
0.0065                    0.0025                   4.702360110576141
0.0065                    0.0035                   4.701695543346377
0.0065                    0.0045                   4.705078306403273
0.0065                    0.0055                   4.712714751456902
0.0065                    0.0065                   4.724336149895617
0.0065                    0.0075                   4.740096288723413
0.0065                    0.0085                   4.760985388852686
0.0065                    0.0095                   4.788874455511609
0.0065                    0.0105                   4.82636696651778
0.0065                    0.0115                   4.876267577919704
0.0065                    0.0125                   4.940597530471558
0.0065                    0.0135                   5.0185344199902415