% Model:              Benchmark260518.mph
% Version:            COMSOL 6.2.0.339
% Date:               May 21 2026, 13:45
% Dimension:          2
% Nodes:              4096
% Expressions:        1
% Description:        压力
% Length unit:        m
% x                       y                        p (Pa)
5.0E-4                    -0.0315                  4.060252412980951
5.0E-4                    -0.0305                  4.082921418124392
5.0E-4                    -0.0295                  4.114138419126061
5.0E-4                    -0.0285                  4.148563489839923
5.0E-4                    -0.0275                  4.184567922475264
5.0E-4                    -0.0265                  4.221297455258367
5.0E-4                    -0.0255                  4.258317422693643
5.0E-4                    -0.0245                  4.295374711532932
5.0E-4                    -0.0235                  4.332235716806117
5.0E-4                    -0.0225                  4.368644888137174
5.0E-4                    -0.0215                  4.404296986260212
5.0E-4                    -0.0205                  4.438788391445112
5.0E-4                    -0.0195                  4.471509509482805
5.0E-4                    -0.0185                  4.501667497267081
5.0E-4                    -0.0175                  4.528301614374631
5.0E-4                    -0.0165                  4.550244094057467
5.0E-4                    -0.0155                  4.566207331287076
5.0E-4                    -0.0145                  4.575162461304203
5.0E-4                    -0.0135                  4.576960227041669
5.0E-4                    -0.0125                  4.573567532779327
5.0E-4                    -0.0115                  4.568334579988219
5.0E-4                    -0.0105                  4.563270325769373
5.0E-4                    -0.0095                  4.55980004865219
5.0E-4                    -0.0085                  4.568394234907743
5.0E-4                    -0.0075                  4.640578127865478
5.0E-4                    -0.0065                  4.819799787360785
5.0E-4                    -0.0055                  5.011466659816106
5.0E-4                    -0.0045                  5.120196288773445
5.0E-4                    -0.0035                  5.153366758039595
5.0E-4                    -0.0025                  5.1360738641809585
5.0E-4                    -0.0015                  5.099800192968983
5.0E-4                    -5.0E-4                  5.064450951869862
5.0E-4                    5.0E-4                   5.038062384300384
5.0E-4                    0.0015                   5.020811701454045
5.0E-4                    0.0025                   5.010170266699093
5.0E-4                    0.0035                   5.004210371595417
5.0E-4                    0.0045                   5.002760190336663
5.0E-4                    0.0055                   5.007020007083646
5.0E-4                    0.0065                   5.017432131165556
5.0E-4                    0.0075                   5.02505905862724
5.0E-4                    0.0085                   5.018182033005846
5.0E-4                    0.0095                   5.0119883412198725
5.0E-4                    0.0105                   5.015870323253359
5.0E-4                    0.0115                   5.018152024979136
5.0E-4                    0.0125                   5.015601077184056
5.0E-4                    0.0135                   5.006639396362366
5.0E-4                    0.0145                   4.987948626583628
5.0E-4                    0.0155                   4.956545925335076
5.0E-4                    0.0165                   4.9144706878217885
5.0E-4                    0.0175                   4.865988712105706
5.0E-4                    0.0185                   4.814223515872068
5.0E-4                    0.0195                   4.761702533651418
5.0E-4                    0.0205                   4.709669033663502
5.0E-4                    0.0215                   4.658429198653413
5.0E-4                    0.0225                   4.607727725509925
5.0E-4                    0.0235                   4.557296248305537
5.0E-4                    0.0245                   4.507176816483429
5.0E-4                    0.0255                   4.457507301583371
5.0E-4                    0.0265                   4.408410079875398
5.0E-4                    0.0275                   4.3600719728902515
5.0E-4                    0.0285                   4.312858756517928
5.0E-4                    0.0295                   4.267526304981953
5.0E-4                    0.0305                   4.2260304599478005
5.0E-4                    0.0315                   4.195673824320062
0.0015                    -0.0315                  4.037914582006889
0.0015                    -0.0305                  4.06134929824513
0.0015                    -0.0295                  4.095912273981002
0.0015                    -0.0285                  4.134383531427963
0.0015                    -0.0275                  4.174454052054655
0.0015                    -0.0265                  4.215208940883719
0.0015                    -0.0255                  4.256192163597591
0.0015                    -0.0245                  4.2971520548882935
0.0015                    -0.0235                  4.337878417078337
0.0015                    -0.0225                  4.378115562615916
0.0015                    -0.0215                  4.41751191389327
0.0015                    -0.0205                  4.455534006870444
0.0015                    -0.0195                  4.491397479625017
0.0015                    -0.0185                  4.524022460906846
0.0015                    -0.0175                  4.551996509917842
0.0015                    -0.0165                  4.573625547413485
0.0015                    -0.0155                  4.587239724176998
0.0015                    -0.0145                  4.591882377825419
0.0015                    -0.0135                  4.588455779729686
0.0015                    -0.0125                  4.580484853770128
0.0015                    -0.0115                  4.572164951270337
0.0015                    -0.0105                  4.56401178881236
0.0015                    -0.0095                  4.557761445092796
0.0015                    -0.0085                  4.554340143145005
0.0015                    -0.0075                  4.65485198297936
0.0015                    -0.0065                  4.889501515362121
0.0015                    -0.0055                  5.108633336263528
0.0015                    -0.0045                  5.229317538972626
0.0015                    -0.0035                  5.256504571111693
0.0015                    -0.0025                  5.2232913951580775
0.0015                    -0.0015                  5.16785886871407
0.0015                    -5.0E-4                  5.114379965143215
0.0015                    5.0E-4                   5.07231827447357
0.0015                    0.0015                   5.042160580696368
0.0015                    0.0025                   5.021324539919438
0.0015                    0.0035                   5.007367956829396
0.0015                    0.0045                   4.999427211921265
0.0015                    0.0055                   4.997996330792423
0.0015                    0.0065                   5.002016717498563
0.0015                    0.0075                   5.005354673937863
0.0015                    0.0085                   5.0054520292550455
0.0015                    0.0095                   5.009028205886818
0.0015                    0.0105                   5.015925567505612
0.0015                    0.0115                   5.018985219771512
0.0015                    0.0125                   5.0154207252147796
0.0015                    0.0135                   5.00490583003833
0.0015                    0.0145                   4.986012545100502
0.0015                    0.0155                   4.95496013547896
0.0015                    0.0165                   4.9124072230976426
0.0015                    0.0175                   4.862956825199077
0.0015                    0.0185                   4.8102389701712145
0.0015                    0.0195                   4.757058377247897
0.0015                    0.0205                   4.704397913562007
0.0015                    0.0215                   4.652234051729296
0.0015                    0.0225                   4.6002722765112685
0.0015                    0.0235                   4.548310379563011
0.0015                    0.0245                   4.496317795209992
0.0015                    0.0255                   4.44437191276612
0.0015                    0.0265                   4.39257662148146
0.0015                    0.0275                   4.341081997343167
0.0015                    0.0285                   4.290221036209557
0.0015                    0.0295                   4.240904578244389
0.0015                    0.0305                   4.196041536354894
0.0015                    0.0315                   4.16530481270142
0.0025                    -0.0315                  4.00713830647587
0.0025                    -0.0305                  4.02999028376734
0.0025                    -0.0295                  4.067072231443851
0.0025                    -0.0285                  4.110750426825581
0.0025                    -0.0275                  4.157113108070093
0.0025                    -0.0265                  4.204543340354628
0.0025                    -0.0255                  4.252330168387342
0.0025                    -0.0245                  4.300090500465683
0.0025                    -0.0235                  4.347528780083476
0.0025                    -0.0225                  4.394287408813588
0.0025                    -0.0215                  4.439840447397286
0.0025                    -0.0205                  4.4833987227867365
0.0025                    -0.0195                  4.523786888766842
0.0025                    -0.0185                  4.559345922384657
0.0025                    -0.0175                  4.587972075995953
0.0025                    -0.0165                  4.607452039985868
0.0025                    -0.0155                  4.616207144012612
0.0025                    -0.0145                  4.61452394473426
0.0025                    -0.0135                  4.605305099492248
0.0025                    -0.0125                  4.593030660089781
0.0025                    -0.0115                  4.580367657038003
0.0025                    -0.0105                  4.568837127294488
0.0025                    -0.0095                  4.5622706321663085
0.0025                    -0.0085                  4.592375244881458
0.0025                    -0.0075                  4.756345724893337
0.0025                    -0.0065                  5.022522283083829
0.0025                    -0.0055                  5.246841498572128
0.0025                    -0.0045                  5.369162860174981
0.0025                    -0.0035                  5.38634350887077
0.0025                    -0.0025                  5.335032827748899
0.0025                    -0.0015                  5.257522685489723
0.0025                    -5.0E-4                  5.181664356265793
0.0025                    5.0E-4                   5.1191009768235105
0.0025                    0.0015                   5.070749131187251
0.0025                    0.0025                   5.033901104657393
0.0025                    0.0035                   5.006112163840293
0.0025                    0.0045                   4.986184214550071
0.0025                    0.0055                   4.973922895628152
0.0025                    0.0065                   4.968908899114009
0.0025                    0.0075                   4.969784342416825
0.0025                    0.0085                   4.975990449647028
0.0025                    0.0095                   4.987885364197579
0.0025                    0.0105                   5.0020120909435875
0.0025                    0.0115                   5.010586309338665
0.0025                    0.0125                   5.00761489956862
0.0025                    0.0135                   4.9936422075828855
0.0025                    0.0145                   4.971696075135934
0.0025                    0.0155                   4.939937240490328
0.0025                    0.0165                   4.89833712335972
0.0025                    0.0175                   4.850464605093412
0.0025                    0.0185                   4.799032359607329
0.0025                    0.0195                   4.746448415508374
0.0025                    0.0205                   4.693428985825268
0.0025                    0.0215                   4.639928996548178
0.0025                    0.0225                   4.5858225764390586
0.0025                    0.0235                   4.531064768117106
0.0025                    0.0245                   4.475692226013527
0.0025                    0.0255                   4.419803211354134
0.0025                    0.0265                   4.363547704760295
0.0025                    0.0275                   4.307194756715884
0.0025                    0.0285                   4.251411811004418
0.0025                    0.0295                   4.1980627603082015
0.0025                    0.0305                   4.152081245974845
0.0025                    0.0315                   4.12341463376505
0.0035                    -0.0315                  3.97293357538446
0.0035                    -0.0305                  3.9954541436539275
0.0035                    -0.0295                  4.034158884002444
0.0035                    -0.0285                  4.0824841930020765
0.0035                    -0.0275                  4.135695788748827
0.0035                    -0.0265                  4.19106822453838
0.0035                    -0.0255                  4.2472303568564405
0.0035                    -0.0245                  4.3034463369336535
0.0035                    -0.0235                  4.359182052191071
0.0035                    -0.0225                  4.413841424041826
0.0035                    -0.0215                  4.46658022164884
0.0035                    -0.0205                  4.516156361778806
0.0035                    -0.0195                  4.5607686723482725
0.0035                    -0.0185                  4.598013437030851
0.0035                    -0.0175                  4.625260613906656
0.0035                    -0.0165                  4.64042513769823
0.0035                    -0.0155                  4.643272468106316
0.0035                    -0.0145                  4.636332608435624
0.0035                    -0.0135                  4.62380538589579
0.0035                    -0.0125                  4.608492569323688
0.0035                    -0.0115                  4.593000274908096
0.0035                    -0.0105                  4.580779778537018
0.0035                    -0.0095                  4.58434169831453
0.0035                    -0.0085                  4.665619142693313
0.0035                    -0.0075                  4.883560127738181
0.0035                    -0.0065                  5.166127323240491
0.0035                    -0.0055                  5.395486590142051
0.0035                    -0.0045                  5.515013975250076
0.0035                    -0.0035                  5.521064762576884
0.0035                    -0.0025                  5.452689783341147
0.0035                    -0.0015                  5.353518484870809
0.0035                    -5.0E-4                  5.254447715235398
0.0035                    5.0E-4                   5.1694868240146565
0.0035                    0.0015                   5.100359114210084
0.0035                    0.0025                   5.044766668635581
0.0035                    0.0035                   5.000724463940078
0.0035                    0.0045                   4.966747909989175
0.0035                    0.0055                   4.942108147398212
0.0035                    0.0065                   4.927051194389517
0.0035                    0.0075                   4.922312127752752
0.0035                    0.0085                   4.928493620225611
0.0035                    0.0095                   4.944682861823314
0.0035                    0.0105                   4.965523466040584
0.0035                    0.0115                   4.9813526614371035
0.0035                    0.0125                   4.982247706012477
0.0035                    0.0135                   4.966477542276678
0.0035                    0.0145                   4.940278128058584
0.0035                    0.0155                   4.907052482772557
0.0035                    0.0165                   4.868385277315666
0.0035                    0.0175                   4.825671698704426
0.0035                    0.0185                   4.7790236709675025
0.0035                    0.0195                   4.729189128015504
0.0035                    0.0205                   4.676672764009025
0.0035                    0.0215                   4.621883042614893
0.0035                    0.0225                   4.565170951637718
0.0035                    0.0235                   4.506851656518116
0.0035                    0.0245                   4.447207520933122
0.0035                    0.0255                   4.386512994883948
0.0035                    0.0265                   4.325122661078077
0.0035                    0.0275                   4.263694790768192
0.0035                    0.0285                   4.203695865500798
0.0035                    0.0295                   4.14831936597076
0.0035                    0.0305                   4.103346465473406
0.0035                    0.0315                   4.076915819831862
0.0045                    -0.0315                  3.936477310783874
0.0045                    -0.0305                  3.959419427337264
0.0045                    -0.0295                  4.0000670500312205
0.0045                    -0.0285                  4.052715003202197
0.0045                    -0.0275                  4.112594140171892
0.0045                    -0.0265                  4.1761969363271305
0.0045                    -0.0255                  4.241296612138728
0.0045                    -0.0245                  4.306555876816397
0.0045                    -0.0235                  4.371036873979522
0.0045                    -0.0225                  4.4337939147299466
0.0045                    -0.0215                  4.493553324238333
0.0045                    -0.0205                  4.548461443292455
0.0045                    -0.0195                  4.595963472276132
0.0045                    -0.0185                  4.632992899202325
0.0045                    -0.0175                  4.656931023236542
0.0045                    -0.0165                  4.666993992843854
0.0045                    -0.0155                  4.665346227256002
0.0045                    -0.0145                  4.656160781313557
0.0045                    -0.0135                  4.642180224304185
0.0045                    -0.0125                  4.626081649174708
0.0045                    -0.0115                  4.6105456109425935
0.0045                    -0.0105                  4.6013642499535194
0.0045                    -0.0095                  4.629254459493643
0.0045                    -0.0085                  4.7571667365261066
0.0045                    -0.0075                  4.996597729072336
0.0045                    -0.0065                  5.275950970840359
0.0045                    -0.0055                  5.507004306982214
0.0045                    -0.0045                  5.623799235097342
0.0045                    -0.0035                  5.621982312834636
0.0045                    -0.0025                  5.5422689569497035
0.0045                    -0.0015                  5.427697592945947
0.0045                    -5.0E-4                  5.311465226250091
0.0045                    5.0E-4                   5.208977416032116
0.0045                    0.0015                   5.123273313884587
0.0045                    0.0025                   5.053278762295643
0.0045                    0.0035                   4.997254712197462
0.0045                    0.0045                   4.953158946545104
0.0045                    0.0055                   4.9195185601329765
0.0045                    0.0065                   4.895681626869105
0.0045                    0.0075                   4.88205393293725
0.0045                    0.0085                   4.88037887197533
0.0045                    0.0095                   4.89178135535921
0.0045                    0.0105                   4.912333506326676
0.0045                    0.0115                   4.931239328903655
0.0045                    0.0125                   4.9357177307363855
0.0045                    0.0135                   4.9207363471024665
0.0045                    0.0145                   4.892520576012866
0.0045                    0.0155                   4.859850435794559
0.0045                    0.0165                   4.8263537597122275
0.0045                    0.0175                   4.791002063044411
0.0045                    0.0185                   4.751168465243183
0.0045                    0.0195                   4.70546360813348
0.0045                    0.0205                   4.654209822984071
0.0045                    0.0215                   4.598375885930343
0.0045                    0.0225                   4.5389833709893646
0.0045                    0.0235                   4.476869430500574
0.0045                    0.0245                   4.412694769279299
0.0045                    0.0255                   4.347050033127906
0.0045                    0.0265                   4.28067885511642
0.0045                    0.0275                   4.214871249970379
0.0045                    0.0285                   4.152010148600816
0.0045                    0.0295                   4.09603038296167
0.0045                    0.0305                   4.05237326884616
0.0045                    0.0315                   4.027558618748867
0.0055                    -0.0315                  3.8981716323546793
0.0055                    -0.0305                  3.92216553933002
0.0055                    -0.0295                  3.9654149432659347
0.0055                    -0.0285                  4.022626855324523
0.0055                    -0.0275                  4.0890701669179625
0.0055                    -0.0265                  4.160773867834859
0.0055                    -0.0255                  4.234723451956139
0.0055                    -0.0245                  4.308821918222872
0.0055                    -0.0235                  4.381569333581945
0.0055                    -0.0225                  4.451600983194808
0.0055                    -0.0215                  4.517216825656867
0.0055                    -0.0205                  4.5760152466509165
0.0055                    -0.0195                  4.624833944348638
0.0055                    -0.0185                  4.660342380224943
0.0055                    -0.0175                  4.680666604483942
0.0055                    -0.0165                  4.68715016790828
0.0055                    -0.0155                  4.684029336247538
0.0055                    -0.0145                  4.674717672308946
0.0055                    -0.0135                  4.661512734545564
0.0055                    -0.0125                  4.646315617498281
0.0055                    -0.0115                  4.630235038860288
0.0055                    -0.0105                  4.627835275213084
0.0055                    -0.0095                  4.676000056857998
0.0055                    -0.0085                  4.8110701357844725
0.0055                    -0.0075                  5.031686769345764
0.0055                    -0.0065                  5.294398339723489
0.0055                    -0.0055                  5.524040782280657
0.0055                    -0.0045                  5.645844048675993
0.0055                    -0.0035                  5.649118738551653
0.0055                    -0.0025                  5.572904194192234
0.0055                    -0.0015                  5.458876427762151
0.0055                    -5.0E-4                  5.339343434413157
0.0055                    5.0E-4                   5.230714025207302
0.0055                    0.0015                   5.1381135173937205
0.0055                    0.0025                   5.0616369833800325
0.0055                    0.0035                   4.999641033088273
0.0055                    0.0045                   4.949983437585552
0.0055                    0.0055                   4.910803114441292
0.0055                    0.0065                   4.880904363641508
0.0055                    0.0075                   4.8596640674069524
0.0055                    0.0085                   4.847559164379271
0.0055                    0.0095                   4.846786118853226
0.0055                    0.0105                   4.857643576807063
0.0055                    0.0115                   4.872141803848967
0.0055                    0.0125                   4.8764317122467435
0.0055                    0.0135                   4.8629661438440595
0.0055                    0.0145                   4.837039381717838
0.0055                    0.0155                   4.808310231372521
0.0055                    0.0165                   4.7805661089669
0.0055                    0.0175                   4.751660267611925
0.0055                    0.0185                   4.717744482091287
0.0055                    0.0195                   4.676067902478154
0.0055                    0.0205                   4.62624109148929
0.0055                    0.0215                   4.56962235432785
0.0055                    0.0225                   4.507806698045144
0.0055                    0.0235                   4.442152891277636
0.0055                    0.0245                   4.373726121789763
0.0055                    0.0255                   4.303497392800448
0.0055                    0.0265                   4.232732548046038
0.0055                    0.0275                   4.163433075785543
0.0055                    0.0285                   4.098650037009573
0.0055                    0.0295                   4.042483199536025
0.0055                    0.0305                   3.999814781476968
0.0055                    0.0315                   3.9760663660929376
0.0065                    -0.0315                  3.858153145389478
0.0065                    -0.0305                  3.883575692005846
0.0065                    -0.0295                  3.929918335350208
0.0065                    -0.0285                  3.992051007499316
0.0065                    -0.0275                  4.065159136009998
0.0065                    -0.0265                  4.144839854040026
0.0065                    -0.0255                  4.227318318868943
0.0065                    -0.0245                  4.309627224954267
0.0065                    -0.0235                  4.389547343063879
0.0065                    -0.0225                  4.465259651524239
0.0065                    -0.0215                  4.53480640601027
0.0065                    -0.0205                  4.595604069815851
0.0065                    -0.0195                  4.644465772160508
0.0065                    -0.0185                  4.678522342547801
0.0065                    -0.0175                  4.697290770171165
0.0065                    -0.0165                  4.703416273023283
0.0065                    -0.0155                  4.701445392110731
0.0065                    -0.0145                  4.694540073234953
0.0065                    -0.0135                  4.682910177817139
0.0065                    -0.0125                  4.664705687238558
0.0065                    -0.0115                  4.644150239571058
0.0065                    -0.0105                  4.640828286253197
0.0065                    -0.0095                  4.682270512242054
0.0065                    -0.0085                  4.787758576643681
0.0065                    -0.0075                  4.962052892748698
0.0065                    -0.0065                  5.189580053237822
0.0065                    -0.0055                  5.413837587624992
0.0065                    -0.0045                  5.557146072869745
0.0065                    -0.0035                  5.591883034132472
0.0065                    -0.0025                  5.5450146823027575
0.0065                    -0.0015                  5.45260686365873
0.0065                    -5.0E-4                  5.344621964850287
0.0065                    5.0E-4                   5.240058080077953
0.0065                    0.0015                   5.147458941307904
0.0065                    0.0025                   5.068912222451665
0.0065                    0.0035                   5.003513509936688
0.0065                    0.0045                   4.949536162866089
0.0065                    0.0055                   4.90562059883586
0.0065                    0.0065                   4.871068171105873
0.0065                    0.0075                   4.845217901584528
0.0065                    0.0085                   4.826855102138208
0.0065                    0.0095                   4.81580080880604
0.0065                    0.0105                   4.813517641404087
0.0065                    0.0115                   4.817702087315721
0.0065                    0.0125                   4.817847095163982
0.0065                    0.0135                   4.805558634444768