% Model:              Benchmark260518.mph
% Version:            COMSOL 6.2.0.339
% Date:               May 21 2026, 18:35
% Dimension:          2
% Nodes:              4096
% Expressions:        1
% Description:        压力
% Length unit:        m
% x                       y                        p (Pa)
5.0E-4                    -0.0315                  3.5012087745546503
5.0E-4                    -0.0305                  3.5196651879213636
5.0E-4                    -0.0295                  3.5448141445431913
5.0E-4                    -0.0285                  3.5722461811228654
5.0E-4                    -0.0275                  3.600911310765504
5.0E-4                    -0.0265                  3.630438891167335
5.0E-4                    -0.0255                  3.660615491570484
5.0E-4                    -0.0245                  3.6913149134199155
5.0E-4                    -0.0235                  3.722470019194495
5.0E-4                    -0.0225                  3.754054577385651
5.0E-4                    -0.0215                  3.786071637121126
5.0E-4                    -0.0205                  3.818547633014451
5.0E-4                    -0.0195                  3.851526477496244
5.0E-4                    -0.0185                  3.8850636989793443
5.0E-4                    -0.0175                  3.9192194525937456
5.0E-4                    -0.0165                  3.9540587393953035
5.0E-4                    -0.0155                  3.989656741903481
5.0E-4                    -0.0145                  4.026111833652897
5.0E-4                    -0.0135                  4.063569175295431
5.0E-4                    -0.0125                  4.102245971156799
5.0E-4                    -0.0115                  4.142454299218743
5.0E-4                    -0.0105                  4.184623983910198
5.0E-4                    -0.0095                  4.22931122339882
5.0E-4                    -0.0085                  4.277239661832695
5.0E-4                    -0.0075                  4.329227003828079
5.0E-4                    -0.0065                  4.386252716894571
5.0E-4                    -0.0055                  4.448774750059756
5.0E-4                    -0.0045                  4.5142554132264525
5.0E-4                    -0.0035                  4.5772362487017535
5.0E-4                    -0.0025                  4.63233189543846
5.0E-4                    -0.0015                  4.673361689717869
5.0E-4                    -5.0E-4                  4.6977798792557195
5.0E-4                    5.0E-4                   4.709529757711386
5.0E-4                    0.0015                   4.713267486436701
5.0E-4                    0.0025                   4.7131143126948825
5.0E-4                    0.0035                   4.713078211646944
5.0E-4                    0.0045                   4.715700784895449
5.0E-4                    0.0055                   4.720086625646525
5.0E-4                    0.0065                   4.721782291875158
5.0E-4                    0.0075                   4.715413551375286
5.0E-4                    0.0085                   4.698797379828013
5.0E-4                    0.0095                   4.675186958165083
5.0E-4                    0.0105                   4.65168394796092
5.0E-4                    0.0115                   4.634718142097309
5.0E-4                    0.0125                   4.62560626142373
5.0E-4                    0.0135                   4.620947294282936
5.0E-4                    0.0145                   4.617364495117007
5.0E-4                    0.0155                   4.628846713500104
5.0E-4                    0.0165                   4.697867401467184
5.0E-4                    0.0175                   4.814948427684328
5.0E-4                    0.0185                   4.913514573641971
5.0E-4                    0.0195                   4.970436182150898
5.0E-4                    0.0205                   4.9993019537057375
5.0E-4                    0.0215                   5.012367644316995
5.0E-4                    0.0225                   5.016291566708331
5.0E-4                    0.0235                   5.013466325316504
5.0E-4                    0.0245                   5.006637029446928
5.0E-4                    0.0255                   4.999944510962729
5.0E-4                    0.0265                   4.99453418384608
5.0E-4                    0.0275                   4.9889659947574385
5.0E-4                    0.0285                   4.983117209061158
5.0E-4                    0.0295                   4.977476786653107
5.0E-4                    0.0305                   4.96930435356913
5.0E-4                    0.0315                   4.958197583073872
0.0015                    -0.0315                  3.482605877383858
0.0015                    -0.0305                  3.501074202473702
0.0015                    -0.0295                  3.527943520847776
0.0015                    -0.0285                  3.5573929445202603
0.0015                    -0.0275                  3.587758889724089
0.0015                    -0.0265                  3.6185924262293465
0.0015                    -0.0255                  3.649735769394302
0.0015                    -0.0245                  3.681107517119461
0.0015                    -0.0235                  3.712664817838139
0.0015                    -0.0225                  3.7443965167741817
0.0015                    -0.0215                  3.7763202045668285
0.0015                    -0.0205                  3.8084802587851003
0.0015                    -0.0195                  3.840942848258628
0.0015                    -0.0185                  3.8737865555770146
0.0015                    -0.0175                  3.907089240531782
0.0015                    -0.0165                  3.9409148792856827
0.0015                    -0.0155                  3.97530749556672
0.0015                    -0.0145                  4.0102997122504425
0.0015                    -0.0135                  4.0459425546393675
0.0015                    -0.0125                  4.082353925520078
0.0015                    -0.0115                  4.119773652061721
0.0015                    -0.0105                  4.158619467674489
0.0015                    -0.0095                  4.199552296429606
0.0015                    -0.0085                  4.243554931215063
0.0015                    -0.0075                  4.292093715823593
0.0015                    -0.0065                  4.347033734447697
0.0015                    -0.0055                  4.410026751606986
0.0015                    -0.0045                  4.480320643172802
0.0015                    -0.0035                  4.552262886237187
0.0015                    -0.0025                  4.617436078277726
0.0015                    -0.0015                  4.665784551584166
0.0015                    -5.0E-4                  4.694502209915759
0.0015                    5.0E-4                   4.708669661180501
0.0015                    0.0015                   4.7120353706814395
0.0015                    0.0025                   4.709131538887267
0.0015                    0.0035                   4.705580700032932
0.0015                    0.0045                   4.705419728292655
0.0015                    0.0055                   4.708645348440069
0.0015                    0.0065                   4.711032446247188
0.0015                    0.0075                   4.706451073151303
0.0015                    0.0085                   4.691468691469054
0.0015                    0.0095                   4.668595357015606
0.0015                    0.0105                   4.645437012884135
0.0015                    0.0115                   4.629557698679702
0.0015                    0.0125                   4.6225981984664894
0.0015                    0.0135                   4.620506614640986
0.0015                    0.0145                   4.620450720981291
0.0015                    0.0155                   4.625209271019542
0.0015                    0.0165                   4.69591366513907
0.0015                    0.0175                   4.818138183498862
0.0015                    0.0185                   4.907035790229572
0.0015                    0.0195                   4.955617675422461
0.0015                    0.0205                   4.978301605201702
0.0015                    0.0215                   4.98934549190614
0.0015                    0.0225                   4.995374064437188
0.0015                    0.0235                   4.997622818834041
0.0015                    0.0245                   4.994566730857487
0.0015                    0.0255                   4.985549662622292
0.0015                    0.0265                   4.972070724478532
0.0015                    0.0275                   4.956067410480738
0.0015                    0.0285                   4.938895460889173
0.0015                    0.0295                   4.920956658508111
0.0015                    0.0305                   4.903953842654663
0.0015                    0.0315                   4.894710531574113
0.0025                    -0.0315                  3.457002267359308
0.0025                    -0.0305                  3.473770631846414
0.0025                    -0.0295                  3.5006053882259236
0.0025                    -0.0285                  3.531629654475543
0.0025                    -0.0275                  3.5639812669166906
0.0025                    -0.0265                  3.5966354884935328
0.0025                    -0.0255                  3.629256496448398
0.0025                    -0.0245                  3.661717525403329
0.0025                    -0.0235                  3.6939587802163967
0.0025                    -0.0225                  3.7259581434252906
0.0025                    -0.0215                  3.7577311715171557
0.0025                    -0.0205                  3.789333374963653
0.0025                    -0.0195                  3.820856655230493
0.0025                    -0.0185                  3.8524158602541716
0.0025                    -0.0175                  3.884125331678752
0.0025                    -0.0165                  3.916068762315648
0.0025                    -0.0155                  3.948271761129373
0.0025                    -0.0145                  3.9806934572201653
0.0025                    -0.0135                  4.013255700514189
0.0025                    -0.0125                  4.045919518140848
0.0025                    -0.0115                  4.078798827973797
0.0025                    -0.0105                  4.112286239731729
0.0025                    -0.0095                  4.14719161972014
0.0025                    -0.0085                  4.18490622325891
0.0025                    -0.0075                  4.227540955120286
0.0025                    -0.0065                  4.277978640342495
0.0025                    -0.0055                  4.339209047679148
0.0025                    -0.0045                  4.412167718197471
0.0025                    -0.0035                  4.492382559093586
0.0025                    -0.0025                  4.5702451027825735
0.0025                    -0.0015                  4.632591346395404
0.0025                    -5.0E-4                  4.672881739924674
0.0025                    5.0E-4                   4.692548297038702
0.0025                    0.0015                   4.69419651771463
0.0025                    0.0025                   4.685739023596552
0.0025                    0.0035                   4.677034692800194
0.0025                    0.0045                   4.673784720689695
0.0025                    0.0055                   4.6766817819688695
0.0025                    0.0065                   4.682219189202424
0.0025                    0.0075                   4.684141551294061
0.0025                    0.0085                   4.677308609484031
0.0025                    0.0095                   4.661534437401782
0.0025                    0.0105                   4.642600139594286
0.0025                    0.0115                   4.6283550115017675
0.0025                    0.0125                   4.622739346478237
0.0025                    0.0135                   4.625243861126426
0.0025                    0.0145                   4.636423045426875
0.0025                    0.0155                   4.674303552097039
0.0025                    0.0165                   4.755621996030535
0.0025                    0.0175                   4.846295105412515
0.0025                    0.0185                   4.909178088973907
0.0025                    0.0195                   4.944016711231754
0.0025                    0.0205                   4.9607915648109735
0.0025                    0.0215                   4.970436399348337
0.0025                    0.0225                   4.977116140701174
0.0025                    0.0235                   4.980550277750546
0.0025                    0.0245                   4.9779547297345355
0.0025                    0.0255                   4.966533957939288
0.0025                    0.0265                   4.94650954884134
0.0025                    0.0275                   4.9209832798257525
0.0025                    0.0285                   4.893264661682188
0.0025                    0.0295                   4.866641090650666
0.0025                    0.0305                   4.846115808596373
0.0025                    0.0315                   4.835451959530088
0.0035                    -0.0315                  3.4288024946272855
0.0035                    -0.0305                  3.443561605071927
0.0035                    -0.0295                  3.4687139403911273
0.0035                    -0.0285                  3.4996221221042294
0.0035                    -0.0275                  3.533020843544377
0.0035                    -0.0265                  3.5671476672970646
0.0035                    -0.0255                  3.6012123103275373
0.0035                    -0.0245                  3.634862685914084
0.0035                    -0.0235                  3.6679180700721212
0.0035                    -0.0225                  3.7002788264535678
0.0035                    -0.0215                  3.7319092546146755
0.0035                    -0.0205                  3.7628401711669817
0.0035                    -0.0195                  3.7931676437074766
0.0035                    -0.0185                  3.8230383058370907
0.0035                    -0.0175                  3.8526183404419494
0.0035                    -0.0165                  3.882048605849813
0.0035                    -0.0155                  3.911394993493621
0.0035                    -0.0145                  3.9406115388676204
0.0035                    -0.0135                  3.9695456276845955
0.0035                    -0.0125                  3.9980189967525646
0.0035                    -0.0115                  4.0259967693773495
0.0035                    -0.0105                  4.0538191085212825
0.0035                    -0.0095                  4.082420246251658
0.0035                    -0.0085                  4.113510260168454
0.0035                    -0.0075                  4.149624177678861
0.0035                    -0.0065                  4.1938870469995155
0.0035                    -0.0055                  4.2496525194584
0.0035                    -0.0045                  4.31914928754491
0.0035                    -0.0035                  4.4003782271893055
0.0035                    -0.0025                  4.486859276379623
0.0035                    -0.0015                  4.564292772406924
0.0035                    -5.0E-4                  4.618756109819589
0.0035                    5.0E-4                   4.645320278395071
0.0035                    0.0015                   4.646829277462523
0.0035                    0.0025                   4.635436115643708
0.0035                    0.0035                   4.624338984248638
0.0035                    0.0045                   4.6207376749298
0.0035                    0.0055                   4.625966502590602
0.0035                    0.0065                   4.637640368187217
0.0035                    0.0075                   4.651400622230018
0.0035                    0.0085                   4.661858807700995
0.0035                    0.0095                   4.664946369295835
0.0035                    0.0105                   4.6612516699140825
0.0035                    0.0115                   4.6565176749036
0.0035                    0.0125                   4.658050009061251
0.0035                    0.0135                   4.670754951561239
0.0035                    0.0145                   4.6997950836473645
0.0035                    0.0155                   4.751917963749955
0.0035                    0.0165                   4.817069374934741
0.0035                    0.0175                   4.873652245161409
0.0035                    0.0185                   4.911487273090843
0.0035                    0.0195                   4.932520204648605
0.0035                    0.0205                   4.944571211033299
0.0035                    0.0215                   4.953381699406986
0.0035                    0.0225                   4.960217328094867
0.0035                    0.0235                   4.963225326056361
0.0035                    0.0245                   4.958384907334833
0.0035                    0.0255                   4.942535517770894
0.0035                    0.0265                   4.91610292818533
0.0035                    0.0275                   4.88250542173344
0.0035                    0.0285                   4.846690151275151
0.0035                    0.0295                   4.81403935430512
0.0035                    0.0305                   4.789355084996447
0.0035                    0.0315                   4.776139009621889
0.0045                    -0.0315                  3.3992446287091416
0.0045                    -0.0305                  3.412188324729922
0.0045                    -0.0295                  3.4351462824080503
0.0045                    -0.0285                  3.4646391921467643
0.0045                    -0.0275                  3.497772368144336
0.0045                    -0.0265                  3.532480953317581
0.0045                    -0.0255                  3.5675108294357987
0.0045                    -0.0245                  3.602158657434026
0.0045                    -0.0235                  3.6360095232869076
0.0045                    -0.0225                  3.6687979736802747
0.0045                    -0.0215                  3.7003647843278524
0.0045                    -0.0205                  3.7306554793455224
0.0045                    -0.0195                  3.7597241505843715
0.0045                    -0.0185                  3.78772356160807
0.0045                    -0.0175                  3.8148743420628115
0.0045                    -0.0165                  3.8414138014130588
0.0045                    -0.0155                  3.8675307114828605
0.0045                    -0.0145                  3.893301060174642
0.0045                    -0.0135                  3.918648579295697
0.0045                    -0.0125                  3.9433794585149657
0.0045                    -0.0115                  3.9673519146474874
0.0045                    -0.0105                  3.9907881535486665
0.0045                    -0.0095                  4.014635615190558
0.0045                    -0.0085                  4.040694310242781
0.0045                    -0.0075                  4.071577676571051
0.0045                    -0.0065                  4.110268514303036
0.0045                    -0.0055                  4.159128806014097
0.0045                    -0.0045                  4.220182906528654
0.0045                    -0.0035                  4.293804864515234
0.0045                    -0.0025                  4.379145689320417
0.0045                    -0.0015                  4.4645530696275575
0.0045                    -5.0E-4                  4.5314951550259615
0.0045                    5.0E-4                   4.568543822439476
0.0045                    0.0015                   4.576671524813175
0.0045                    0.0025                   4.5708316416488675
0.0045                    0.0035                   4.5659541231961045
0.0045                    0.0045                   4.568713650723722
0.0045                    0.0055                   4.57979933895469
0.0045                    0.0065                   4.598296100649241
0.0045                    0.0075                   4.623409581153556
0.0045                    0.0085                   4.653285019547466
0.0045                    0.0095                   4.68412767776954
0.0045                    0.0105                   4.711875445052272
0.0045                    0.0115                   4.7355807663422365
0.0045                    0.0125                   4.757873067823157
0.0045                    0.0135                   4.782787446185945
0.0045                    0.0145                   4.8130819308454615
0.0045                    0.0155                   4.845501825718748
0.0045                    0.0165                   4.8728667187098464
0.0045                    0.0175                   4.893853801076712
0.0045                    0.0185                   4.909601491109265
0.0045                    0.0195                   4.92066546886694
0.0045                    0.0205                   4.929642033547109
0.0045                    0.0215                   4.937720147321041
0.0045                    0.0225                   4.943854981464633
0.0045                    0.0235                   4.944656918077593
0.0045                    0.0245                   4.935405362555976
0.0045                    0.0255                   4.913610858582587
0.0045                    0.0265                   4.880592683619032
0.0045                    0.0275                   4.840367374031155
0.0045                    0.0285                   4.798488235989764
0.0045                    0.0295                   4.760595202441151
0.0045                    0.0305                   4.731651833901644
0.0045                    0.0315                   4.715957261304587
0.0055                    -0.0315                  3.368822882127317
0.0055                    -0.0305                  3.3802019967613406
0.0055                    -0.0295                  3.4009279830805044
0.0055                    -0.0285                  3.4283864865168963
0.0055                    -0.0275                  3.460222539283579
0.0055                    -0.0265                  3.4944962141001534
0.0055                    -0.0255                  3.5297473244298776
0.0055                    -0.0245                  3.5649630081927643
0.0055                    -0.0235                  3.599445589108245
0.0055                    -0.0225                  3.632691938584927
0.0055                    -0.0215                  3.664341716949401
0.0055                    -0.0205                  3.694178127692423
0.0055                    -0.0195                  3.722144533887202
0.0055                    -0.0185                  3.748350110898892
0.0055                    -0.0175                  3.7730510735679004
0.0055                    -0.0165                  3.79660569418903
0.0055                    -0.0155                  3.819407547590226
0.0055                    -0.0145                  3.8418033250288124
0.0055                    -0.0135                  3.8640126312806515
0.0055                    -0.0125                  3.886069070784451
0.0055                    -0.0115                  3.9078745026406336
0.0055                    -0.0105                  3.92947847000668
0.0055                    -0.0095                  3.951543794341403
0.0055                    -0.0085                  3.97572693544976
0.0055                    -0.0075                  4.004135297661371
0.0055                    -0.0065                  4.039025735495788
0.0055                    -0.0055                  4.0820953604396655
0.0055                    -0.0045                  4.135185751771964
0.0055                    -0.0035                  4.199272600188319
0.0055                    -0.0025                  4.274825677230059
0.0055                    -0.0015                  4.357820061450395
0.0055                    -5.0E-4                  4.433887330815437
0.0055                    5.0E-4                   4.484248240952262
0.0055                    0.0015                   4.5062407495698
0.0055                    0.0025                   4.515704833807872
0.0055                    0.0035                   4.525392435344923
0.0055                    0.0045                   4.539151084920493
0.0055                    0.0055                   4.557418125707052
0.0055                    0.0065                   4.581495499388673
0.0055                    0.0075                   4.61401221626511
0.0055                    0.0085                   4.65809512210934
0.0055                    0.0095                   4.7151461019849314
0.0055                    0.0105                   4.78117443594648
0.0055                    0.0115                   4.845262004718856
0.0055                    0.0125                   4.895160513902864
0.0055                    0.0135                   4.924855841960275
0.0055                    0.0145                   4.934178909406624
0.0055                    0.0155                   4.926620282728815
0.0055                    0.0165                   4.912484501202146
0.0055                    0.0175                   4.903837369859434
0.0055                    0.0185                   4.90404471238242
0.0055                    0.0195                   4.909377729296425
0.0055                    0.0205                   4.916298909416357
0.0055                    0.0215                   4.923069256155234
0.0055                    0.0225                   4.927167602816167
0.0055                    0.0235                   4.923870287320085
0.0055                    0.0245                   4.908561217817852
0.0055                    0.0255                   4.880031190774604
0.0055                    0.0265                   4.840547972807619
0.0055                    0.0275                   4.7945938038984295
0.0055                    0.0285                   4.747609913950599
0.0055                    0.0295                   4.705102861231414
0.0055                    0.0305                   4.672438209483756
0.0055                    0.0315                   4.65463109673567
0.0065                    -0.0315                  3.3377742973187763
0.0065                    -0.0305                  3.347808596275361
0.0065                    -0.0295                  3.3664152111561023
0.0065                    -0.0285                  3.3916074739183433
0.0065                    -0.0275                  3.421523708477278
0.0065                    -0.0265                  3.454519702646046
0.0065                    -0.0255                  3.4891916793348696
0.0065                    -0.0245                  3.5243953078753636
0.0065                    -0.0235                  3.559213666262172
0.0065                    -0.0225                  3.592897059225015
0.0065                    -0.0215                  3.6248322032551354
0.0065                    -0.0205                  3.6545622821189605
0.0065                    -0.0195                  3.681833946467062
0.0065                    -0.0185                  3.706636302724867
0.0065                    -0.0175                  3.7292129676929067
0.0065                    -0.0165                  3.7500396780918988
0.0065                    -0.0155                  3.7697723275501236
0.0065                    -0.0145                  3.7891645257268523
0.0065                    -0.0135                  3.8089428405199977
0.0065                    -0.0125                  3.8296597342589265
0.0065                    -0.0115                  3.8515151359843007
0.0065                    -0.0105                  3.874381097182651
0.0065                    -0.0095                  3.8982695058036945
0.0065                    -0.0085                  3.923835110645876
0.0065                    -0.0075                  3.952246485750399
0.0065                    -0.0065                  3.9856929840972866
0.0065                    -0.0055                  4.025741671206488
0.0065                    -0.0045                  4.073685119171179
0.0065                    -0.0035                  4.1305705094782965
0.0065                    -0.0025                  4.1966807825085946
0.0065                    -0.0015                  4.274480381820791
0.0065                    -5.0E-4                  4.3541623729031285
0.0065                    5.0E-4                   4.4140922459722
0.0065                    0.0015                   4.451132628649039
0.0065                    0.0025                   4.478090501680581
0.0065                    0.0035                   4.502540259056094
0.0065                    0.0045                   4.526561675506198
0.0065                    0.0055                   4.551978631481452
0.0065                    0.0065                   4.582081080140111
0.0065                    0.0075                   4.621494494842776
0.0065                    0.0085                   4.67591497243289
0.0065                    0.0095                   4.751032252952352
0.0065                    0.0105                   4.845310651267616
0.0065                    0.0115                   4.940897918117117
0.0065                    0.0125                   5.011423479229316