% Model:              Benchmark260518.mph
% Version:            COMSOL 6.2.0.339
% Date:               May 20 2026, 09:57
% Dimension:          2
% Nodes:              4096
% Expressions:        1
% Description:        压力
% Length unit:        m
% x                       y                        p (Pa)
5.0E-4                    -0.0315                  4.094533980355749
5.0E-4                    -0.0305                  4.114563223923566
5.0E-4                    -0.0295                  4.141875821718533
5.0E-4                    -0.0285                  4.171563552864067
5.0E-4                    -0.0275                  4.202481324346556
5.0E-4                    -0.0265                  4.234211934938757
5.0E-4                    -0.0255                  4.266461622560065
5.0E-4                    -0.0245                  4.299031310452413
5.0E-4                    -0.0235                  4.331780242494261
5.0E-4                    -0.0225                  4.364600563355661
5.0E-4                    -0.0215                  4.39740970293217
5.0E-4                    -0.0205                  4.4301432317887235
5.0E-4                    -0.0195                  4.462750377236313
5.0E-4                    -0.0185                  4.495187168545269
5.0E-4                    -0.0175                  4.527419743308826
5.0E-4                    -0.0165                  4.559454073742044
5.0E-4                    -0.0155                  4.591375672651507
5.0E-4                    -0.0145                  4.623332012926607
5.0E-4                    -0.0135                  4.655448597994933
5.0E-4                    -0.0125                  4.687432831875392
5.0E-4                    -0.0115                  4.7181619397076435
5.0E-4                    -0.0105                  4.746032693971373
5.0E-4                    -0.0095                  4.769216905194032
5.0E-4                    -0.0085                  4.78558233490717
5.0E-4                    -0.0075                  4.794916435469851
5.0E-4                    -0.0065                  4.799216208175649
5.0E-4                    -0.0055                  4.800228682683427
5.0E-4                    -0.0045                  4.799217475143722
5.0E-4                    -0.0035                  4.797446163276602
5.0E-4                    -0.0025                  4.796225033088436
5.0E-4                    -0.0015                  4.79672503971481
5.0E-4                    -5.0E-4                  4.799766829092866
5.0E-4                    5.0E-4                   4.805710010785698
5.0E-4                    0.0015                   4.81442705033578
5.0E-4                    0.0025                   4.825200289382316
5.0E-4                    0.0035                   4.836608511481657
5.0E-4                    0.0045                   4.846644544469268
5.0E-4                    0.0055                   4.853091077092035
5.0E-4                    0.0065                   4.854347687410032
5.0E-4                    0.0075                   4.850328941818169
5.0E-4                    0.0085                   4.842536705222781
5.0E-4                    0.0095                   4.832961102046501
5.0E-4                    0.0105                   4.822506273408033
5.0E-4                    0.0115                   4.8246329635172325
5.0E-4                    0.0125                   4.859278009951278
5.0E-4                    0.0135                   4.910189028981122
5.0E-4                    0.0145                   4.947084176393267
5.0E-4                    0.0155                   4.9678882724764355
5.0E-4                    0.0165                   4.9809356928059465
5.0E-4                    0.0175                   4.990063199675493
5.0E-4                    0.0185                   4.994925671266641
5.0E-4                    0.0195                   4.990336895734457
5.0E-4                    0.0205                   4.968570095079944
5.0E-4                    0.0215                   4.932022302845371
5.0E-4                    0.0225                   4.8890706516310996
5.0E-4                    0.0235                   4.843398801313949
5.0E-4                    0.0245                   4.797266564219122
5.0E-4                    0.0255                   4.7514085069370955
5.0E-4                    0.0265                   4.7059463649849285
5.0E-4                    0.0275                   4.661108824005286
5.0E-4                    0.0285                   4.617325914612704
5.0E-4                    0.0295                   4.575251755574795
5.0E-4                    0.0305                   4.536502829542512
5.0E-4                    0.0315                   4.508134535283202
0.0015                    -0.0315                  4.074498222714318
0.0015                    -0.0305                  4.094896089731084
0.0015                    -0.0295                  4.124697674328203
0.0015                    -0.0285                  4.15738888768356
0.0015                    -0.0275                  4.191051249918174
0.0015                    -0.0265                  4.225138073029336
0.0015                    -0.0255                  4.259416646282684
0.0015                    -0.0245                  4.293730937633208
0.0015                    -0.0235                  4.32796738783775
0.0015                    -0.0225                  4.362038579994963
0.0015                    -0.0215                  4.395875514238501
0.0015                    -0.0205                  4.429424973914636
0.0015                    -0.0195                  4.462647105542322
0.0015                    -0.0185                  4.495515773596978
0.0015                    -0.0175                  4.528028069427269
0.0015                    -0.0165                  4.560223505509116
0.0015                    -0.0155                  4.592193454830237
0.0015                    -0.0145                  4.624050892490011
0.0015                    -0.0135                  4.655785521609353
0.0015                    -0.0125                  4.687015203587728
0.0015                    -0.0115                  4.716821565975689
0.0015                    -0.0105                  4.743865431053907
0.0015                    -0.0095                  4.766481010709056
0.0015                    -0.0085                  4.782982157663952
0.0015                    -0.0075                  4.7933649709488835
0.0015                    -0.0065                  4.798824566117272
0.0015                    -0.0055                  4.800194865467594
0.0015                    -0.0045                  4.798678654378427
0.0015                    -0.0035                  4.796010709448056
0.0015                    -0.0025                  4.794004083565062
0.0015                    -0.0015                  4.794031427130943
0.0015                    -5.0E-4                  4.7967340929303415
0.0015                    5.0E-4                   4.802295091029648
0.0015                    0.0015                   4.810544091825848
0.0015                    0.0025                   4.820878793256471
0.0015                    0.0035                   4.832046970114302
0.0015                    0.0045                   4.84233988926511
0.0015                    0.0055                   4.849695580837974
0.0015                    0.0065                   4.852199319036913
0.0015                    0.0075                   4.849419334650218
0.0015                    0.0085                   4.842924757621756
0.0015                    0.0095                   4.835500987578225
0.0015                    0.0105                   4.831486782130263
0.0015                    0.0115                   4.836071659522503
0.0015                    0.0125                   4.868808664880864
0.0015                    0.0135                   4.914589999470597
0.0015                    0.0145                   4.941275661118315
0.0015                    0.0155                   4.9540238338304
0.0015                    0.0165                   4.961304214078075
0.0015                    0.0175                   4.967330153497603
0.0015                    0.0185                   4.971757322428618
0.0015                    0.0195                   4.970536990717356
0.0015                    0.0205                   4.956969774791456
0.0015                    0.0215                   4.927585428002731
0.0015                    0.0225                   4.88647675933403
0.0015                    0.0235                   4.839930899848005
0.0015                    0.0245                   4.791505004089807
0.0015                    0.0255                   4.742682052893871
0.0015                    0.0265                   4.693937777822841
0.0015                    0.0275                   4.64548443342461
0.0015                    0.0285                   4.597629991771388
0.0015                    0.0295                   4.551129010325035
0.0015                    0.0305                   4.508712973067292
0.0015                    0.0315                   4.479796152223377
0.0025                    -0.0315                  4.046902909142055
0.0025                    -0.0305                  4.066111893226177
0.0025                    -0.0295                  4.097058937454118
0.0025                    -0.0285                  4.133003197431854
0.0025                    -0.0275                  4.170573485753092
0.0025                    -0.0265                  4.208483826489305
0.0025                    -0.0255                  4.246258744988242
0.0025                    -0.0245                  4.283683340635476
0.0025                    -0.0235                  4.320628596222788
0.0025                    -0.0225                  4.357004016144429
0.0025                    -0.0215                  4.392741928395438
0.0025                    -0.0205                  4.42779310302673
0.0025                    -0.0195                  4.462127650795612
0.0025                    -0.0185                  4.495739721894064
0.0025                    -0.0175                  4.528654053235487
0.0025                    -0.0165                  4.560924471481875
0.0025                    -0.0155                  4.592607986086794
0.0025                    -0.0145                  4.623692664723661
0.0025                    -0.0135                  4.653989086257319
0.0025                    -0.0125                  4.683053212595427
0.0025                    -0.0115                  4.7101925851456246
0.0025                    -0.0105                  4.7346690537143585
0.0025                    -0.0095                  4.755724686716071
0.0025                    -0.0085                  4.772918069032864
0.0025                    -0.0075                  4.785785896523733
0.0025                    -0.0065                  4.793053056464846
0.0025                    -0.0055                  4.794152179682312
0.0025                    -0.0045                  4.791177993608325
0.0025                    -0.0035                  4.787330211581022
0.0025                    -0.0025                  4.785003524489116
0.0025                    -0.0015                  4.785471970205876
0.0025                    -5.0E-4                  4.788861331441803
0.0025                    5.0E-4                   4.7948738654897385
0.0025                    0.0015                   4.803100750482605
0.0025                    0.0025                   4.813070102982113
0.0025                    0.0035                   4.824133889825628
0.0025                    0.0045                   4.835288963407145
0.0025                    0.0055                   4.844994453745817
0.0025                    0.0065                   4.851473104413094
0.0025                    0.0075                   4.853866097871757
0.0025                    0.0085                   4.853527473433278
0.0025                    0.0095                   4.854331811520977
0.0025                    0.0105                   4.861777859763899
0.0025                    0.0115                   4.881752432233637
0.0025                    0.0125                   4.91094625563474
0.0025                    0.0135                   4.9336728637196865
0.0025                    0.0145                   4.94318963796791
0.0025                    0.0155                   4.946174381152627
0.0025                    0.0165                   4.948513031302139
0.0025                    0.0175                   4.951813527734677
0.0025                    0.0185                   4.954295701686593
0.0025                    0.0195                   4.952115533263544
0.0025                    0.0205                   4.940309434475252
0.0025                    0.0215                   4.915176208445163
0.0025                    0.0225                   4.877011058628192
0.0025                    0.0235                   4.830016948390639
0.0025                    0.0245                   4.778650762073634
0.0025                    0.0255                   4.725400628662217
0.0025                    0.0265                   4.671390474284424
0.0025                    0.0275                   4.617200099686458
0.0025                    0.0285                   4.5635342238485315
0.0025                    0.0295                   4.5121954022469835
0.0025                    0.0305                   4.46807295917719
0.0025                    0.0315                   4.440970356469175
0.0035                    -0.0315                  4.0165073989566675
0.0035                    -0.0305                  4.034430047419617
0.0035                    -0.0295                  4.065201940803513
0.0035                    -0.0285                  4.103194641347812
0.0035                    -0.0275                  4.14438199894901
0.0035                    -0.0265                  4.186511834595409
0.0035                    -0.0255                  4.228509868190766
0.0035                    -0.0245                  4.269873951097761
0.0035                    -0.0235                  4.3103432287547765
0.0035                    -0.0225                  4.349759506750145
0.0035                    -0.0215                  4.388016090425585
0.0035                    -0.0205                  4.42504126562205
0.0035                    -0.0195                  4.4607958902574
0.0035                    -0.0185                  4.495273836817549
0.0035                    -0.0175                  4.528495411667104
0.0035                    -0.0165                  4.560485032811343
0.0035                    -0.0155                  4.591222727872026
0.0035                    -0.0145                  4.62057358122714
0.0035                    -0.0135                  4.648244623537664
0.0035                    -0.0125                  4.6738623823078305
0.0035                    -0.0115                  4.697213288898707
0.0035                    -0.0105                  4.718422314348931
0.0035                    -0.0095                  4.737855434288783
0.0035                    -0.0085                  4.755590132959805
0.0035                    -0.0075                  4.770020273311474
0.0035                    -0.0065                  4.777999010666793
0.0035                    -0.0055                  4.778624565355819
0.0035                    -0.0045                  4.7752254422767795
0.0035                    -0.0035                  4.77213874187284
0.0035                    -0.0025                  4.771803937069535
0.0035                    -0.0015                  4.774663232076973
0.0035                    -5.0E-4                  4.780098197770169
0.0035                    5.0E-4                   4.787396210594224
0.0035                    0.0015                   4.796086600325833
0.0035                    0.0025                   4.8059566303121315
0.0035                    0.0035                   4.817059937364801
0.0035                    0.0045                   4.82929737433146
0.0035                    0.0055                   4.842188831390941
0.0035                    0.0065                   4.854955425048441
0.0035                    0.0075                   4.866855449694239
0.0035                    0.0085                   4.878526224737682
0.0035                    0.0095                   4.892671309969644
0.0035                    0.0105                   4.911915112651081
0.0035                    0.0115                   4.934287106580756
0.0035                    0.0125                   4.951007864555612
0.0035                    0.0135                   4.95454504798375
0.0035                    0.0145                   4.948299263136223
0.0035                    0.0155                   4.941601831128742
0.0035                    0.0165                   4.93915723870164
0.0035                    0.0175                   4.939415351947326
0.0035                    0.0185                   4.938826765589852
0.0035                    0.0195                   4.933723402735207
0.0035                    0.0205                   4.920210543769285
0.0035                    0.0215                   4.895484571087396
0.0035                    0.0225                   4.8588373612356595
0.0035                    0.0235                   4.811982371204079
0.0035                    0.0245                   4.758258012794922
0.0035                    0.0255                   4.700628741107411
0.0035                    0.0265                   4.641008741835603
0.0035                    0.0275                   4.580828421237506
0.0035                    0.0285                   4.521903697684381
0.0035                    0.0295                   4.467566908315451
0.0035                    0.0305                   4.423767622293973
0.0035                    0.0315                   4.398700181144036
0.0045                    -0.0315                  3.9844821509328208
0.0045                    -0.0305                  4.001570862854806
0.0045                    -0.0295                  4.0320135768049
0.0045                    -0.0285                  4.071188255117145
0.0045                    -0.0275                  4.1152018817081935
0.0045                    -0.0265                  4.161246208084091
0.0045                    -0.0255                  4.207579314724448
0.0045                    -0.0245                  4.2532266690879785
0.0045                    -0.0235                  4.2976504212970905
0.0045                    -0.0225                  4.340533977796387
0.0045                    -0.0215                  4.381673325677937
0.0045                    -0.0205                  4.420932109252082
0.0045                    -0.0195                  4.458226393866411
0.0045                    -0.0185                  4.4935146989802215
0.0045                    -0.0175                  4.526778694451551
0.0045                    -0.0165                  4.557989221536123
0.0045                    -0.0155                  4.587069668043313
0.0045                    -0.0145                  4.613871619149747
0.0045                    -0.0135                  4.638212838001097
0.0045                    -0.0125                  4.660107701292196
0.0045                    -0.0115                  4.679959887573408
0.0045                    -0.0105                  4.698543706605405
0.0045                    -0.0095                  4.716621993906879
0.0045                    -0.0085                  4.733841390062297
0.0045                    -0.0075                  4.748000235720276
0.0045                    -0.0065                  4.755962364107276
0.0045                    -0.0055                  4.7575295010517875
0.0045                    -0.0045                  4.756674481008173
0.0045                    -0.0035                  4.757381060135614
0.0045                    -0.0025                  4.761022410670971
0.0045                    -0.0015                  4.767085734790522
0.0045                    -5.0E-4                  4.774680048809809
0.0045                    5.0E-4                   4.7832351507840745
0.0045                    0.0015                   4.79255040488866
0.0045                    0.0025                   4.802712122353393
0.0045                    0.0035                   4.814085447144381
0.0045                    0.0045                   4.827215640962932
0.0045                    0.0055                   4.8426861201869436
0.0045                    0.0065                   4.860862332153084
0.0045                    0.0075                   4.881717535725561
0.0045                    0.0085                   4.90514815508362
0.0045                    0.0095                   4.930829978708023
0.0045                    0.0105                   4.956553049070052
0.0045                    0.0115                   4.976156642177412
0.0045                    0.0125                   4.981681187858441
0.0045                    0.0135                   4.971209604526724
0.0045                    0.0145                   4.9530396847201414
0.0045                    0.0155                   4.9383755423906095
0.0045                    0.0165                   4.931103168664373
0.0045                    0.0175                   4.927307839428318
0.0045                    0.0185                   4.922202095218058
0.0045                    0.0195                   4.912632568267384
0.0045                    0.0205                   4.895871004253694
0.0045                    0.0215                   4.869790066973991
0.0045                    0.0225                   4.833201493024134
0.0045                    0.0235                   4.786350827526987
0.0045                    0.0245                   4.731035951006125
0.0045                    0.0255                   4.669863272719746
0.0045                    0.0265                   4.605411742123415
0.0045                    0.0275                   4.540233823992464
0.0045                    0.0285                   4.477467484413827
0.0045                    0.0295                   4.421498214926356
0.0045                    0.0305                   4.378248301897043
0.0045                    0.0315                   4.354427916612903
0.0055                    -0.0315                  3.951210114554734
0.0055                    -0.0305                  3.9678995265907253
0.0055                    -0.0295                  3.9982851942025284
0.0055                    -0.0285                  4.038410442418964
0.0055                    -0.0275                  4.084678467052858
0.0055                    -0.0265                  4.134127215065144
0.0055                    -0.0255                  4.184545319017925
0.0055                    -0.0245                  4.234455695530994
0.0055                    -0.0235                  4.282941995705579
0.0055                    -0.0225                  4.329441402119562
0.0055                    -0.0215                  4.373591666876307
0.0055                    -0.0205                  4.415146059543532
0.0055                    -0.0195                  4.453936166507436
0.0055                    -0.0185                  4.48985399380362
0.0055                    -0.0175                  4.522830285951989
0.0055                    -0.0165                  4.552812905408225
0.0055                    -0.0155                  4.5797621981359615
0.0055                    -0.0145                  4.603702369537491
0.0055                    -0.0135                  4.624854713913509
0.0055                    -0.0125                  4.643783031241118
0.0055                    -0.0115                  4.66124098450312
0.0055                    -0.0105                  4.678110380753925
0.0055                    -0.0095                  4.69485280996272
0.0055                    -0.0085                  4.710912739278752
0.0055                    -0.0075                  4.724442678705161
0.0055                    -0.0065                  4.7331639825274
0.0055                    -0.0055                  4.737717882944338
0.0055                    -0.0045                  4.741558864847734
0.0055                    -0.0035                  4.74700151898813
0.0055                    -0.0025                  4.754203756397887
0.0055                    -0.0015                  4.7625663909368985
0.0055                    -5.0E-4                  4.771603695921761
0.0055                    5.0E-4                   4.781109597184925
0.0055                    0.0015                   4.791122734668843
0.0055                    0.0025                   4.801912230550146
0.0055                    0.0035                   4.813986789188316
0.0055                    0.0045                   4.828097565926642
0.0055                    0.0055                   4.8451613103481135
0.0055                    0.0065                   4.866056221431401
0.0055                    0.0075                   4.89124995013719
0.0055                    0.0085                   4.920184081875815
0.0055                    0.0095                   4.950600595545127
0.0055                    0.0105                   4.977801913990737
0.0055                    0.0115                   4.99465555484542
0.0055                    0.0125                   4.994613148566765
0.0055                    0.0135                   4.977709496122293
0.0055                    0.0145                   4.9532251613776825
0.0055                    0.0155                   4.932944096688464
0.0055                    0.0165                   4.9207079162720415
0.0055                    0.0175                   4.9116563848208425
0.0055                    0.0185                   4.900894091118295
0.0055                    0.0195                   4.886427412253903
0.0055                    0.0205                   4.8664555191527965
0.0055                    0.0215                   4.83889320832451
0.0055                    0.0225                   4.801984976666448
0.0055                    0.0235                   4.754974213393389
0.0055                    0.0245                   4.698542239218047
0.0055                    0.0255                   4.63478743015453
0.0055                    0.0265                   4.56671691442178
0.0055                    0.0275                   4.497873653449896
0.0055                    0.0285                   4.4323939246867265
0.0055                    0.0295                   4.37516754669495
0.0055                    0.0305                   4.331903219831655
0.0055                    0.0315                   4.308502414215445
0.0065                    -0.0315                  3.916852555313109
0.0065                    -0.0305                  3.9334143675075977
0.0065                    -0.0295                  3.9640092528802793
0.0065                    -0.0285                  4.005118683720534
0.0065                    -0.0275                  4.0533959845992165
0.0065                    -0.0265                  4.105867439087701
0.0065                    -0.0255                  4.160037872851464
0.0065                    -0.0245                  4.2139995454208075
0.0065                    -0.0235                  4.266426983937793
0.0065                    -0.0225                  4.3164559674368155
0.0065                    -0.0215                  4.363525946908124
0.0065                    -0.0205                  4.407256448456825
0.0065                    -0.0195                  4.44737870848077
0.0065                    -0.0185                  4.483712766207699
0.0065                    -0.0175                  4.516165173116534
0.0065                    -0.0165                  4.544736705147173
0.0065                    -0.0155                  4.569571616460771
0.0065                    -0.0145                  4.591038220248008
0.0065                    -0.0135                  4.609832760133635
0.0065                    -0.0125                  4.6268564260701535
0.0065                    -0.0115                  4.642936574154651
0.0065                    -0.0105                  4.6586786691712945
0.0065                    -0.0095                  4.674274817886088
0.0065                    -0.0085                  4.689539603426758
0.0065                    -0.0075                  4.703091914687897
0.0065                    -0.0065                  4.713497027870274
0.0065                    -0.0055                  4.721802978411018
0.0065                    -0.0045                  4.729883637352079
0.0065                    -0.0035                  4.738467079369006
0.0065                    -0.0025                  4.747640113730454
0.0065                    -0.0015                  4.7572556892224656
0.0065                    -5.0E-4                  4.767109752606837
0.0065                    5.0E-4                   4.777206377855923
0.0065                    0.0015                   4.787793832622763
0.0065                    0.0025                   4.799303904986386
0.0065                    0.0035                   4.812336433910008
0.0065                    0.0045                   4.827640954618468
0.0065                    0.0055                   4.846038650605693
0.0065                    0.0065                   4.868223166349437
0.0065                    0.0075                   4.894351205211582
0.0065                    0.0085                   4.92335131031262
0.0065                    0.0095                   4.952299938477485
0.0065                    0.0105                   4.97641559692124
0.0065                    0.0115                   4.989779276317881
0.0065                    0.0125                   4.987252326314103
0.0065                    0.0135                   4.9686024380077445