% Model:              Benchmark260518.mph
% Version:            COMSOL 6.2.0.339
% Date:               May 20 2026, 18:54
% Dimension:          2
% Nodes:              4096
% Expressions:        1
% Description:        压力
% Length unit:        m
% x                       y                        p (Pa)
5.0E-4                    -0.0315                  3.328740919596223
5.0E-4                    -0.0305                  3.3664608702436984
5.0E-4                    -0.0295                  3.4178201935457935
5.0E-4                    -0.0285                  3.4737038309053023
5.0E-4                    -0.0275                  3.532219761292891
5.0E-4                    -0.0265                  3.592944424426992
5.0E-4                    -0.0255                  3.6561030526662432
5.0E-4                    -0.0245                  3.7224193683373343
5.0E-4                    -0.0235                  3.7932171080823167
5.0E-4                    -0.0225                  3.869495079030573
5.0E-4                    -0.0215                  3.9519234295934935
5.0E-4                    -0.0205                  4.041926086147947
5.0E-4                    -0.0195                  4.1413344772549685
5.0E-4                    -0.0185                  4.251002393882121
5.0E-4                    -0.0175                  4.368599853421305
5.0E-4                    -0.0165                  4.486439442257564
5.0E-4                    -0.0155                  4.5938134420612196
5.0E-4                    -0.0145                  4.6764834023081
5.0E-4                    -0.0135                  4.728599228453681
5.0E-4                    -0.0125                  4.759241316039868
5.0E-4                    -0.0115                  4.779647206758392
5.0E-4                    -0.0105                  4.7975391656900985
5.0E-4                    -0.0095                  4.814307091081411
5.0E-4                    -0.0085                  4.826529361327374
5.0E-4                    -0.0075                  4.831558220893479
5.0E-4                    -0.0065                  4.830694280226352
5.0E-4                    -0.0055                  4.826854702224936
5.0E-4                    -0.0045                  4.821777787224396
5.0E-4                    -0.0035                  4.816508103316476
5.0E-4                    -0.0025                  4.812551351989533
5.0E-4                    -0.0015                  4.810879031088708
5.0E-4                    -5.0E-4                  4.8092528508888845
5.0E-4                    5.0E-4                   4.801481296338675
5.0E-4                    0.0015                   4.781812727090914
5.0E-4                    0.0025                   4.750333191480859
5.0E-4                    0.0035                   4.71442584136253
5.0E-4                    0.0045                   4.684044663863011
5.0E-4                    0.0055                   4.669711050338641
5.0E-4                    0.0065                   4.729921409772061
5.0E-4                    0.0075                   4.865639986854896
5.0E-4                    0.0085                   4.9193730999107625
5.0E-4                    0.0095                   4.880446563914784
5.0E-4                    0.0105                   4.873166037898371
5.0E-4                    0.0115                   4.899455773299133
5.0E-4                    0.0125                   4.924726764362375
5.0E-4                    0.0135                   4.939918324922564
5.0E-4                    0.0145                   4.94552987464107
5.0E-4                    0.0155                   4.946579016785309
5.0E-4                    0.0165                   4.946915927077253
5.0E-4                    0.0175                   4.946681757287206
5.0E-4                    0.0185                   4.944285176274757
5.0E-4                    0.0195                   4.938137590993936
5.0E-4                    0.0205                   4.925883893968843
5.0E-4                    0.0215                   4.904689282066572
5.0E-4                    0.0225                   4.875227454076349
5.0E-4                    0.0235                   4.840549617380136
5.0E-4                    0.0245                   4.803322128010718
5.0E-4                    0.0255                   4.765694266365461
5.0E-4                    0.0265                   4.72827605718436
5.0E-4                    0.0275                   4.691146558393317
5.0E-4                    0.0285                   4.654690330186403
5.0E-4                    0.0295                   4.619529771350463
5.0E-4                    0.0305                   4.58705804295821
5.0E-4                    0.0315                   4.563190550140455
0.0015                    -0.0315                  3.290579359569857
0.0015                    -0.0305                  3.327929086688313
0.0015                    -0.0295                  3.3822301960134467
0.0015                    -0.0285                  3.4411913482664973
0.0015                    -0.0275                  3.501606174241549
0.0015                    -0.0265                  3.5628624086322946
0.0015                    -0.0255                  3.625059520499671
0.0015                    -0.0245                  3.6886432979179933
0.0015                    -0.0235                  3.7543801772546415
0.0015                    -0.0225                  3.82332704970591
0.0015                    -0.0215                  3.8968251989665172
0.0015                    -0.0205                  3.977213726110885
0.0015                    -0.0195                  4.068387952692685
0.0015                    -0.0185                  4.175027060765288
0.0015                    -0.0175                  4.299105595042182
0.0015                    -0.0165                  4.433707982664248
0.0015                    -0.0155                  4.562300640799391
0.0015                    -0.0145                  4.660260972319337
0.0015                    -0.0135                  4.718787010806634
0.0015                    -0.0125                  4.751530920152297
0.0015                    -0.0115                  4.7726492283152195
0.0015                    -0.0105                  4.791777090440348
0.0015                    -0.0095                  4.8112963018418045
0.0015                    -0.0085                  4.827114337294578
0.0015                    -0.0075                  4.834738825258185
0.0015                    -0.0065                  4.834684798728711
0.0015                    -0.0055                  4.830256609578142
0.0015                    -0.0045                  4.823132499162387
0.0015                    -0.0035                  4.814080225120158
0.0015                    -0.0025                  4.8051700657578715
0.0015                    -0.0015                  4.798929349072288
0.0015                    -5.0E-4                  4.794963784594355
0.0015                    5.0E-4                   4.78821563980384
0.0015                    0.0015                   4.77219309234988
0.0015                    0.0025                   4.7449593778896535
0.0015                    0.0035                   4.713242852071369
0.0015                    0.0045                   4.690789595914589
0.0015                    0.0055                   4.703299056934439
0.0015                    0.0065                   4.8378025208130815
0.0015                    0.0075                   5.028683874383114
0.0015                    0.0085                   5.065521117888747
0.0015                    0.0095                   4.966461995797095
0.0015                    0.0105                   4.90038250245671
0.0015                    0.0115                   4.903689574120991
0.0015                    0.0125                   4.921292566934989
0.0015                    0.0135                   4.933181581475979
0.0015                    0.0145                   4.938344465816775
0.0015                    0.0155                   4.941652757470132
0.0015                    0.0165                   4.9449450036148015
0.0015                    0.0175                   4.946294854545531
0.0015                    0.0185                   4.943539369370294
0.0015                    0.0195                   4.936482697162404
0.0015                    0.0205                   4.92445782546075
0.0015                    0.0215                   4.904277932446039
0.0015                    0.0225                   4.875451676733036
0.0015                    0.0235                   4.840543496667061
0.0015                    0.0245                   4.801954976832006
0.0015                    0.0255                   4.761891749133531
0.0015                    0.0265                   4.7212855035746255
0.0015                    0.0275                   4.680486958230729
0.0015                    0.0285                   4.639878619862188
0.0015                    0.0295                   4.600258289592941
0.0015                    0.0305                   4.564059441991235
0.0015                    0.0315                   4.53931407343255
0.0025                    -0.0315                  3.2384587665726228
0.0025                    -0.0305                  3.271262307626199
0.0025                    -0.0295                  3.3240271178385683
0.0025                    -0.0285                  3.3842041789443313
0.0025                    -0.0275                  3.4458653821142504
0.0025                    -0.0265                  3.5071631275077046
0.0025                    -0.0255                  3.5676135289350004
0.0025                    -0.0245                  3.6271087550817906
0.0025                    -0.0235                  3.685799543263311
0.0025                    -0.0225                  3.7444443023457517
0.0025                    -0.0215                  3.8049186910900614
0.0025                    -0.0205                  3.8708082008941287
0.0025                    -0.0195                  3.9481340268247234
0.0025                    -0.0185                  4.045077388582206
0.0025                    -0.0175                  4.1687437988445275
0.0025                    -0.0165                  4.317037569515447
0.0025                    -0.0155                  4.470975269989398
0.0025                    -0.0145                  4.597345315941634
0.0025                    -0.0135                  4.6767276107067985
0.0025                    -0.0125                  4.72156799010348
0.0025                    -0.0115                  4.752763550490029
0.0025                    -0.0105                  4.781173425806359
0.0025                    -0.0095                  4.809447438325197
0.0025                    -0.0085                  4.833976035339887
0.0025                    -0.0075                  4.84779015454642
0.0025                    -0.0065                  4.848104966923
0.0025                    -0.0055                  4.837569945358233
0.0025                    -0.0045                  4.819382715187226
0.0025                    -0.0035                  4.7968940597098015
0.0025                    -0.0025                  4.775234903393441
0.0025                    -0.0015                  4.759709776596515
0.0025                    -5.0E-4                  4.752572075182178
0.0025                    5.0E-4                   4.751948747860727
0.0025                    0.0015                   4.753385420761484
0.0025                    0.0025                   4.752982565234454
0.0025                    0.0035                   4.755702607673802
0.0025                    0.0045                   4.782792436680639
0.0025                    0.0055                   4.8842181703841305
0.0025                    0.0065                   5.092210275118701
0.0025                    0.0075                   5.28125150454893
0.0025                    0.0085                   5.293318711794402
0.0025                    0.0095                   5.152762219537641
0.0025                    0.0105                   5.009817182453848
0.0025                    0.0115                   4.942515779458763
0.0025                    0.0125                   4.918954586388531
0.0025                    0.0135                   4.911641868108402
0.0025                    0.0145                   4.912360541647579
0.0025                    0.0155                   4.919851346849568
0.0025                    0.0165                   4.930300559201761
0.0025                    0.0175                   4.9373745356233
0.0025                    0.0185                   4.936083799884632
0.0025                    0.0195                   4.927469082673227
0.0025                    0.0205                   4.914550430273059
0.0025                    0.0215                   4.895741362169692
0.0025                    0.0225                   4.869261778895124
0.0025                    0.0235                   4.835691112847248
0.0025                    0.0245                   4.796302290624307
0.0025                    0.0255                   4.753127501680055
0.0025                    0.0265                   4.707679296213267
0.0025                    0.0275                   4.6610365849125435
0.0025                    0.0285                   4.614256482510588
0.0025                    0.0295                   4.56923737297989
0.0025                    0.0305                   4.530444752876108
0.0025                    0.0315                   4.5065153579622965
0.0035                    -0.0315                  3.1818358359121763
0.0035                    -0.0305                  3.2093396734556525
0.0035                    -0.0295                  3.2566605112369875
0.0035                    -0.0285                  3.3138853616157804
0.0035                    -0.0275                  3.374065181358181
0.0035                    -0.0265                  3.433744160771811
0.0035                    -0.0255                  3.491473764623903
0.0035                    -0.0245                  3.5465000464567966
0.0035                    -0.0235                  3.598376423335967
0.0035                    -0.0225                  3.6474993475258106
0.0035                    -0.0215                  3.696038173255146
0.0035                    -0.0205                  3.7483703510847195
0.0035                    -0.0195                  3.8113225829564086
0.0035                    -0.0185                  3.893803208760375
0.0035                    -0.0175                  4.004620475502971
0.0035                    -0.0165                  4.148321882817249
0.0035                    -0.0155                  4.314588920444185
0.0035                    -0.0145                  4.471773290029389
0.0035                    -0.0135                  4.586813431892828
0.0035                    -0.0125                  4.661798887157138
0.0035                    -0.0115                  4.718951613141419
0.0035                    -0.0105                  4.7680657037026934
0.0035                    -0.0095                  4.811438126516822
0.0035                    -0.0085                  4.84662705413828
0.0035                    -0.0075                  4.866223223851469
0.0035                    -0.0065                  4.8641945560532065
0.0035                    -0.0055                  4.841075074085252
0.0035                    -0.0045                  4.803187674379799
0.0035                    -0.0035                  4.759910695809904
0.0035                    -0.0025                  4.721221324153694
0.0035                    -0.0015                  4.695876489552095
0.0035                    -5.0E-4                  4.688290694218457
0.0035                    5.0E-4                   4.698939689902747
0.0035                    0.0015                   4.729414690684658
0.0035                    0.0025                   4.782338148576901
0.0035                    0.0035                   4.860630681433373
0.0035                    0.0045                   4.975182990609147
0.0035                    0.0055                   5.146708927169997
0.0035                    0.0065                   5.356862627231456
0.0035                    0.0075                   5.504382252477332
0.0035                    0.0085                   5.496619028754615
0.0035                    0.0095                   5.347207065221655
0.0035                    0.0105                   5.1529303721126105
0.0035                    0.0115                   5.0013800647792745
0.0035                    0.0125                   4.914800756703696
0.0035                    0.0135                   4.877004449832705
0.0035                    0.0145                   4.868700880818303
0.0035                    0.0155                   4.878671191353757
0.0035                    0.0165                   4.897060252494562
0.0035                    0.0175                   4.9123688577284454
0.0035                    0.0185                   4.915726949738467
0.0035                    0.0195                   4.907605478014284
0.0035                    0.0205                   4.894217469209716
0.0035                    0.0215                   4.877059535387634
0.0035                    0.0225                   4.854093688519565
0.0035                    0.0235                   4.82349015675529
0.0035                    0.0245                   4.784539717133301
0.0035                    0.0255                   4.738758109562361
0.0035                    0.0265                   4.688410053592327
0.0035                    0.0275                   4.635711810643803
0.0035                    0.0285                   4.5830138846243695
0.0035                    0.0295                   4.533803921756604
0.0035                    0.0305                   4.493767667154573
0.0035                    0.0315                   4.470616431783383
0.0045                    -0.0315                  3.122759105940056
0.0045                    -0.0305                  3.145864239855471
0.0045                    -0.0295                  3.186960439189018
0.0045                    -0.0285                  3.2385696865083338
0.0045                    -0.0275                  3.294364293327609
0.0045                    -0.0265                  3.3502401072688968
0.0045                    -0.0255                  3.4040409447320923
0.0045                    -0.0245                  3.4547090430283145
0.0045                    -0.0235                  3.5016497129685913
0.0045                    -0.0225                  3.544936912985157
0.0045                    -0.0215                  3.5865274431456236
0.0045                    -0.0205                  3.6311221845818986
0.0045                    -0.0195                  3.6846835763111807
0.0045                    -0.0185                  3.7538751395727097
0.0045                    -0.0175                  3.8452183785161806
0.0045                    -0.0165                  3.967094770938451
0.0045                    -0.0155                  4.123705140957264
0.0045                    -0.0145                  4.296181342993304
0.0045                    -0.0135                  4.449250915896375
0.0045                    -0.0125                  4.569657493923876
0.0045                    -0.0115                  4.666283818142022
0.0045                    -0.0105                  4.745785526453369
0.0045                    -0.0095                  4.808818007919129
0.0045                    -0.0085                  4.851537801326077
0.0045                    -0.0075                  4.871573509850296
0.0045                    -0.0065                  4.864972446457148
0.0045                    -0.0055                  4.828955052502342
0.0045                    -0.0045                  4.772366189123966
0.0045                    -0.0035                  4.7120633302902855
0.0045                    -0.0025                  4.664710915882499
0.0045                    -0.0015                  4.640039557594658
0.0045                    -5.0E-4                  4.638434955706522
0.0045                    5.0E-4                   4.660006925090316
0.0045                    0.0015                   4.7138624217895915
0.0045                    0.0025                   4.8145970770470665
0.0045                    0.0035                   4.9635267995392365
0.0045                    0.0045                   5.142714829318782
0.0045                    0.0055                   5.332678809892096
0.0045                    0.0065                   5.50583980312326
0.0045                    0.0075                   5.606205116042884
0.0045                    0.0085                   5.5842946628800165
0.0045                    0.0095                   5.4435934727110356
0.0045                    0.0105                   5.235378323564213
0.0045                    0.0115                   5.037306128652132
0.0045                    0.0125                   4.908240156101368
0.0045                    0.0135                   4.84890703504492
0.0045                    0.0145                   4.831190434737401
0.0045                    0.0155                   4.836724055120743
0.0045                    0.0165                   4.8555545622894005
0.0045                    0.0175                   4.87502304331618
0.0045                    0.0185                   4.883017313428162
0.0045                    0.0195                   4.877630114760153
0.0045                    0.0205                   4.86560177943897
0.0045                    0.0215                   4.850975143647572
0.0045                    0.0225                   4.831789290471606
0.0045                    0.0235                   4.804384799673313
0.0045                    0.0245                   4.766443812510518
0.0045                    0.0255                   4.7188361906525635
0.0045                    0.0265                   4.664547339607902
0.0045                    0.0275                   4.606895161448575
0.0045                    0.0285                   4.549547827888652
0.0045                    0.0295                   4.497185330895249
0.0045                    0.0305                   4.455909949504369
0.0045                    0.0315                   4.432746139753613
0.0055                    -0.0315                  3.0621513979038673
0.0055                    -0.0305                  3.0818218662728443
0.0055                    -0.0295                  3.1173919032925834
0.0055                    -0.0285                  3.1628445447741877
0.0055                    -0.0275                  3.2127444116923165
0.0055                    -0.0265                  3.2631748333434043
0.0055                    -0.0255                  3.311983424534004
0.0055                    -0.0245                  3.358515951115712
0.0055                    -0.0235                  3.402882384294542
0.0055                    -0.0225                  3.445469747374381
0.0055                    -0.0215                  3.4873862863318084
0.0055                    -0.0205                  3.5317699386803114
0.0055                    -0.0195                  3.582811742317615
0.0055                    -0.0185                  3.6454647780995892
0.0055                    -0.0175                  3.7236510942721344
0.0055                    -0.0165                  3.824270206267505
0.0055                    -0.0155                  3.95752843560906
0.0055                    -0.0145                  4.119813257162925
0.0055                    -0.0135                  4.290261336306079
0.0055                    -0.0125                  4.450145053065023
0.0055                    -0.0115                  4.590535695222257
0.0055                    -0.0105                  4.706028769610029
0.0055                    -0.0095                  4.7891283743184525
0.0055                    -0.0085                  4.834744443932506
0.0055                    -0.0075                  4.850413944799156
0.0055                    -0.0065                  4.839494374343023
0.0055                    -0.0055                  4.797122621189429
0.0055                    -0.0045                  4.7325753496304195
0.0055                    -0.0035                  4.669014813896049
0.0055                    -0.0025                  4.627699884586356
0.0055                    -0.0015                  4.613487207031019
0.0055                    -5.0E-4                  4.619675866109678
0.0055                    5.0E-4                   4.647920192642078
0.0055                    0.0015                   4.7151869199209075
0.0055                    0.0025                   4.841237653848243
0.0055                    0.0035                   5.019343906973894
0.0055                    0.0045                   5.2123994097214865
0.0055                    0.0055                   5.386627120723103
0.0055                    0.0065                   5.519609194654381
0.0055                    0.0075                   5.585764450310155
0.0055                    0.0085                   5.562245619542848
0.0055                    0.0095                   5.444033039906044
0.0055                    0.0105                   5.252284255229213
0.0055                    0.0115                   5.047231259393982
0.0055                    0.0125                   4.901646053001887
0.0055                    0.0135                   4.833271129320948
0.0055                    0.0145                   4.8106798032096245
0.0055                    0.0155                   4.80899674754466
0.0055                    0.0165                   4.820496032248852
0.0055                    0.0175                   4.836800996982001
0.0055                    0.0185                   4.845678346646124
0.0055                    0.0195                   4.842830395751462
0.0055                    0.0205                   4.833561152444955
0.0055                    0.0215                   4.8219134398399675
0.0055                    0.0225                   4.805465408122239
0.0055                    0.0235                   4.779918992469048
0.0055                    0.0245                   4.742635473297682
0.0055                    0.0255                   4.693957885720761
0.0055                    0.0265                   4.637048931270561
0.0055                    0.0275                   4.5758794068910955
0.0055                    0.0285                   4.515024757696449
0.0055                    0.0295                   4.459896534987981
0.0055                    0.0305                   4.416924169291373
0.0055                    0.0315                   4.393081323895919
0.0065                    -0.0315                  3.000480287234697
0.0065                    -0.0305                  3.0175295159776025
0.0065                    -0.0295                  3.0486893922870424
0.0065                    -0.0285                  3.0887865616822245
0.0065                    -0.0275                  3.133009531437812
0.0065                    -0.0265                  3.177802230868647
0.0065                    -0.0255                  3.2213479036779544
0.0065                    -0.0245                  3.26394799242264
0.0065                    -0.0235                  3.3072840322783614
0.0065                    -0.0225                  3.3529441237441877
0.0065                    -0.0215                  3.4017428775904883
0.0065                    -0.0205                  3.4530068943992727
0.0065                    -0.0195                  3.5073714928771293
0.0065                    -0.0185                  3.569625625969481
0.0065                    -0.0175                  3.6435399935863995
0.0065                    -0.0165                  3.7326543445435574
0.0065                    -0.0155                  3.843156804737284
0.0065                    -0.0145                  3.979342492474068
0.0065                    -0.0135                  4.1429480747392
0.0065                    -0.0125                  4.324188395930612
0.0065                    -0.0115                  4.500895432848306
0.0065                    -0.0105                  4.648979117833528
0.0065                    -0.0095                  4.748501070065257
0.0065                    -0.0085                  4.795226534485181
0.0065                    -0.0075                  4.805107855219269
0.0065                    -0.0065                  4.790981674195029
0.0065                    -0.0055                  4.750777150895719
0.0065                    -0.0045                  4.692031388527993
0.0065                    -0.0035                  4.638803306575428
0.0065                    -0.0025                  4.609909725305175
0.0065                    -0.0015                  4.6037548412613924
0.0065                    -5.0E-4                  4.612743847828253
0.0065                    5.0E-4                   4.643868147592929
0.0065                    0.0015                   4.719627623259163
0.0065                    0.0025                   4.856802261440687
0.0065                    0.0035                   5.0370433203041305
0.0065                    0.0045                   5.216138194283253
0.0065                    0.0055                   5.364193300814489
0.0065                    0.0065                   5.4677093916493735
0.0065                    0.0075                   5.513858936768467
0.0065                    0.0085                   5.490812446873316
0.0065                    0.0095                   5.389066866321265
0.0065                    0.0105                   5.219047612328333
0.0065                    0.0115                   5.030069515612139
0.0065                    0.0125                   4.8880970503996135