% Model:              Benchmark260518.mph
% Version:            COMSOL 6.2.0.339
% Date:               May 21 2026, 03:34
% Dimension:          2
% Nodes:              4096
% Expressions:        1
% Description:        压力
% Length unit:        m
% x                       y                        p (Pa)
5.0E-4                    -0.0315                  3.4623997168564236
5.0E-4                    -0.0305                  3.4895302839013156
5.0E-4                    -0.0295                  3.5265726595570817
5.0E-4                    -0.0285                  3.5668874238981187
5.0E-4                    -0.0275                  3.609071798583402
5.0E-4                    -0.0265                  3.6525901303813684
5.0E-4                    -0.0255                  3.697104322586149
5.0E-4                    -0.0245                  3.7424702609764586
5.0E-4                    -0.0235                  3.7885747069618705
5.0E-4                    -0.0225                  3.835310829964042
5.0E-4                    -0.0215                  3.8826212026108875
5.0E-4                    -0.0205                  3.93050352510214
5.0E-4                    -0.0195                  3.9789906766393397
5.0E-4                    -0.0185                  4.0281498587270566
5.0E-4                    -0.0175                  4.07804109931745
5.0E-4                    -0.0165                  4.128681594393581
5.0E-4                    -0.0155                  4.180055863606211
5.0E-4                    -0.0145                  4.2321178699223765
5.0E-4                    -0.0135                  4.284797809084591
5.0E-4                    -0.0125                  4.338030743377785
5.0E-4                    -0.0115                  4.391793410457727
5.0E-4                    -0.0105                  4.4461172947843455
5.0E-4                    -0.0095                  4.501115430576789
5.0E-4                    -0.0085                  4.556987374438142
5.0E-4                    -0.0075                  4.613984288609993
5.0E-4                    -0.0065                  4.67237337366409
5.0E-4                    -0.0055                  4.731267581488694
5.0E-4                    -0.0045                  4.787146430513318
5.0E-4                    -0.0035                  4.8356563581136935
5.0E-4                    -0.0025                  4.8714191633883335
5.0E-4                    -0.0015                  4.892601458362242
5.0E-4                    -5.0E-4                  4.910263268643359
5.0E-4                    5.0E-4                   4.932885712709488
5.0E-4                    0.0015                   4.956386640518256
5.0E-4                    0.0025                   4.976903012683592
5.0E-4                    0.0035                   4.99468236899113
5.0E-4                    0.0045                   5.0096984771549415
5.0E-4                    0.0055                   5.019973689051276
5.0E-4                    0.0065                   5.023613715730176
5.0E-4                    0.0075                   5.01965624243394
5.0E-4                    0.0085                   5.0087478101150005
5.0E-4                    0.0095                   4.9929024221370515
5.0E-4                    0.0105                   4.9743252852758335
5.0E-4                    0.0115                   4.954659304817858
5.0E-4                    0.0125                   4.936342891128104
5.0E-4                    0.0135                   4.925336114642183
5.0E-4                    0.0145                   4.919618838831308
5.0E-4                    0.0155                   4.899588202953539
5.0E-4                    0.0165                   4.849909971133421
5.0E-4                    0.0175                   4.7863511728367785
5.0E-4                    0.0185                   4.728900486047325
5.0E-4                    0.0195                   4.679503262046939
5.0E-4                    0.0205                   4.636671781559669
5.0E-4                    0.0215                   4.59860366536669
5.0E-4                    0.0225                   4.563860441973444
5.0E-4                    0.0235                   4.531068977096936
5.0E-4                    0.0245                   4.49954665156612
5.0E-4                    0.0255                   4.469061275989646
5.0E-4                    0.0265                   4.4394676476648245
5.0E-4                    0.0275                   4.410766001916353
5.0E-4                    0.0285                   4.383116806509971
5.0E-4                    0.0295                   4.356809629939738
5.0E-4                    0.0305                   4.332699686659133
5.0E-4                    0.0315                   4.315024730089453
0.0015                    -0.0315                  3.4351904216274787
0.0015                    -0.0305                  3.462332884919684
0.0015                    -0.0295                  3.5019849914022996
0.0015                    -0.0285                  3.545373540537355
0.0015                    -0.0275                  3.590058517992525
0.0015                    -0.0265                  3.63547276097706
0.0015                    -0.0255                  3.681422295085516
0.0015                    -0.0245                  3.7278215976592723
0.0015                    -0.0235                  3.774628210256896
0.0015                    -0.0225                  3.8218043500736614
0.0015                    -0.0215                  3.869331294070848
0.0015                    -0.0205                  3.91723358231162
0.0015                    -0.0195                  3.9655813342603183
0.0015                    -0.0185                  4.01447886626216
0.0015                    -0.0175                  4.064043608241953
0.0015                    -0.0165                  4.114374652542796
0.0015                    -0.0155                  4.165528182709332
0.0015                    -0.0145                  4.21750040111465
0.0015                    -0.0135                  4.27021302206674
0.0015                    -0.0125                  4.32352463248571
0.0015                    -0.0115                  4.377287039632729
0.0015                    -0.0105                  4.431453490901891
0.0015                    -0.0095                  4.4861944526459
0.0015                    -0.0085                  4.541964513410253
0.0015                    -0.0075                  4.59943824462173
0.0015                    -0.0065                  4.659035521319158
0.0015                    -0.0055                  4.719765810861786
0.0015                    -0.0045                  4.777893681877167
0.0015                    -0.0035                  4.8286853713979
0.0015                    -0.0025                  4.866170249006287
0.0015                    -0.0015                  4.889801076982233
0.0015                    -5.0E-4                  4.903818401932856
0.0015                    5.0E-4                   4.919311686510577
0.0015                    0.0015                   4.941355523696781
0.0015                    0.0025                   4.963476274334594
0.0015                    0.0035                   4.9842939429162385
0.0015                    0.0045                   5.002797899492908
0.0015                    0.0055                   5.016335767605347
0.0015                    0.0065                   5.021246597607734
0.0015                    0.0075                   5.01480145474547
0.0015                    0.0085                   4.997577766360232
0.0015                    0.0095                   4.973077518766068
0.0015                    0.0105                   4.943834682000272
0.0015                    0.0115                   4.908252947025997
0.0015                    0.0125                   4.864656832758224
0.0015                    0.0135                   4.821588793118103
0.0015                    0.0145                   4.788389256508787
0.0015                    0.0155                   4.765017223557398
0.0015                    0.0165                   4.743931151049228
0.0015                    0.0175                   4.713822983101791
0.0015                    0.0185                   4.676213840222473
0.0015                    0.0195                   4.639706485623153
0.0015                    0.0205                   4.6061516870884915
0.0015                    0.0215                   4.574665885043293
0.0015                    0.0225                   4.544223810231994
0.0015                    0.0235                   4.51421554038297
0.0015                    0.0245                   4.484448762144791
0.0015                    0.0255                   4.454893134376172
0.0015                    0.0265                   4.425587641860601
0.0015                    0.0275                   4.396599000425507
0.0015                    0.0285                   4.368039214098477
0.0015                    0.0295                   4.340240480182865
0.0015                    0.0305                   4.314720591815207
0.0015                    0.0315                   4.297178582095926
0.0025                    -0.0315                  3.3979289724335167
0.0025                    -0.0305                  3.4224877794359183
0.0025                    -0.0295                  3.4621272361867326
0.0025                    -0.0285                  3.507939110243097
0.0025                    -0.0275                  3.5556193895709063
0.0025                    -0.0265                  3.6037271888671456
0.0025                    -0.0255                  3.6518744753282544
0.0025                    -0.0245                  3.699960780612319
0.0025                    -0.0235                  3.7479661604423624
0.0025                    -0.0225                  3.7959009000101527
0.0025                    -0.0215                  3.843795646494941
0.0025                    -0.0205                  3.891715823240771
0.0025                    -0.0195                  3.9397783379640297
0.0025                    -0.0185                  3.9881521225749514
0.0025                    -0.0175                  4.037045280428186
0.0025                    -0.0165                  4.086678485524878
0.0025                    -0.0155                  4.137240636273994
0.0025                    -0.0145                  4.188834929292744
0.0025                    -0.0135                  4.241426552000107
0.0025                    -0.0125                  4.2948156104307795
0.0025                    -0.0115                  4.348686476781462
0.0025                    -0.0105                  4.40277913171857
0.0025                    -0.0095                  4.457157980711567
0.0025                    -0.0085                  4.5124064228639025
0.0025                    -0.0075                  4.569471168028837
0.0025                    -0.0065                  4.628977211690554
0.0025                    -0.0055                  4.689953066033121
0.0025                    -0.0045                  4.748759476898418
0.0025                    -0.0035                  4.801246990881413
0.0025                    -0.0025                  4.842332779183584
0.0025                    -0.0015                  4.870615512307173
0.0025                    -5.0E-4                  4.8886861585833685
0.0025                    5.0E-4                   4.903120269626065
0.0025                    0.0015                   4.921222144359425
0.0025                    0.0025                   4.9429809897007075
0.0025                    0.0035                   4.966029246553437
0.0025                    0.0045                   4.987832383535089
0.0025                    0.0055                   5.004501819965409
0.0025                    0.0065                   5.010282020940664
0.0025                    0.0075                   5.00006706751364
0.0025                    0.0085                   4.97432040345168
0.0025                    0.0095                   4.938939790103207
0.0025                    0.0105                   4.898726975303643
0.0025                    0.0115                   4.852094689507381
0.0025                    0.0125                   4.795710746362234
0.0025                    0.0135                   4.738915506200352
0.0025                    0.0145                   4.694050146612396
0.0025                    0.0155                   4.659467492766381
0.0025                    0.0165                   4.633628989385098
0.0025                    0.0175                   4.614993403320225
0.0025                    0.0185                   4.596645396583607
0.0025                    0.0195                   4.57645631597793
0.0025                    0.0205                   4.555263029887607
0.0025                    0.0215                   4.53286069853449
0.0025                    0.0225                   4.508833063944944
0.0025                    0.0235                   4.4832370374654715
0.0025                    0.0245                   4.456358592248799
0.0025                    0.0255                   4.428518209903525
0.0025                    0.0265                   4.399974270034903
0.0025                    0.0275                   4.370934530016644
0.0025                    0.0285                   4.341710044593973
0.0025                    0.0295                   4.31323514740768
0.0025                    0.0305                   4.288308302336597
0.0025                    0.0315                   4.2727826073676685
0.0035                    -0.0315                  3.3573405074517693
0.0035                    -0.0305                  3.3788025865959614
0.0035                    -0.0295                  3.4159429299086805
0.0035                    -0.0285                  3.461665697782246
0.0035                    -0.0275                  3.5109862555579263
0.0035                    -0.0265                  3.5613317594763205
0.0035                    -0.0255                  3.6116496427359026
0.0035                    -0.0245                  3.6615694236850738
0.0035                    -0.0235                  3.710972079960358
0.0035                    -0.0225                  3.7598374569033055
0.0035                    -0.0215                  3.8082001058826167
0.0035                    -0.0205                  3.8561450393649714
0.0035                    -0.0195                  3.9038210702154883
0.0035                    -0.0185                  3.951453578301824
0.0035                    -0.0175                  3.9993429011755186
0.0035                    -0.0165                  4.0478415293748995
0.0035                    -0.0155                  4.097303928606896
0.0035                    -0.0145                  4.148009024424114
0.0035                    -0.0135                  4.200067989142186
0.0035                    -0.0125                  4.253343474397739
0.0035                    -0.0115                  4.307430931867852
0.0035                    -0.0105                  4.361777310826596
0.0035                    -0.0095                  4.415988948999948
0.0035                    -0.0085                  4.47021588559647
0.0035                    -0.0075                  4.52521572887567
0.0035                    -0.0065                  4.581722810791173
0.0035                    -0.0055                  4.639356596132651
0.0035                    -0.0045                  4.695815786724953
0.0035                    -0.0035                  4.748683704189665
0.0035                    -0.0025                  4.79411131942373
0.0035                    -0.0015                  4.828049224589822
0.0035                    -5.0E-4                  4.851128127164983
0.0035                    5.0E-4                   4.869638529046448
0.0035                    0.0015                   4.890021028162992
0.0035                    0.0025                   4.9138476796034976
0.0035                    0.0035                   4.939596346574634
0.0035                    0.0045                   4.964158834990151
0.0035                    0.0055                   4.982595780207801
0.0035                    0.0065                   4.986997314633305
0.0035                    0.0075                   4.970828866981425
0.0035                    0.0085                   4.935412021898359
0.0035                    0.0095                   4.888667651211638
0.0035                    0.0105                   4.838109561921948
0.0035                    0.0115                   4.785573773567366
0.0035                    0.0125                   4.728129585947151
0.0035                    0.0135                   4.669887061133377
0.0035                    0.0145                   4.6219643825886045
0.0035                    0.0155                   4.584554302195681
0.0035                    0.0165                   4.553967348874547
0.0035                    0.0175                   4.532144287606491
0.0035                    0.0185                   4.518065301554305
0.0035                    0.0195                   4.507212791422818
0.0035                    0.0205                   4.495487914535072
0.0035                    0.0215                   4.4809748018781175
0.0035                    0.0225                   4.463151007779205
0.0035                    0.0235                   4.44222876812924
0.0035                    0.0245                   4.418735294020605
0.0035                    0.0255                   4.39318991095478
0.0035                    0.0265                   4.366037135418999
0.0035                    0.0275                   4.337742841362855
0.0035                    0.0285                   4.309110123922968
0.0035                    0.0295                   4.28187970646526
0.0035                    0.0305                   4.2593630373212985
0.0035                    0.0315                   4.246240716460945
0.0045                    -0.0315                  3.3149557404663774
0.0045                    -0.0305                  3.3337863272310297
0.0045                    -0.0295                  3.367746824944966
0.0045                    -0.0285                  3.4115343103760347
0.0045                    -0.0275                  3.4606423157970454
0.0045                    -0.0265                  3.5119898696416145
0.0045                    -0.0255                  3.5638202786263307
0.0045                    -0.0245                  3.6152801196706505
0.0045                    -0.0235                  3.6659923488604877
0.0045                    -0.0225                  3.7158044885678465
0.0045                    -0.0215                  3.7646820968225296
0.0045                    -0.0205                  3.8126767878152767
0.0045                    -0.0195                  3.8599286808651705
0.0045                    -0.0185                  3.906682106305831
0.0045                    -0.0175                  3.9532962651686985
0.0045                    -0.0165                  4.000234344167408
0.0045                    -0.0155                  4.048019474093295
0.0045                    -0.0145                  4.097152362053802
0.0045                    -0.0135                  4.147995470706178
0.0045                    -0.0125                  4.2006395073617995
0.0045                    -0.0115                  4.254780982534941
0.0045                    -0.0105                  4.309670143428333
0.0045                    -0.0095                  4.364235002666288
0.0045                    -0.0085                  4.417526910334665
0.0045                    -0.0075                  4.46939793351901
0.0045                    -0.0065                  4.520620642870787
0.0045                    -0.0055                  4.571981177431868
0.0045                    -0.0045                  4.623958490413645
0.0045                    -0.0035                  4.6757444251368945
0.0045                    -0.0025                  4.724002322609321
0.0045                    -0.0015                  4.764003741937356
0.0045                    -5.0E-4                  4.795177579105346
0.0045                    5.0E-4                   4.821865162748752
0.0045                    0.0015                   4.848609585400179
0.0045                    0.0025                   4.87728433955251
0.0045                    0.0035                   4.906360074874209
0.0045                    0.0045                   4.93257781792961
0.0045                    0.0055                   4.9497269310667145
0.0045                    0.0065                   4.948690504985551
0.0045                    0.0075                   4.9242720402261515
0.0045                    0.0085                   4.879674875814624
0.0045                    0.0095                   4.82385979476814
0.0045                    0.0105                   4.766100393312263
0.0045                    0.0115                   4.711410126587591
0.0045                    0.0125                   4.658885129864117
0.0045                    0.0135                   4.607368213517038
0.0045                    0.0145                   4.563017189100054
0.0045                    0.0155                   4.528189944664019
0.0045                    0.0165                   4.498525272161832
0.0045                    0.0175                   4.474053807796311
0.0045                    0.0185                   4.456541724630645
0.0045                    0.0195                   4.44500489039483
0.0045                    0.0205                   4.43594178720995
0.0045                    0.0215                   4.425591485974955
0.0045                    0.0225                   4.412087120746838
0.0045                    0.0235                   4.395142595478099
0.0045                    0.0245                   4.375010882635616
0.0045                    0.0255                   4.3521364348666305
0.0045                    0.0265                   4.327058985293146
0.0045                    0.0275                   4.3005390054159545
0.0045                    0.0285                   4.273869907386592
0.0045                    0.0295                   4.249187962024117
0.0045                    0.0305                   4.229544875215199
0.0045                    0.0315                   4.218483270848177
0.0055                    -0.0315                  3.271271172529474
0.0055                    -0.0305                  3.2880244427876604
0.0055                    -0.0295                  3.318972131323883
0.0055                    -0.0285                  3.360087641971176
0.0055                    -0.0275                  3.4076320407491534
0.0055                    -0.0265                  3.458633340423573
0.0055                    -0.0255                  3.5109792201953653
0.0055                    -0.0245                  3.5633605678199123
0.0055                    -0.0235                  3.6150495989828832
0.0055                    -0.0225                  3.665667438518648
0.0055                    -0.0215                  3.715035326191997
0.0055                    -0.0205                  3.7631080894427917
0.0055                    -0.0195                  3.8099595080925144
0.0055                    -0.0185                  3.8557948228831
0.0055                    -0.0175                  3.9009710750790636
0.0055                    -0.0165                  3.9460059313775204
0.0055                    -0.0155                  3.991555632724727
0.0055                    -0.0145                  4.038347138636386
0.0055                    -0.0135                  4.0870584403370795
0.0055                    -0.0125                  4.138149961795339
0.0055                    -0.0115                  4.1916511294541765
0.0055                    -0.0105                  4.246912646543202
0.0055                    -0.0095                  4.302408734416909
0.0055                    -0.0085                  4.35588242327
0.0055                    -0.0075                  4.405474119595335
0.0055                    -0.0065                  4.451495296226269
0.0055                    -0.0055                  4.496421323592888
0.0055                    -0.0045                  4.543796209880893
0.0055                    -0.0035                  4.593895672896333
0.0055                    -0.0025                  4.642548472438042
0.0055                    -0.0015                  4.686988193362115
0.0055                    -5.0E-4                  4.727013981843795
0.0055                    5.0E-4                   4.763600465363748
0.0055                    0.0015                   4.798812362283072
0.0055                    0.0025                   4.833428605405121
0.0055                    0.0035                   4.865733736092466
0.0055                    0.0045                   4.891637149664539
0.0055                    0.0055                   4.903804430896869
0.0055                    0.0065                   4.89455628014374
0.0055                    0.0075                   4.8616701931464075
0.0055                    0.0085                   4.809985034528962
0.0055                    0.0095                   4.748896856758803
0.0055                    0.0105                   4.689113417902156
0.0055                    0.0115                   4.6364110278987205
0.0055                    0.0125                   4.589694239904982
0.0055                    0.0135                   4.547170621568389
0.0055                    0.0145                   4.510414113452474
0.0055                    0.0155                   4.480626072827617
0.0055                    0.0165                   4.454750337237335
0.0055                    0.0175                   4.431081155118766
0.0055                    0.0185                   4.4108361638089155
0.0055                    0.0195                   4.394482850566719
0.0055                    0.0205                   4.382060290647187
0.0055                    0.0215                   4.371488866156772
0.0055                    0.0225                   4.359771625925331
0.0055                    0.0235                   4.345553279176171
0.0055                    0.0245                   4.328372449860207
0.0055                    0.0255                   4.308314403929086
0.0055                    0.0265                   4.285844819315548
0.0055                    0.0275                   4.261897485802864
0.0055                    0.0285                   4.237992895909924
0.0055                    0.0295                   4.216243084197448
0.0055                    0.0305                   4.199257464361887
0.0055                    0.0315                   4.189835018409061
0.0065                    -0.0315                  3.226563489474523
0.0065                    -0.0305                  3.241664461287071
0.0065                    -0.0295                  3.269986455756284
0.0065                    -0.0285                  3.3083437830287865
0.0065                    -0.0275                  3.353662605409471
0.0065                    -0.0265                  3.4033201248438982
0.0065                    -0.0255                  3.455195620471109
0.0065                    -0.0245                  3.507731654189645
0.0065                    -0.0235                  3.5598926876117165
0.0065                    -0.0225                  3.6110382826025837
0.0065                    -0.0215                  3.6607919514511282
0.0065                    -0.0205                  3.708956570839028
0.0065                    -0.0195                  3.755481536445545
0.0065                    -0.0185                  3.8004676524916445
0.0065                    -0.0175                  3.8441934926093397
0.0065                    -0.0165                  3.88714619055715
0.0065                    -0.0155                  3.9300347746836097
0.0065                    -0.0145                  3.9737589394401116
0.0065                    -0.0135                  4.019309599662726
0.0065                    -0.0125                  4.067589078823624
0.0065                    -0.0115                  4.119148599788703
0.0065                    -0.0105                  4.173826981176106
0.0065                    -0.0095                  4.230269316051034
0.0065                    -0.0085                  4.285555581174105
0.0065                    -0.0075                  4.335928865777702
0.0065                    -0.0065                  4.380149678185864
0.0065                    -0.0055                  4.421164356153684
0.0065                    -0.0045                  4.464716652010199
0.0065                    -0.0035                  4.5124979539783245
0.0065                    -0.0025                  4.559855889106726
0.0065                    -0.0015                  4.606022582226126
0.0065                    -5.0E-4                  4.651932201660319
0.0065                    5.0E-4                   4.696541628153618
0.0065                    0.0015                   4.739759425861044
0.0065                    0.0025                   4.780184204355592
0.0065                    0.0035                   4.814682636787186
0.0065                    0.0045                   4.837950220485181
0.0065                    0.0055                   4.843437977393602
0.0065                    0.0065                   4.826632447328503
0.0065                    0.0075                   4.787905582448568
0.0065                    0.0085                   4.733459024680313
0.0065                    0.0095                   4.672282317087105
0.0065                    0.0105                   4.614595073895997
0.0065                    0.0115                   4.565615973907927
0.0065                    0.0125                   4.524045634532946