% Model:              Benchmark260518.mph
% Version:            COMSOL 6.2.0.339
% Date:               May 18 2026, 23:55
% Dimension:          2
% Nodes:              4096
% Expressions:        1
% Description:        压力
% Length unit:        m
% x                       y                        p (Pa)
5.0E-4                    -0.0315                  3.686374907626709
5.0E-4                    -0.0305                  3.70203047033374
5.0E-4                    -0.0295                  3.7234050492304096
5.0E-4                    -0.0285                  3.746727853663965
5.0E-4                    -0.0275                  3.771164331519012
5.0E-4                    -0.0265                  3.7964070112221666
5.0E-4                    -0.0255                  3.822258401879238
5.0E-4                    -0.0245                  3.848614726798204
5.0E-4                    -0.0235                  3.875408468816863
5.0E-4                    -0.0225                  3.902591429311175
5.0E-4                    -0.0215                  3.930128992956589
5.0E-4                    -0.0205                  3.957999022583004
5.0E-4                    -0.0195                  3.9861907951619173
5.0E-4                    -0.0185                  4.0147005953872785
5.0E-4                    -0.0175                  4.043527338628451
5.0E-4                    -0.0165                  4.0726656590426655
5.0E-4                    -0.0155                  4.102092962520061
5.0E-4                    -0.0145                  4.13176019399766
5.0E-4                    -0.0135                  4.1615835187379995
5.0E-4                    -0.0125                  4.19142281671337
5.0E-4                    -0.0115                  4.221105229660895
5.0E-4                    -0.0105                  4.250417132219367
5.0E-4                    -0.0095                  4.27913185983574
5.0E-4                    -0.0085                  4.307042563066192
5.0E-4                    -0.0075                  4.333963799971392
5.0E-4                    -0.0065                  4.359776226367157
5.0E-4                    -0.0055                  4.384429565746983
5.0E-4                    -0.0045                  4.407926731857212
5.0E-4                    -0.0035                  4.430088157796689
5.0E-4                    -0.0025                  4.450410979247021
5.0E-4                    -0.0015                  4.468128187934218
5.0E-4                    -5.0E-4                  4.482116953885075
5.0E-4                    5.0E-4                   4.491086800167326
5.0E-4                    0.0015                   4.494588535690958
5.0E-4                    0.0025                   4.49409698914701
5.0E-4                    0.0035                   4.492249295365323
5.0E-4                    0.0045                   4.491918143643957
5.0E-4                    0.0055                   4.499146028212239
5.0E-4                    0.0065                   4.551672223856548
5.0E-4                    0.0075                   4.70010909608576
5.0E-4                    0.0085                   4.846077170440816
5.0E-4                    0.0095                   4.888957097490627
5.0E-4                    0.0105                   4.890147300378838
5.0E-4                    0.0115                   4.890978544586627
5.0E-4                    0.0125                   4.883147751616144
5.0E-4                    0.0135                   4.862573744084079
5.0E-4                    0.0145                   4.830236552171314
5.0E-4                    0.0155                   4.789771841617738
5.0E-4                    0.0165                   4.744759852656383
5.0E-4                    0.0175                   4.697767859078722
5.0E-4                    0.0185                   4.650016948264637
5.0E-4                    0.0195                   4.601946853320241
5.0E-4                    0.0205                   4.553835728258584
5.0E-4                    0.0215                   4.505853555255217
5.0E-4                    0.0225                   4.4581426788695495
5.0E-4                    0.0235                   4.410866032793422
5.0E-4                    0.0245                   4.364147328619268
5.0E-4                    0.0255                   4.31811515385534
5.0E-4                    0.0265                   4.272926149697467
5.0E-4                    0.0275                   4.228786843273347
5.0E-4                    0.0285                   4.18602540795017
5.0E-4                    0.0295                   4.14511458188708
5.0E-4                    0.0305                   4.107449253554958
5.0E-4                    0.0315                   4.0799279055518785
0.0015                    -0.0315                  3.670587162881577
0.0015                    -0.0305                  3.686222527161954
0.0015                    -0.0295                  3.7090156408566526
0.0015                    -0.0285                  3.734011222413546
0.0015                    -0.0275                  3.7598349884958804
0.0015                    -0.0265                  3.786154348556236
0.0015                    -0.0255                  3.812859853923889
0.0015                    -0.0245                  3.8399017402119835
0.0015                    -0.0235                  3.8672571805451987
0.0015                    -0.0225                  3.894910366514498
0.0015                    -0.0215                  3.9228497748715645
0.0015                    -0.0205                  3.9510713844025274
0.0015                    -0.0195                  3.9795838959230316
0.0015                    -0.0185                  4.008412491501577
0.0015                    -0.0175                  4.037599786559695
0.0015                    -0.0165                  4.067201303444379
0.0015                    -0.0155                  4.097273889716416
0.0015                    -0.0145                  4.127855302991038
0.0015                    -0.0135                  4.158935808604602
0.0015                    -0.0125                  4.190430995715493
0.0015                    -0.0115                  4.222159611832086
0.0015                    -0.0105                  4.253844599241669
0.0015                    -0.0095                  4.2851414218126855
0.0015                    -0.0085                  4.315675991258665
0.0015                    -0.0075                  4.345109872189124
0.0015                    -0.0065                  4.37317166951261
0.0015                    -0.0055                  4.399669072635064
0.0015                    -0.0045                  4.42439119640752
0.0015                    -0.0035                  4.446979105300663
0.0015                    -0.0025                  4.466883018088611
0.0015                    -0.0015                  4.48321262465498
0.0015                    -5.0E-4                  4.494682435614182
0.0015                    5.0E-4                   4.500117221322503
0.0015                    0.0015                   4.500056009349692
0.0015                    0.0025                   4.49716064721932
0.0015                    0.0035                   4.493416910845926
0.0015                    0.0045                   4.48914469822437
0.0015                    0.0055                   4.480021722478711
0.0015                    0.0065                   4.538336569218915
0.0015                    0.0075                   4.7105973297844805
0.0015                    0.0085                   4.8630387527857515
0.0015                    0.0095                   4.9042506946376765
0.0015                    0.0105                   4.900423346162532
0.0015                    0.0115                   4.898523779859985
0.0015                    0.0125                   4.889904011832866
0.0015                    0.0135                   4.870272233500351
0.0015                    0.0145                   4.8379600543093195
0.0015                    0.0155                   4.795870248809392
0.0015                    0.0165                   4.748054995900631
0.0015                    0.0175                   4.697958866761434
0.0015                    0.0185                   4.647404830817573
0.0015                    0.0195                   4.597008386002007
0.0015                    0.0205                   4.5469424855777225
0.0015                    0.0215                   4.497276322390962
0.0015                    0.0225                   4.448061949386733
0.0015                    0.0235                   4.399344170144687
0.0015                    0.0245                   4.3511610849734605
0.0015                    0.0255                   4.303543846602454
0.0015                    0.0265                   4.256529495946754
0.0015                    0.0275                   4.21018340054006
0.0015                    0.0285                   4.1646373387014055
0.0015                    0.0295                   4.120394883915948
0.0015                    0.0305                   4.079920493322453
0.0015                    0.0315                   4.052349432621237
0.0025                    -0.0315                  3.6488347909771823
0.0025                    -0.0305                  3.6629772462232606
0.0025                    -0.0295                  3.685672737027237
0.0025                    -0.0285                  3.7119380188717925
0.0025                    -0.0275                  3.739383768385358
0.0025                    -0.0265                  3.767211065183815
0.0025                    -0.0255                  3.7952169949683303
0.0025                    -0.0245                  3.82336846453957
0.0025                    -0.0235                  3.851675545068703
0.0025                    -0.0225                  3.8801567561855452
0.0025                    -0.0215                  3.9088295994975764
0.0025                    -0.0205                  3.937715346855581
0.0025                    -0.0195                  3.966850720517217
0.0025                    -0.0185                  3.996301946821956
0.0025                    -0.0175                  4.026175865823815
0.0025                    -0.0165                  4.05662312475965
0.0025                    -0.0155                  4.0878275244560065
0.0025                    -0.0145                  4.119975927978977
0.0025                    -0.0135                  4.153208621119002
0.0025                    -0.0125                  4.187556090808474
0.0025                    -0.0115                  4.222877010032023
0.0025                    -0.0105                  4.2588246926636
0.0025                    -0.0095                  4.294859237801868
0.0025                    -0.0085                  4.3303169980738785
0.0025                    -0.0075                  4.364505363020493
0.0025                    -0.0065                  4.396781798264161
0.0025                    -0.0055                  4.426551075032238
0.0025                    -0.0045                  4.45319990860028
0.0025                    -0.0035                  4.476042368668098
0.0025                    -0.0025                  4.494287698963031
0.0025                    -0.0015                  4.507016849562707
0.0025                    -5.0E-4                  4.513349623655428
0.0025                    5.0E-4                   4.5134057016682
0.0025                    0.0015                   4.509208673721666
0.0025                    0.0025                   4.503635396648456
0.0025                    0.0035                   4.497747454434409
0.0025                    0.0045                   4.491338500222917
0.0025                    0.0055                   4.488564058295232
0.0025                    0.0065                   4.572798110628196
0.0025                    0.0075                   4.7549765852327255
0.0025                    0.0085                   4.894421105589033
0.0025                    0.0095                   4.92866179691022
0.0025                    0.0105                   4.917792711152573
0.0025                    0.0115                   4.90843577515865
0.0025                    0.0125                   4.895976328335109
0.0025                    0.0135                   4.875669460207883
0.0025                    0.0145                   4.84318177535881
0.0025                    0.0155                   4.799495171755854
0.0025                    0.0165                   4.7485937990732
0.0025                    0.0175                   4.694622654344687
0.0025                    0.0185                   4.640076830874641
0.0025                    0.0195                   4.585987829905793
0.0025                    0.0205                   4.532642170277023
0.0025                    0.0215                   4.4800584916562975
0.0025                    0.0225                   4.428175988882433
0.0025                    0.0235                   4.376907738878424
0.0025                    0.0245                   4.326157680772699
0.0025                    0.0255                   4.275827610057991
0.0025                    0.0265                   4.225835596876535
0.0025                    0.0275                   4.176172361216484
0.0025                    0.0285                   4.127126140876758
0.0025                    0.0295                   4.080076648081341
0.0025                    0.0305                   4.039475107724746
0.0025                    0.0315                   4.014585593389405
0.0035                    -0.0315                  3.6249100880934115
0.0035                    -0.0305                  3.6373079416064193
0.0035                    -0.0295                  3.6585116893094503
0.0035                    -0.0285                  3.6846121336017843
0.0035                    -0.0275                  3.712886274611515
0.0035                    -0.0265                  3.741932881826661
0.0035                    -0.0255                  3.771210576582363
0.0035                    -0.0245                  3.800565877513035
0.0035                    -0.0235                  3.8299835011708114
0.0035                    -0.0225                  3.8594893644573336
0.0035                    -0.0215                  3.889118848394081
0.0035                    -0.0205                  3.9189133723644822
0.0035                    -0.0195                  3.9489332822848793
0.0035                    -0.0185                  3.9792794314976305
0.0035                    -0.0175                  4.0101159053148425
0.0035                    -0.0165                  4.041684775725269
0.0035                    -0.0155                  4.074302672443569
0.0035                    -0.0145                  4.108329814074334
0.0035                    -0.0135                  4.144104960803537
0.0035                    -0.0125                  4.181848129172196
0.0035                    -0.0115                  4.221548148678886
0.0035                    -0.0105                  4.262864525384795
0.0035                    -0.0095                  4.305087929292212
0.0035                    -0.0085                  4.347189578523442
0.0035                    -0.0075                  4.387947352079808
0.0035                    -0.0065                  4.426085357317655
0.0035                    -0.0055                  4.460356389295562
0.0035                    -0.0045                  4.489541939785839
0.0035                    -0.0035                  4.51241136572298
0.0035                    -0.0025                  4.527813617731352
0.0035                    -0.0015                  4.535110779110773
0.0035                    -5.0E-4                  4.53466650733523
0.0035                    5.0E-4                   4.529065092161536
0.0035                    0.0015                   4.521596930824664
0.0035                    0.0025                   4.51387239389235
0.0035                    0.0035                   4.5056320203246685
0.0035                    0.0045                   4.499481277259444
0.0035                    0.0055                   4.5068389909446775
0.0035                    0.0065                   4.608697920777412
0.0035                    0.0075                   4.789702568324522
0.0035                    0.0085                   4.910997226472674
0.0035                    0.0095                   4.938537663472923
0.0035                    0.0105                   4.9268416495594805
0.0035                    0.0115                   4.913213441439973
0.0035                    0.0125                   4.896692442265315
0.0035                    0.0135                   4.87357752122907
0.0035                    0.0145                   4.839445551374997
0.0035                    0.0155                   4.794273782321648
0.0035                    0.0165                   4.741216415261527
0.0035                    0.0175                   4.684172233550346
0.0035                    0.0185                   4.625939727561695
0.0035                    0.0195                   4.567994482902185
0.0035                    0.0205                   4.5109295876630755
0.0035                    0.0215                   4.454869905539881
0.0035                    0.0225                   4.399725938457048
0.0035                    0.0235                   4.345323004546114
0.0035                    0.0245                   4.291463466874829
0.0035                    0.0255                   4.237974066962579
0.0035                    0.0265                   4.1847779234834555
0.0035                    0.0275                   4.132073633307554
0.0035                    0.0285                   4.080792483795004
0.0035                    0.0295                   4.0334889945318455
0.0035                    0.0305                   3.995347387067285
0.0035                    0.0315                   3.9736441522024
0.0045                    -0.0315                  3.5998582671820643
0.0045                    -0.0305                  3.61072371127428
0.0045                    -0.0295                  3.6300547731196193
0.0045                    -0.0285                  3.6549355017018925
0.0045                    -0.0275                  3.682963040907539
0.0045                    -0.0265                  3.71249555498445
0.0045                    -0.0255                  3.742636303290776
0.0045                    -0.0245                  3.7730013437667065
0.0045                    -0.0235                  3.8034707922425595
0.0045                    -0.0225                  3.8340357503913953
0.0045                    -0.0215                  3.8647278043471105
0.0045                    -0.0205                  3.895595984025536
0.0045                    -0.0195                  3.9267116559828827
0.0045                    -0.0185                  3.9581913316296364
0.0045                    -0.0175                  3.9902281830487736
0.0045                    -0.0165                  4.023120675669653
0.0045                    -0.0155                  4.05728441113934
0.0045                    -0.0145                  4.0932325034804915
0.0045                    -0.0135                  4.131511952146681
0.0045                    -0.0125                  4.172589517752861
0.0045                    -0.0115                  4.216692678660873
0.0045                    -0.0105                  4.2636342187686544
0.0045                    -0.0095                  4.3126701905523355
0.0045                    -0.0085                  4.362454395366794
0.0045                    -0.0075                  4.411136861073396
0.0045                    -0.0065                  4.4565752211656005
0.0045                    -0.0055                  4.496565434570857
0.0045                    -0.0045                  4.529008063167155
0.0045                    -0.0035                  4.55203576963468
0.0045                    -0.0025                  4.564310138856673
0.0045                    -0.0015                  4.565759582613403
0.0045                    -5.0E-4                  4.558559022519238
0.0045                    5.0E-4                   4.5476540013510345
0.0045                    0.0015                   4.537292894259453
0.0045                    0.0025                   4.527850082135433
0.0045                    0.0035                   4.5190972821766335
0.0045                    0.0045                   4.512005406546962
0.0045                    0.0055                   4.537202731844781
0.0045                    0.0065                   4.648493716197848
0.0045                    0.0075                   4.802072969342557
0.0045                    0.0085                   4.8958304519422
0.0045                    0.0095                   4.9193302405052535
0.0045                    0.0105                   4.915281953373411
0.0045                    0.0115                   4.904080670124514
0.0045                    0.0125                   4.886654889353103
0.0045                    0.0135                   4.860653427654123
0.0045                    0.0145                   4.824235611922171
0.0045                    0.0155                   4.777745745543897
0.0045                    0.0165                   4.723491127240592
0.0045                    0.0175                   4.664556715394767
0.0045                    0.0185                   4.6036206967773055
0.0045                    0.0195                   4.542447219898802
0.0045                    0.0205                   4.481961252595223
0.0045                    0.0215                   4.422500152454443
0.0045                    0.0225                   4.364053794558249
0.0045                    0.0235                   4.306447245685285
0.0045                    0.0245                   4.249471959937496
0.0045                    0.0255                   4.193000795663355
0.0045                    0.0265                   4.13714800214185
0.0045                    0.0275                   4.082557655041085
0.0045                    0.0285                   4.030862460869494
0.0045                    0.0295                   3.985142878126714
0.0045                    0.0305                   3.950067156299007
0.0045                    0.0315                   3.9309590558432195
0.0055                    -0.0315                  3.574127227735893
0.0055                    -0.0305                  3.5837021386924914
0.0055                    -0.0295                  3.6012080620360694
0.0055                    -0.0285                  3.624435317139238
0.0055                    -0.0275                  3.651426237731422
0.0055                    -0.0265                  3.6806425544781334
0.0055                    -0.0255                  3.7110309991123147
0.0055                    -0.0245                  3.7419969689236177
0.0055                    -0.0235                  3.7732732440190477
0.0055                    -0.0225                  3.8047771631295504
0.0055                    -0.0215                  3.836513287330298
0.0055                    -0.0205                  3.868524567468979
0.0055                    -0.0195                  3.900879901816905
0.0055                    -0.0185                  3.9336887784426446
0.0055                    -0.0175                  3.9671349286720647
0.0055                    -0.0165                  4.00151768055003
0.0055                    -0.0155                  4.037284913722985
0.0055                    -0.0145                  4.075038308804134
0.0055                    -0.0135                  4.115491641490831
0.0055                    -0.0125                  4.15936612722236
0.0055                    -0.0115                  4.207213031732641
0.0055                    -0.0105                  4.259170373581727
0.0055                    -0.0095                  4.31469622509619
0.0055                    -0.0085                  4.372353462967524
0.0055                    -0.0075                  4.429749743946914
0.0055                    -0.0065                  4.4837287497125775
0.0055                    -0.0055                  4.530769236172888
0.0055                    -0.0045                  4.5675243460574055
0.0055                    -0.0035                  4.59141113819066
0.0055                    -0.0025                  4.601189327364255
0.0055                    -0.0015                  4.597812244587223
0.0055                    -5.0E-4                  4.585287398492464
0.0055                    5.0E-4                   4.569947214468236
0.0055                    0.0015                   4.55665573764208
0.0055                    0.0025                   4.54537464767213
0.0055                    0.0035                   4.536471264500665
0.0055                    0.0045                   4.532058774009849
0.0055                    0.0055                   4.572993965399567
0.0055                    0.0065                   4.676955180840396
0.0055                    0.0075                   4.787477780745633
0.0055                    0.0085                   4.850062520591473
0.0055                    0.0095                   4.87149146872213
0.0055                    0.0105                   4.879601365094575
0.0055                    0.0115                   4.875971982468485
0.0055                    0.0125                   4.8610567252223085
0.0055                    0.0135                   4.834372886219965
0.0055                    0.0145                   4.796811060048348
0.0055                    0.0155                   4.749623241476644
0.0055                    0.0165                   4.694846686335602
0.0055                    0.0175                   4.634987057806798
0.0055                    0.0185                   4.5724361299751655
0.0055                    0.0195                   4.509028516244211
0.0055                    0.0205                   4.445908314485012
0.0055                    0.0215                   4.383620600511772
0.0055                    0.0225                   4.322298590739573
0.0055                    0.0235                   4.26186527173832
0.0055                    0.0245                   4.202218902046565
0.0055                    0.0255                   4.143415931139822
0.0055                    0.0265                   4.085891688802836
0.0055                    0.0275                   4.03073549541666
0.0055                    0.0285                   3.97993761447964
0.0055                    0.0295                   3.9364596999629717
0.0055                    0.0305                   3.9041484861681113
0.0055                    0.0315                   3.8869757413864923
0.0065                    -0.0315                  3.54790094083417
0.0065                    -0.0305                  3.556420428978962
0.0065                    -0.0295                  3.572279528991588
0.0065                    -0.0285                  3.5937740146430683
0.0065                    -0.0275                  3.6193277282566014
0.0065                    -0.0265                  3.6476245727950736
0.0065                    -0.0255                  3.677645465549853
0.0065                    -0.0245                  3.7087016669709953
0.0065                    -0.0235                  3.7404066832752303
0.0065                    -0.0225                  3.772594098014618
0.0065                    -0.0215                  3.805228007559422
0.0065                    -0.0205                  3.8383373024898044
0.0065                    -0.0195                  3.8719815569088274
0.0065                    -0.0185                  3.906247688059615
0.0065                    -0.0175                  3.9412750244203356
0.0065                    -0.0165                  3.977302436729104
0.0065                    -0.0155                  4.014723258450153
0.0065                    -0.0145                  4.054125852222494
0.0065                    -0.0135                  4.096293475463152
0.0065                    -0.0125                  4.14213766171953
0.0065                    -0.0115                  4.192543584190457
0.0065                    -0.0105                  4.248107169332063
0.0065                    -0.0095                  4.30876507376077
0.0065                    -0.0085                  4.373385151379246
0.0065                    -0.0075                  4.439419672637612
0.0065                    -0.0065                  4.502806698852125
0.0065                    -0.0055                  4.558424911588642
0.0065                    -0.0045                  4.601162305766495
0.0065                    -0.0035                  4.627372213217308
0.0065                    -0.0025                  4.636041817280989
0.0065                    -0.0015                  4.629581821796517
0.0065                    -5.0E-4                  4.613611509103267
0.0065                    5.0E-4                   4.595090045468319
0.0065                    0.0015                   4.578935445773695
0.0065                    0.0025                   4.566828232289639
0.0065                    0.0035                   4.557045555928645
0.0065                    0.0045                   4.5617599193444
0.0065                    0.0055                   4.6105710869885375
0.0065                    0.0065                   4.687719035366969
0.0065                    0.0075                   4.753578054802022
0.0065                    0.0085                   4.790879152554332
0.0065                    0.0095                   4.810100339124647
0.0065                    0.0105                   4.825699065959977
0.0065                    0.0115                   4.829811742683606
0.0065                    0.0125                   4.819232283660833