% Model:              Benchmark260518.mph
% Version:            COMSOL 6.2.0.339
% Date:               May 20 2026, 13:50
% Dimension:          2
% Nodes:              4096
% Expressions:        1
% Description:        压力
% Length unit:        m
% x                       y                        p (Pa)
% mirrored_by_python_y_to_minus_y, coord_match_decimals=12
0.0005 -0.0315 4.43179307369
0.0005 -0.0305 4.4604356692
0.0005 -0.0295 4.49942004097
0.0005 -0.0285 4.54146976222
0.0005 -0.0275 4.58493421039
0.0005 -0.0265 4.62910985376
0.0005 -0.0255 4.67349578615
0.0005 -0.0245 4.71775094146
0.0005 -0.0235 4.76158410876
0.0005 -0.0225 4.80397716
0.0005 -0.0215 4.84242989155
0.0005 -0.0205 4.87408811143
0.0005 -0.0195 4.89616972645
0.0005 -0.0185 4.90861435654
0.0005 -0.0175 4.9145046518
0.0005 -0.0165 4.91643647315
0.0005 -0.0155 4.91634460591
0.0005 -0.0145 4.91468604924
0.0005 -0.0135 4.90834525475
0.0005 -0.0125 4.89236333137
0.0005 -0.0115 4.86541749006
0.0005 -0.0105 4.83771606065
0.0005 -0.0095 4.85526763961
0.0005 -0.0085 4.91647726823
0.0005 -0.0075 4.87933603965
0.0005 -0.0065 4.75902349336
0.0005 -0.0055 4.70873312846
0.0005 -0.0045 4.71718036983
0.0005 -0.0035 4.73815962403
0.0005 -0.0025 4.76907894617
0.0005 -0.0015 4.80352692445
0.0005 -0.0005 4.83335683551
0.0005 0.0005 4.85280157473
0.0005 0.0015 4.86049993533
0.0005 0.0025 4.85918342016
0.0005 0.0035 4.85334319375
0.0005 0.0045 4.84691756276
0.0005 0.0055 4.84234649806
0.0005 0.0065 4.8407504718
0.0005 0.0075 4.84214207218
0.0005 0.0085 4.84578631203
0.0005 0.0095 4.85060267035
0.0005 0.0105 4.85546187569
0.0005 0.0115 4.85953288245
0.0005 0.0125 4.86242072409
0.0005 0.0135 4.86369735203
0.0005 0.0145 4.86235466898
0.0005 0.0155 4.8561626831
0.0005 0.0165 4.84008985786
0.0005 0.0175 4.80800488259
0.0005 0.0185 4.76042116267
0.0005 0.0195 4.70317436495
0.0005 0.0205 4.64155172645
0.0005 0.0215 4.57913575282
0.0005 0.0225 4.51725445436
0.0005 0.0235 4.4566271714
0.0005 0.0245 4.39786228811
0.0005 0.0255 4.34132650953
0.0005 0.0265 4.28714839535
0.0005 0.0275 4.2352905291
0.0005 0.0285 4.18576156955
0.0005 0.0295 4.13877880596
0.0005 0.0305 4.09566522772
0.0005 0.0315 4.06406709296
0.0015 -0.0315 4.40337332723
0.0015 -0.0305 4.43312916257
0.0015 -0.0295 4.47670553523
0.0015 -0.0285 4.52420096364
0.0015 -0.0275 4.57260601465
0.0015 -0.0265 4.62104664843
0.0015 -0.0255 4.6691455475
0.0015 -0.0245 4.7166045545
0.0015 -0.0235 4.76271875958
0.0015 -0.0225 4.80578675131
0.0015 -0.0215 4.84328323115
0.0015 -0.0205 4.87303455997
0.0015 -0.0195 4.89372986431
0.0015 -0.0185 4.9066041563
0.0015 -0.0175 4.91360980919
0.0015 -0.0165 4.91498534017
0.0015 -0.0155 4.91226826334
0.0015 -0.0145 4.90801687498
0.0015 -0.0135 4.90184150183
0.0015 -0.0125 4.88971387113
0.0015 -0.0115 4.87369762556
0.0015 -0.0105 4.87788437087
0.0015 -0.0095 4.96668017399
0.0015 -0.0085 5.08532903679
0.0015 -0.0075 5.0448917075
0.0015 -0.0065 4.85316839626
0.0015 -0.0055 4.72804037216
0.0015 -0.0045 4.71729204355
0.0015 -0.0035 4.73467735867
0.0015 -0.0025 4.76412585896
0.0015 -0.0015 4.79762202244
0.0015 -0.0005 4.82615635916
0.0015 0.0005 4.84430791772
0.0015 0.0015 4.85149901476
0.0015 0.0025 4.8507175905
0.0015 0.0035 4.84606466021
0.0015 0.0045 4.84092462833
0.0015 0.0055 4.83740582979
0.0015 0.0065 4.83663278588
0.0015 0.0075 4.83882783551
0.0015 0.0085 4.84347933169
0.0015 0.0095 4.84954043762
0.0015 0.0105 4.85558928553
0.0015 0.0115 4.86043665194
0.0015 0.0125 4.86359241009
0.0015 0.0135 4.86483662087
0.0015 0.0145 4.86352244238
0.0015 0.0155 4.85822995071
0.0015 0.0165 4.84462820989
0.0015 0.0175 4.81456541473
0.0015 0.0185 4.76582977685
0.0015 0.0195 4.70390203091
0.0015 0.0205 4.63530962881
0.0015 0.0215 4.56566262195
0.0015 0.0225 4.49791433306
0.0015 0.0235 4.43342835032
0.0015 0.0245 4.37272033557
0.0015 0.0255 4.31563218049
0.0015 0.0265 4.26149182372
0.0015 0.0275 4.20941746319
0.0015 0.0285 4.1586787345
0.0015 0.0295 4.10923534388
0.0015 0.0305 4.06360237796
0.0015 0.0315 4.03214466306
0.0025 -0.0315 4.36432595281
0.0025 -0.0305 4.39317546743
0.0025 -0.0295 4.43998922202
0.0025 -0.0285 4.49405624575
0.0025 -0.0275 4.54983418392
0.0025 -0.0265 4.60513935772
0.0025 -0.0255 4.659093082
0.0025 -0.0245 4.71099140377
0.0025 -0.0235 4.75948610808
0.0025 -0.0225 4.80218111006
0.0025 -0.0215 4.83694624591
0.0025 -0.0205 4.86297490387
0.0025 -0.0195 4.88191140929
0.0025 -0.0185 4.89618590074
0.0025 -0.0175 4.90359315619
0.0025 -0.0165 4.90057056176
0.0025 -0.0155 4.89012879635
0.0025 -0.0145 4.88014359275
0.0025 -0.0135 4.87765106171
0.0025 -0.0125 4.88760655411
0.0025 -0.0115 4.92290000368
0.0025 -0.0105 5.016493079
0.0025 -0.0095 5.19200453268
0.0025 -0.0085 5.33905471856
0.0025 -0.0075 5.2989457964
0.0025 -0.0065 5.08135959771
0.0025 -0.0055 4.87077192228
0.0025 -0.0045 4.78094536155
0.0025 -0.0035 4.76492790856
0.0025 -0.0025 4.77727338764
0.0025 -0.0015 4.7979241171
0.0025 -0.0005 4.81612012768
0.0025 0.0005 4.82760522613
0.0025 0.0015 4.83234276204
0.0025 0.0025 4.83234866692
0.0025 0.0035 4.82981029169
0.0025 0.0045 4.82643284651
0.0025 0.0055 4.82359041912
0.0025 0.0065 4.82263222547
0.0025 0.0075 4.82467031974
0.0025 0.0085 4.83009306463
0.0025 0.0095 4.8383270545
0.0025 0.0105 4.84799026153
0.0025 0.0115 4.85702087221
0.0025 0.0125 4.86328394029
0.0025 0.0135 4.86564069452
0.0025 0.0145 4.86371048284
0.0025 0.0155 4.85728652284
0.0025 0.0165 4.84368168733
0.0025 0.0175 4.81444186634
0.0025 0.0185 4.76414260371
0.0025 0.0195 4.69585112761
0.0025 0.0205 4.61704218687
0.0025 0.0215 4.53626377208
0.0025 0.0225 4.45939431122
0.0025 0.0235 4.38924993911
0.0025 0.0245 4.32622196293
0.0025 0.0255 4.26904778709
0.0025 0.0265 4.21560809622
0.0025 0.0275 4.16375154568
0.0025 0.0285 4.1121435637
0.0025 0.0295 4.06146089001
0.0025 0.0305 4.01657146066
0.0025 0.0315 3.98840878167
0.0035 -0.0315 4.32150353243
0.0035 -0.0305 4.34926912474
0.0035 -0.0295 4.39745617211
0.0035 -0.0285 4.45655796432
0.0035 -0.0275 4.51950886612
0.0035 -0.0265 4.58219053244
0.0035 -0.0255 4.64232261363
0.0035 -0.0245 4.69822575981
0.0035 -0.0235 4.74793409057
0.0035 -0.0225 4.78899567663
0.0035 -0.0215 4.82043201614
0.0035 -0.0205 4.84297974815
0.0035 -0.0195 4.85998695008
0.0035 -0.0185 4.87340988006
0.0035 -0.0175 4.87691929017
0.0035 -0.0165 4.86530233889
0.0035 -0.0155 4.84480096163
0.0035 -0.0145 4.82969312202
0.0035 -0.0135 4.83545472506
0.0035 -0.0125 4.87956638451
0.0035 -0.0115 4.98670514439
0.0035 -0.0105 5.17426241809
0.0035 -0.0095 5.40100663782
0.0035 -0.0085 5.54811350225
0.0035 -0.0075 5.51850243283
0.0035 -0.0065 5.33050516622
0.0035 -0.0055 5.10338606204
0.0035 -0.0045 4.94243414154
0.0035 -0.0035 4.85943439404
0.0035 -0.0025 4.82320874442
0.0035 -0.0015 4.80923867385
0.0035 -0.0005 4.80567707243
0.0035 0.0005 4.80673956037
0.0035 0.0015 4.80894123853
0.0035 0.0025 4.81051536902
0.0035 0.0035 4.81062204851
0.0035 0.0045 4.80883510927
0.0035 0.0055 4.80557621403
0.0035 0.0065 4.80239241524
0.0035 0.0075 4.8015361012
0.0035 0.0085 4.80514061731
0.0035 0.0095 4.81416995633
0.0035 0.0105 4.82750404553
0.0035 0.0115 4.84228565941
0.0035 0.0125 4.8547340067
0.0035 0.0135 4.86095436835
0.0035 0.0145 4.85910814623
0.0035 0.0155 4.85028262947
0.0035 0.0165 4.83414681828
0.0035 0.0175 4.80316952734
0.0035 0.0185 4.74955770075
0.0035 0.0195 4.67353680937
0.0035 0.0205 4.58318140022
0.0035 0.0215 4.49047234211
0.0035 0.0225 4.40464291319
0.0035 0.0235 4.32989571778
0.0035 0.0245 4.26601661322
0.0035 0.0255 4.21007753576
0.0035 0.0265 4.15823817824
0.0035 0.0275 4.10732066102
0.0035 0.0285 4.05615060343
0.0035 0.0295 4.00675876712
0.0035 0.0305 3.96522682406
0.0035 0.0315 3.94078814059
0.0045 -0.0315 4.27616228727
0.0045 -0.0305 4.30329574828
0.0045 -0.0295 4.35221930475
0.0045 -0.0285 4.4147920461
0.0045 -0.0275 4.48356742699
0.0045 -0.0265 4.55281578423
0.0045 -0.0255 4.61844617918
0.0045 -0.0245 4.67741106467
0.0045 -0.0235 4.72720947718
0.0045 -0.0225 4.76609961952
0.0045 -0.0215 4.79466830072
0.0045 -0.0205 4.81481639113
0.0045 -0.0195 4.82970743157
0.0045 -0.0185 4.83967353518
0.0045 -0.0175 4.83745019771
0.0045 -0.0165 4.81960376702
0.0045 -0.0155 4.79637878781
0.0045 -0.0145 4.78437869671
0.0045 -0.0135 4.79907053306
0.0045 -0.0125 4.86506773243
0.0045 -0.0115 5.01329940599
0.0045 -0.0105 5.24262298144
0.0045 -0.0095 5.47876175542
0.0045 -0.0085 5.61695084935
0.0045 -0.0075 5.60811269295
0.0045 -0.0065 5.4741488866
0.0045 -0.0055 5.28218098143
0.0045 -0.0045 5.10023163246
0.0045 -0.0035 4.96203024324
0.0045 -0.0025 4.87145009742
0.0045 -0.0015 4.81996914393
0.0045 -0.0005 4.79662784232
0.0045 0.0005 4.79035565544
0.0045 0.0015 4.79206733951
0.0045 0.0025 4.79588281468
0.0045 0.0035 4.7983854123
0.0045 0.0045 4.79769299916
0.0045 0.0055 4.79348849729
0.0045 0.0065 4.78714400449
0.0045 0.0075 4.78134128026
0.0045 0.0085 4.7794408425
0.0045 0.0095 4.78448920035
0.0045 0.0105 4.79740529352
0.0045 0.0115 4.8157293454
0.0045 0.0125 4.83395587075
0.0045 0.0135 4.84544401108
0.0045 0.0145 4.84560600695
0.0045 0.0155 4.83511560122
0.0045 0.0165 4.8159298421
0.0045 0.0175 4.78234136101
0.0045 0.0185 4.72362921565
0.0045 0.0195 4.63749770745
0.0045 0.0205 4.53468090607
0.0045 0.0215 4.43129739035
0.0045 0.0225 4.33944917133
0.0045 0.0235 4.26326162079
0.0045 0.0245 4.200863219
0.0045 0.0255 4.1473010589
0.0045 0.0265 4.09731503973
0.0045 0.0275 4.04748449261
0.0045 0.0285 3.9974687729
0.0045 0.0295 3.95042234875
0.0045 0.0305 3.9124005354
0.0045 0.0315 3.89082484159
0.0055 -0.0315 4.22864437077
0.0055 -0.0305 4.25512665165
0.0055 -0.0295 4.30419772645
0.0055 -0.0285 4.36897157228
0.0055 -0.0275 4.44215815154
0.0055 -0.0265 4.51690328708
0.0055 -0.0255 4.58730980213
0.0055 -0.0245 4.64888858162
0.0055 -0.0235 4.69867341503
0.0055 -0.0225 4.73592367924
0.0055 -0.0215 4.7624405785
0.0055 -0.0205 4.78098883063
0.0055 -0.0195 4.79430103614
0.0055 -0.0185 4.80159351593
0.0055 -0.0175 4.79715311351
0.0055 -0.0165 4.78059793815
0.0055 -0.0155 4.76395505155
0.0055 -0.0145 4.75979270073
0.0055 -0.0135 4.77742920767
0.0055 -0.0125 4.84515744044
0.0055 -0.0115 4.99972203571
0.0055 -0.0105 5.22767833744
0.0055 -0.0095 5.44463291082
0.0055 -0.0085 5.56603190305
0.0055 -0.0075 5.57240364348
0.0055 -0.0065 5.48575610727
0.0055 -0.0055 5.33715770837
0.0055 -0.0045 5.16588189005
0.0055 -0.0035 5.01036513144
0.0055 -0.0025 4.89428532494
0.0055 -0.0015 4.82369026707
0.0055 -0.0005 4.79083150036
0.0055 0.0005 4.78171923993
0.0055 0.0015 4.78377871029
0.0055 0.0025 4.7889847409
0.0055 0.0035 4.79283565325
0.0055 0.0045 4.79286904881
0.0055 0.0055 4.7882292332
0.0055 0.0065 4.77985974538
0.0055 0.0075 4.77028007317
0.0055 0.0085 4.76272970049
0.0055 0.0095 4.7607622359
0.0055 0.0105 4.76780757071
0.0055 0.0115 4.78432547892
0.0055 0.0125 4.80494232689
0.0055 0.0135 4.82060420583
0.0055 0.0145 4.82379653608
0.0055 0.0155 4.8134755825
0.0055 0.0165 4.79240951214
0.0055 0.0175 4.756176367
0.0055 0.0185 4.69067942972
0.0055 0.0195 4.59226830369
0.0055 0.0205 4.47704272838
0.0055 0.0215 4.36599884536
0.0055 0.0225 4.27246133083
0.0055 0.0235 4.19847307696
0.0055 0.0245 4.13906109035
0.0055 0.0255 4.08750031276
0.0055 0.0265 4.03817671256
0.0055 0.0275 3.98826338805
0.0055 0.0285 3.93879533736
0.0055 0.0295 3.89368144631
0.0055 0.0305 3.8584372
0.0055 0.0315 3.83897766339
0.0065 -0.0315 4.17924412757
0.0065 -0.0305 4.20444326318
0.0065 -0.0295 4.25237044265
0.0065 -0.0285 4.31764965425
0.0065 -0.0275 4.39371271999
0.0065 -0.0265 4.47315387705
0.0065 -0.0255 4.54837491995
0.0065 -0.0245 4.61327453349
0.0065 -0.0235 4.6645893886
0.0065 -0.0225 4.7023248676
0.0065 -0.0215 4.72859235486
0.0065 -0.0205 4.7466812662
0.0065 -0.0195 4.75970406126
0.0065 -0.0185 4.76734544897
0.0065 -0.0175 4.76525462395
0.0065 -0.0165 4.75456593921
0.0065 -0.0155 4.74560019586
0.0065 -0.0145 4.74567047194
0.0065 -0.0135 4.76029066625
0.0065 -0.0125 4.81602731106
0.0065 -0.0115 4.95128558459
0.0065 -0.0105 5.15417089292
0.0065 -0.0095 5.34891366303
0.0065 -0.0085 5.46398347056
0.0065 -0.0075 5.48410386745
0.0065 -0.0065 5.42715630529
0.0065 -0.0055 5.31173739304
0.0065 -0.0045 5.16373964307
0.0065 -0.0035 5.01595677278
0.0065 -0.0025 4.8959963175
0.0065 -0.0015 4.81830138437
0.0065 -0.0005 4.78106057784
0.0065 0.0005 4.7708158573
0.0065 0.0015 4.77335684766
0.0065 0.0025 4.77994347947
0.0065 0.0035 4.7854437809
0.0065 0.0045 4.78680098523
0.0065 0.0055 4.78285919158
0.0065 0.0065 4.77420546695
0.0065 0.0075 4.76335390284
0.0065 0.0085 4.75339472231
0.0065 0.0095 4.74685782629
0.0065 0.0105 4.74690377466
0.0065 0.0115 4.75698415468
0.0065 0.0125 4.77583125074
0.0065 0.0135 4.79412179813
0.0065 0.0145 4.80106559831
0.0065 0.0155 4.79256840664
0.0065 0.0165 4.77020866316
0.0065 0.0175 4.72922643092
0.0065 0.0185 4.65428540508
0.0065 0.0195 4.54325488822
0.0065 0.0205 4.41782385454
0.0065 0.0215 4.30272498056
0.0065 0.0225 4.21067088625
0.0065 0.0235 4.14113772521
0.0065 0.0245 4.08511652144
0.0065 0.0255 4.03375050656
0.0065 0.0265 3.98239745213
0.0065 0.0275 3.93023270905
0.0065 0.0285 3.88001783086
0.0065 0.0295 3.8360867122
0.0065 0.0305 3.80314793354
0.0065 0.0315 3.7855360222
0.0075 -0.0315 4.12828941375
0.0075 -0.0305 4.15125503576
0.0075 -0.0295 4.19607938539
0.0075 -0.0285 4.25925737881
0.0075 -0.0275 4.33580633028
0.0075 -0.0265 4.41884708817
0.0075 -0.0255 4.49966820598
0.0075 -0.0245 4.57015101512
0.0075 -0.0235 4.62612527626
0.0075 -0.0225 4.6677505753
0.0075 -0.0215 4.69709110492
0.0075 -0.0205 4.71735451112
0.0075 -0.0195 4.73243148931
0.0075 -0.0185 4.74317084581
0.0075 -0.0175 4.74494665519
0.0075 -0.0165 4.73862721527
0.0075 -0.0155 4.73332415349
0.0075 -0.0145 4.73408043104
0.0075 -0.0135 4.74447613394
0.0075 -0.0125 4.78361861234
0.0075 -0.0115 4.88421669597
0.0075 -0.0105 5.04489465973
0.0075 -0.0095 5.21394822195
0.0075 -0.0085 5.33150068771
0.0075 -0.0075 5.37009284821
0.0075 -0.0065 5.33619194351
0.0075 -0.0055 5.24635653966
0.0075 -0.0045 5.12139625454
0.0075 -0.0035 4.98697436303
0.0075 -0.0025 4.86972796
0.0075 -0.0015 4.78942636672
0.0075 -0.0005 4.7500697649
0.0075 0.0005 4.7396314348
0.0075 0.0015 4.74408937013
0.0075 0.0025 4.75504262427
0.0075 0.0035 4.76558144085
0.0075 0.0045 4.77109874192
0.0075 0.0055 4.77038773203
0.0075 0.0065 4.76405203241
0.0075 0.0075 4.75444553637
0.0075 0.0085 4.74472277793
0.0075 0.0095 4.73699268759
0.0075 0.0105 4.73326134167
0.0075 0.0115 4.73748299714
0.0075 0.0125 4.75241202367
0.0075 0.0135 4.77261994305
0.0075 0.0145 4.78547303972
0.0075 0.0155 4.78125259717
0.0075 0.0165 4.75733649781
0.0075 0.0175 4.70816855341
0.0075 0.0185 4.62174520532
0.0075 0.0195 4.49963515218
0.0075 0.0205 4.36629190573
0.0075 0.0215 4.24861698253
0.0075 0.0225 4.15855307919
0.0075 0.0235 4.09251916589
0.0075 0.0245 4.03793985532
0.0075 0.0255 3.98389166161
0.0075 0.0265 3.92771742923
0.0075 0.0275 3.87164882329
0.0075 0.0285 3.81976428501
0.0075 0.0295 3.77677042815
0.0075 0.0305 3.74626101308
0.0075 0.0315 3.73066483758
0.0085 -0.0315 4.07618251967
0.0085 -0.0305 4.09604787064
0.0085 -0.0295 4.13569130066
0.0085 -0.0285 4.19346543035
0.0085 -0.0275 4.26670102364
0.0085 -0.0265 4.35064803466
0.0085 -0.0255 4.43702618505
0.0085 -0.0245 4.51639915331
0.0085 -0.0235 4.58185960431
0.0085 -0.0225 4.63171769344
0.0085 -0.0215 4.66846980765
0.0085 -0.0205 4.69545686521
0.0085 -0.0195 4.71679217568
0.0085 -0.0185 4.73224079145
0.0085 -0.0175 4.73566267757
0.0085 -0.0165 4.72933610438
0.0085 -0.0155 4.72375992424
0.0085 -0.0145 4.72336262384
0.0085 -0.0135 4.7295640159
0.0085 -0.0125 4.75402816351
0.0085 -0.0115 4.82096397089
0.0085 -0.0105 4.93601919188
0.0085 -0.0095 5.06893436336
0.0085 -0.0085 5.17561501222
0.0085 -0.0075 5.22531845619
0.0085 -0.0065 5.21120262105
0.0085 -0.0055 5.1418313518
0.0085 -0.0045 5.0344018765
0.0085 -0.0035 4.91142113185
0.0085 -0.0025 4.79852722318
0.0085 -0.0015 4.71815339323
0.0085 -0.0005 4.67879856836
0.0085 0.0005 4.67001162004
0.0085 0.0015 4.67761417424
0.0085 0.0025 4.69524240341
0.0085 0.0035 4.71575028531
0.0085 0.0045 4.73178902481
0.0085 0.0055 4.74079560414
0.0085 0.0065 4.74278323742
0.0085 0.0075 4.73920939456
0.0085 0.0085 4.73273643192
0.0085 0.0095 4.7261593265
0.0085 0.0105 4.72173481631
0.0085 0.0115 4.72296039768
0.0085 0.0125 4.73480322372
0.0085 0.0135 4.75678923423
0.0085 0.0145 4.77722909136
0.0085 0.0155 4.78093762379
0.0085 0.0165 4.75753722353
0.0085 0.0175 4.6989110123
0.0085 0.0185 4.59894122323
0.0085 0.0195 4.46475929802
0.0085 0.0205 4.32269225877
0.0085 0.0215 4.20170884083
0.0085 0.0225 4.11266848629
0.0085 0.0235 4.04751156857
0.0085 0.0245 3.99142290806
0.0085 0.0255 3.93272014866
0.0085 0.0265 3.87053818352
0.0085 0.0275 3.81027097495
0.0085 0.0285 3.75692191983
0.0085 0.0295 3.71518984209
0.0085 0.0305 3.68761016397
0.0085 0.0315 3.67451499312
0.0095 -0.0315 4.02327723394
0.0095 -0.0305 4.0396457012
0.0095 -0.0295 4.07271369365
0.0095 -0.0285 4.12203468032
0.0095 -0.0275 4.1872342096
0.0095 -0.0265 4.26686909906
0.0095 -0.0255 4.35597909959
0.0095 -0.0245 4.44663766459
0.0095 -0.0235 4.52662385094
0.0095 -0.0225 4.58928522887
0.0095 -0.0215 4.63881398365
0.0095 -0.0205 4.6795980169
0.0095 -0.0195 4.71288103403
0.0095 -0.0185 4.73320206751
0.0095 -0.0175 4.73434409691
0.0095 -0.0165 4.72383705649
0.0095 -0.0155 4.71535527448
0.0095 -0.0145 4.71273486121
0.0095 -0.0135 4.71492990065
0.0095 -0.0125 4.72813796786
0.0095 -0.0115 4.7681426035
0.0095 -0.0105 4.84184867595
0.0095 -0.0095 4.9340642968
0.0095 -0.0085 5.01631714073
0.0095 -0.0075 5.06143471105
0.0095 -0.0065 5.05548206782
0.0095 -0.0055 4.99922199378
0.0095 -0.0045 4.90477752632
0.0095 -0.0035 4.79188638658
0.0095 -0.0025 4.68471122568
0.0095 -0.0015 4.60604973893
0.0095 -0.0005 4.56770144408
0.0095 0.0005 4.56063019309
0.0095 0.0015 4.56962825443
0.0095 0.0025 4.59214173431
0.0095 0.0035 4.62466344448
0.0095 0.0045 4.65775986403
0.0095 0.0055 4.68521075581
0.0095 0.0065 4.70401266509
0.0095 0.0075 4.71331423194
0.0095 0.0085 4.71461110574
0.0095 0.0095 4.71181105024
0.0095 0.0105 4.7089403066
0.0095 0.0115 4.70964362428
0.0095 0.0125 4.71966059632
0.0095 0.0135 4.74198366039
0.0095 0.0145 4.76768987727
0.0095 0.0155 4.77925214953
0.0095 0.0165 4.75963344047
0.0095 0.0175 4.6950920689
0.0095 0.0185 4.58064836919
0.0095 0.0195 4.42978094985
0.0095 0.0205 4.27457220133
0.0095 0.0215 4.14836796754
0.0095 0.0225 4.06023101627
0.0095 0.0235 3.99540188288
0.0095 0.0245 3.93673510639
0.0095 0.0255 3.87421043214
0.0095 0.0265 3.80838096768
0.0095 0.0275 3.74569296344
0.0095 0.0285 3.69191622913
0.0095 0.0295 3.65183434841
0.0095 0.0305 3.6274925396
0.0095 0.0315 3.61727834468
0.0105 -0.0315 3.9697583107
0.0105 -0.0305 3.9828865226
0.0105 -0.0295 4.00928159605
0.0105 -0.0285 4.04873252551
0.0105 -0.0275 4.10204966619
0.0105 -0.0265 4.17113656277
0.0105 -0.0255 4.25593620045
0.0105 -0.0245 4.35346237522
0.0105 -0.0235 4.44818688349
0.0105 -0.0225 4.52734500971
0.0105 -0.0215 4.59693395778
0.0105 -0.0205 4.66111912632
0.0105 -0.0195 4.71201293581
0.0105 -0.0185 4.73678337968
0.0105 -0.0175 4.73379889806
0.0105 -0.0165 4.71830497139
0.0105 -0.0155 4.70641890443
0.0105 -0.0145 4.70111568262
0.0105 -0.0135 4.69956612482
0.0105 -0.0125 4.70419562404
0.0105 -0.0115 4.72402008258
0.0105 -0.0105 4.76448038428
0.0105 -0.0095 4.81857205643
0.0105 -0.0085 4.86885569284
0.0105 -0.0075 4.89516268659
0.0105 -0.0065 4.88394688634
0.0105 -0.0055 4.83215034034
0.0105 -0.0045 4.74701524116
0.0105 -0.0035 4.64462644439
0.0105 -0.0025 4.54690187525
0.0105 -0.0015 4.47496026518
0.0105 -0.0005 4.43958803854
0.0105 0.0005 4.43191250744
0.0105 0.0015 4.43825546589
0.0105 0.0025 4.46018892128
0.0105 0.0035 4.50050244847
0.0105 0.0045 4.55190862237
0.0105 0.0055 4.60375855973
0.0105 0.0065 4.64680676106
0.0105 0.0075 4.67544489547
0.0105 0.0085 4.68920146677
0.0105 0.0095 4.69296023895
0.0105 0.0105 4.69321161958
0.0105 0.0115 4.69483238625
0.0105 0.0125 4.70330708851
0.0105 0.0135 4.72281211084
0.0105 0.0145 4.74715986983
0.0105 0.0155 4.76063836347
0.0105 0.0165 4.74613955162
0.0105 0.0175 4.68266344392
0.0105 0.0185 4.55698195344
0.0105 0.0195 4.38730423478
0.0105 0.0205 4.21715098582
0.0105 0.0215 4.08568097733
0.0105 0.0225 3.99765316379
0.0105 0.0235 3.93196636081
0.0105 0.0245 3.87102561094
0.0105 0.0255 3.80754113808
0.0105 0.0265 3.7423157141
0.0105 0.0275 3.68021716774
0.0105 0.0285 3.62734886543
0.0105 0.0295 3.5889553126
0.0105 0.0305 3.56737375764
0.0105 0.0315 3.55993082481
0.0115 -0.0315 3.91551809007
0.0115 -0.0305 3.92631807273
0.0115 -0.0295 3.9473255397
0.0115 -0.0285 3.97787515505
0.0115 -0.0275 4.01880799249
0.0115 -0.0265 4.07312127104
0.0115 -0.0255 4.14417234258
0.0115 -0.0245 4.23532244099
0.0115 -0.0235 4.33535828627
0.0115 -0.0225 4.43083477764
0.0115 -0.0215 4.52796498984
0.0115 -0.0205 4.6245012791
0.0115 -0.0195 4.69673430122
0.0115 -0.0185 4.72723200512
0.0115 -0.0175 4.72360584365
0.0115 -0.0165 4.70730514753
0.0115 -0.0155 4.69421848031
0.0115 -0.0145 4.68682683405
0.0115 -0.0135 4.68208907596
0.0115 -0.0125 4.68027339918
0.0115 -0.0115 4.68573356485
0.0115 -0.0105 4.70158939288
0.0115 -0.0095 4.7239554262
0.0115 -0.0085 4.74198045081
0.0115 -0.0075 4.74265398619
0.0115 -0.0065 4.71653967661
0.0115 -0.0055 4.66094932748
0.0115 -0.0045 4.58085455485
0.0115 -0.0035 4.48906484733
0.0115 -0.0025 4.40425426401
0.0115 -0.0015 4.34331218004
0.0115 -0.0005 4.31239009944
0.0115 0.0005 4.30236789785
0.0115 0.0015 4.30290819645
0.0115 0.0025 4.31925571678
0.0115 0.0035 4.36162094348
0.0115 0.0045 4.42828959779
0.0115 0.0055 4.50541117719
0.0115 0.0065 4.5762494955
0.0115 0.0075 4.62830803459
0.0115 0.0085 4.65776112919
0.0115 0.0095 4.66975839547
0.0115 0.0105 4.67364073178
0.0115 0.0115 4.67652042886
0.0115 0.0125 4.68310603836
0.0115 0.0135 4.69681930122
0.0115 0.0145 4.71386251693
0.0115 0.0155 4.72375120203
0.0115 0.0165 4.71304230238
0.0115 0.0175 4.65439359412
0.0115 0.0185 4.52502779122
0.0115 0.0195 4.343952953
0.0115 0.0205 4.162459392
0.0115 0.0215 4.02419360249
0.0115 0.0225 3.93218172733
0.0115 0.0235 3.86334162472
0.0115 0.0245 3.80105212908
0.0115 0.0255 3.73924226288
0.0115 0.0265 3.6772064809
0.0115 0.0275 3.61777123808
0.0115 0.0285 3.56695898823
0.0115 0.0295 3.53031099424
0.0115 0.0305 3.51067523997
0.0115 0.0315 3.50526092542
0.0125 -0.0315 3.86010317513
0.0125 -0.0305 3.86987326179
0.0125 -0.0295 3.88786645479
0.0125 -0.0285 3.91246171895
0.0125 -0.0275 3.94420359625
0.0125 -0.0265 3.98551045566
0.0125 -0.0255 4.04032239871
0.0125 -0.0245 4.11314831954
0.0125 -0.0235 4.20125121968
0.0125 -0.0225 4.30245020767
0.0125 -0.0215 4.4251397963
0.0125 -0.0205 4.55620937673
0.0125 -0.0195 4.65469194157
0.0125 -0.0185 4.69747619746
0.0125 -0.0175 4.69945724949
0.0125 -0.0165 4.68741255767
0.0125 -0.0155 4.67608012101
0.0125 -0.0145 4.668217387
0.0125 -0.0135 4.66150428493
0.0125 -0.0125 4.65548641205
0.0125 -0.0115 4.65180541962
0.0125 -0.0105 4.65081557693
0.0125 -0.0095 4.64857235799
0.0125 -0.0085 4.63771898967
0.0125 -0.0075 4.61135906038
0.0125 -0.0065 4.56559791586
0.0125 -0.0055 4.5006035085
0.0125 -0.0045 4.42147719049
0.0125 -0.0035 4.33887274215
0.0125 -0.0025 4.26713565027
0.0125 -0.0015 4.21710473854
0.0125 -0.0005 4.1903963784
0.0125 0.0005 4.17852676137
0.0125 0.0015 4.17378832761
0.0125 0.0025 4.18392941206
0.0125 0.0035 4.22577300617
0.0125 0.0045 4.30349008477
0.0125 0.0055 4.40237748342
0.0125 0.0065 4.49992800046
0.0125 0.0075 4.57611306016
0.0125 0.0085 4.6222079649
0.0125 0.0095 4.64266958343
0.0125 0.0105 4.64979921827
0.0125 0.0115 4.65354478252
0.0125 0.0125 4.65785117136
0.0125 0.0135 4.66488109829
0.0125 0.0145 4.67354933322
0.0125 0.0155 4.67885444163
0.0125 0.0165 4.66937135983
0.0125 0.0175 4.61546781781
0.0125 0.0185 4.49093494095
0.0125 0.0195 4.31014873596
0.0125 0.0205 4.12197544478
0.0125 0.0215 3.97188679682
0.0125 0.0225 3.86959381878
0.0125 0.0235 3.79671877459
0.0125 0.0245 3.73480337516
0.0125 0.0255 3.67565760688
0.0125 0.0265 3.61760386133
0.0125 0.0275 3.56255689299
0.0125 0.0285 3.51515619891
0.0125 0.0295 3.48036292093
0.0125 0.0305 3.46158082631
0.0125 0.0315 3.45717618121
0.0135 -0.0315 3.8028495775
0.0135 -0.0305 3.8126767119
0.0135 -0.0295 3.83023112418
0.0135 -0.0285 3.85315006875
0.0135 -0.0275 3.88088539056
0.0135 -0.0265 3.91468461511
0.0135 -0.0255 3.95675628268
0.0135 -0.0245 4.00882530953
0.0135 -0.0235 4.07417341637
0.0135 -0.0225 4.16475007105
0.0135 -0.0215 4.29882081965
0.0135 -0.0205 4.45898426648
0.0135 -0.0195 4.58949531307
0.0135 -0.0185 4.65431553871
0.0135 -0.0175 4.66697378723
0.0135 -0.0165 4.66047388528
0.0135 -0.0155 4.65197281265
0.0135 -0.0145 4.64507845421
0.0135 -0.0135 4.63801729506
0.0135 -0.0125 4.63025852489
0.0135 -0.0115 4.62189701856
0.0135 -0.0105 4.61002441234
0.0135 -0.0095 4.58903228452
0.0135 -0.0085 4.55371614073
0.0135 -0.0075 4.50205951645
0.0135 -0.0065 4.43559968343
0.0135 -0.0055 4.35834437318
0.0135 -0.0045 4.2769450478
0.0135 -0.0035 4.20068426375
0.0135 -0.0025 4.13944979102
0.0135 -0.0015 4.09845517602
0.0135 -0.0005 4.07593995696
0.0135 0.0005 4.06436687047
0.0135 0.0015 4.05793397337
0.0135 0.0025 4.06468714036
0.0135 0.0035 4.10491701205
0.0135 0.0045 4.18861811662
0.0135 0.0055 4.30346215808
0.0135 0.0065 4.42366809599
0.0135 0.0075 4.52200971813
0.0135 0.0085 4.58386073109
0.0135 0.0095 4.61211655691
0.0135 0.0105 4.62177870053
0.0135 0.0115 4.62581079218
0.0135 0.0125 4.62798221799
0.0135 0.0135 4.62979689307
0.0135 0.0145 4.63257350326
0.0135 0.0155 4.63464108689
0.0135 0.0165 4.62515820538
0.0135 0.0175 4.57579313701
0.0135 0.0185 4.46060943928
0.0135 0.0195 4.28726522419
0.0135 0.0205 4.0966326557
0.0135 0.0215 3.93288412134
0.0135 0.0225 3.81534542212
0.0135 0.0235 3.73628693734
0.0135 0.0245 3.67577796921
0.0135 0.0255 3.61965912291
0.0135 0.0265 3.56546053059
0.0135 0.0275 3.51596717786
0.0135 0.0285 3.47400521364
0.0135 0.0295 3.44255678062
0.0135 0.0305 3.42466650817
0.0135 0.0315 3.42018318005
0.0145 -0.0315 3.74334716477
0.0145 -0.0305 3.75325594174
0.0145 -0.0295 3.77212501328
0.0145 -0.0285 3.79763518588
0.0145 -0.0275 3.82597748893
0.0145 -0.0265 3.85539839564
0.0145 -0.0255 3.88702965082
0.0145 -0.0245 3.92269006138
0.0145 -0.0235 3.9681775594
0.0145 -0.0225 4.0419373098
0.0145 -0.0215 4.17341100981
0.0145 -0.0205 4.35094879125
0.0145 -0.0195 4.51165574063
0.0145 -0.0185 4.60420289721
0.0145 -0.0175 4.63173200411
0.0145 -0.0165 4.6306847979
0.0145 -0.0155 4.62475169285
0.0145 -0.0145 4.61923799447
0.0145 -0.0135 4.61294322007
0.0145 -0.0125 4.60521460558
0.0145 -0.0115 4.59488424529
0.0145 -0.0105 4.57591120923
0.0145 -0.0095 4.54078174943
0.0145 -0.0085 4.48568781047
0.0145 -0.0075 4.41206651002
0.0145 -0.0065 4.326098674
0.0145 -0.0055 4.23582210846
0.0145 -0.0045 4.14985240708
0.0145 -0.0035 4.07656727189
0.0145 -0.0025 4.0224227667
0.0145 -0.0015 3.98861322528
0.0145 -0.0005 3.97087089739
0.0145 0.0005 3.96213531537
0.0145 0.0015 3.9579140562
0.0145 0.0025 3.96467941683
0.0145 0.0035 4.0026713667
0.0145 0.0045 4.08755243976
0.0145 0.0055 4.21241638566
0.0145 0.0065 4.35029734293
0.0145 0.0075 4.46753858298
0.0145 0.0085 4.54339981665
0.0145 0.0095 4.57856310768
0.0145 0.0105 4.5901776245
0.0145 0.0115 4.59419577207
0.0145 0.0125 4.59506631888
0.0145 0.0135 4.59425571262
0.0145 0.0145 4.59420359577
0.0145 0.0155 4.59448620314
0.0145 0.0165 4.58509020773
0.0145 0.0175 4.54037603683
0.0145 0.0185 4.43578339142
0.0145 0.0195 4.27320932244
0.0145 0.0205 4.08399595417
0.0145 0.0215 3.90948288068
0.0145 0.0225 3.77607928308
0.0145 0.0235 3.6865546312
0.0145 0.0245 3.62400239505
0.0145 0.0255 3.57000554249
0.0145 0.0265 3.51967800597
0.0145 0.0275 3.47595303128
0.0145 0.0285 3.44108833806
0.0145 0.0295 3.41573503358
0.0145 0.0305 3.40080161431
0.0145 0.0315 3.39620017803
0.0155 -0.0315 3.68220936233
0.0155 -0.0305 3.69092521396
0.0155 -0.0295 3.7108122473
0.0155 -0.0285 3.74021892884
0.0155 -0.0275 3.77139114329
0.0155 -0.0265 3.79870340508
0.0155 -0.0255 3.8236513701
0.0155 -0.0245 3.85003965109
0.0155 -0.0235 3.8841666312
0.0155 -0.0225 3.94553956847
0.0155 -0.0215 4.06869759613
0.0155 -0.0205 4.25102205271
0.0155 -0.0195 4.43247125845
0.0155 -0.0185 4.55121374587
0.0155 -0.0175 4.59586371915
0.0155 -0.0165 4.6011856903
0.0155 -0.0155 4.59768500804
0.0155 -0.0145 4.59338857498
0.0155 -0.0135 4.58789418163
0.0155 -0.0125 4.58041724899
0.0155 -0.0115 4.568788071
0.0155 -0.0105 4.54500376211
0.0155 -0.0095 4.49967421231
0.0155 -0.0085 4.42905946673
0.0155 -0.0075 4.33715171312
0.0155 -0.0065 4.23427317471
0.0155 -0.0055 4.13197979622
0.0155 -0.0045 4.04023719851
0.0155 -0.0035 3.96678135722
0.0155 -0.0025 3.91630590288
0.0155 -0.0015 3.88790695323
0.0155 -0.0005 3.87522383901
0.0155 0.0005 3.87054659334
0.0155 0.0015 3.86975641062
0.0155 0.0025 3.87779553943
0.0155 0.0035 3.91395248739
0.0155 0.0045 3.9981139884
0.0155 0.0055 4.12901765636
0.0155 0.0065 4.2801786743
0.0155 0.0075 4.41309876735
0.0155 0.0085 4.50126313145
0.0155 0.0095 4.54265602441
0.0155 0.0105 4.55600771742
0.0155 0.0115 4.56019547338
0.0155 0.0125 4.56098788508
0.0155 0.0135 4.55988336993
0.0155 0.0145 4.55914160912
0.0155 0.0155 4.55861552814
0.0155 0.0165 4.54970673621
0.0155 0.0175 4.50980288627
0.0155 0.0185 4.41573458297
0.0155 0.0195 4.26513814061
0.0155 0.0205 4.08138788556
0.0155 0.0215 3.90119268237
0.0155 0.0225 3.75373987034
0.0155 0.0235 3.64933141415
0.0155 0.0245 3.5783029472
0.0155 0.0255 3.52373444168
0.0155 0.0265 3.47739244669
0.0155 0.0275 3.43987536465
0.0155 0.0285 3.4127379802
0.0155 0.0295 3.39498926658
0.0155 0.0305 3.38498945771
0.0155 0.0315 3.38157625319
0.0165 -0.0315 3.62209089346
0.0165 -0.0305 3.62801363909
0.0165 -0.0295 3.64654989568
0.0165 -0.0285 3.67742448731
0.0165 -0.0275 3.71122983642
0.0165 -0.0265 3.73957981556
0.0165 -0.0255 3.76368213654
0.0165 -0.0245 3.78807388069
0.0165 -0.0235 3.81853771822
0.0165 -0.0225 3.87416299983
0.0165 -0.0215 3.99089487359
0.0165 -0.0205 4.17261630889
0.0165 -0.0195 4.365119639
0.0165 -0.0185 4.50255322094
0.0165 -0.0175 4.56209254256
0.0165 -0.0165 4.57399914177
0.0165 -0.0155 4.57296041054
0.0165 -0.0145 4.56982034386
0.0165 -0.0135 4.56468171293