% Model:              Benchmark260518.mph
% Version:            COMSOL 6.2.0.339
% Date:               May 20 2026, 13:21
% Dimension:          2
% Nodes:              4096
% Expressions:        1
% Description:        压力
% Length unit:        m
% x                       y                        p (Pa)
5.0E-4                    -0.0315                  3.980590960707854
5.0E-4                    -0.0305                  4.005896938773475
5.0E-4                    -0.0295                  4.0403406848810395
5.0E-4                    -0.0285                  4.0778277225303405
5.0E-4                    -0.0275                  4.117044337562623
5.0E-4                    -0.0265                  4.15755043548254
5.0E-4                    -0.0255                  4.199040977713411
5.0E-4                    -0.0245                  4.241336234031836
5.0E-4                    -0.0235                  4.284317602524976
5.0E-4                    -0.0225                  4.327903891828898
5.0E-4                    -0.0215                  4.372114089066523
5.0E-4                    -0.0205                  4.417030658800705
5.0E-4                    -0.0195                  4.462729120183056
5.0E-4                    -0.0185                  4.509301921504991
5.0E-4                    -0.0175                  4.55685026798541
5.0E-4                    -0.0165                  4.605504657084289
5.0E-4                    -0.0155                  4.655442996799039
5.0E-4                    -0.0145                  4.706338024119839
5.0E-4                    -0.0135                  4.757389949415367
5.0E-4                    -0.0125                  4.807416809083443
5.0E-4                    -0.0115                  4.853756335486981
5.0E-4                    -0.0105                  4.892663450926785
5.0E-4                    -0.0095                  4.919950727592532
5.0E-4                    -0.0085                  4.933971366526345
5.0E-4                    -0.0075                  4.938228404999899
5.0E-4                    -0.0065                  4.936831381451209
5.0E-4                    -0.0055                  4.93150544360177
5.0E-4                    -0.0045                  4.927681181094757
5.0E-4                    -0.0035                  4.941841895614077
5.0E-4                    -0.0025                  4.985017350511116
5.0E-4                    -0.0015                  5.036931400163539
5.0E-4                    -5.0E-4                  5.068453485584188
5.0E-4                    5.0E-4                   5.068457344860146
5.0E-4                    0.0015                   5.036969296324732
5.0E-4                    0.0025                   4.985159272600781
5.0E-4                    0.0035                   4.942104920251364
5.0E-4                    0.0045                   4.927999951180308
5.0E-4                    0.0055                   4.931829454539735
5.0E-4                    0.0065                   4.937147972465319
5.0E-4                    0.0075                   4.938536336966649
5.0E-4                    0.0085                   4.934267637793729
5.0E-4                    0.0095                   4.920225922866551
5.0E-4                    0.0105                   4.89289870226175
5.0E-4                    0.0115                   4.853932521886915
5.0E-4                    0.0125                   4.807531534603267
5.0E-4                    0.0135                   4.757470541693232
5.0E-4                    0.0145                   4.706406674901873
5.0E-4                    0.0155                   4.655469659947142
5.0E-4                    0.0165                   4.60544483356002
5.0E-4                    0.0175                   4.556686566997355
5.0E-4                    0.0185                   4.509034052164491
5.0E-4                    0.0195                   4.462364087485616
5.0E-4                    0.0205                   4.416578189546737
5.0E-4                    0.0215                   4.371584356574754
5.0E-4                    0.0225                   4.327319407891286
5.0E-4                    0.0235                   4.28374408190904
5.0E-4                    0.0245                   4.240846250968868
5.0E-4                    0.0255                   4.198647516778274
5.0E-4                    0.0265                   4.1572333943217
5.0E-4                    0.0275                   4.116766902081498
5.0E-4                    0.0285                   4.077542952664514
5.0E-4                    0.0295                   4.040019254912476
5.0E-4                    0.0305                   4.005515140302428
5.0E-4                    0.0315                   3.980159604155038
0.0015                    -0.0315                  3.9550678053949198
0.0015                    -0.0305                  3.9805207887473792
0.0015                    -0.0295                  4.0175582981655005
0.0015                    -0.0285                  4.058092970622348
0.0015                    -0.0275                  4.0998576617724805
0.0015                    -0.0265                  4.1422993059558575
0.0015                    -0.0255                  4.185225579936232
0.0015                    -0.0245                  4.228520269422041
0.0015                    -0.0235                  4.27211399940707
0.0015                    -0.0225                  4.315983692926743
0.0015                    -0.0215                  4.360170838016208
0.0015                    -0.0205                  4.404797341753159
0.0015                    -0.0195                  4.4500544322807745
0.0015                    -0.0185                  4.496204282318564
0.0015                    -0.0175                  4.543602831231021
0.0015                    -0.0165                  4.5926796936873355
0.0015                    -0.0155                  4.643796200800228
0.0015                    -0.0145                  4.697038667770343
0.0015                    -0.0135                  4.751815878936119
0.0015                    -0.0125                  4.806258399092988
0.0015                    -0.0115                  4.856577460989512
0.0015                    -0.0105                  4.8978147744331535
0.0015                    -0.0095                  4.92499407084511
0.0015                    -0.0085                  4.937817610656236
0.0015                    -0.0075                  4.941232884017374
0.0015                    -0.0065                  4.939012153554886
0.0015                    -0.0055                  4.934546532540747
0.0015                    -0.0045                  4.9340286591797655
0.0015                    -0.0035                  4.96105718931627
0.0015                    -0.0025                  5.024270128610215
0.0015                    -0.0015                  5.091143990510942
0.0015                    -5.0E-4                  5.130663958549292
0.0015                    5.0E-4                   5.130654746622833
0.0015                    0.0015                   5.091143913446159
0.0015                    0.0025                   5.024360198948323
0.0015                    0.0035                   4.961293005730047
0.0015                    0.0045                   4.9343454079509135
0.0015                    0.0055                   4.934868300598238
0.0015                    0.0065                   4.939326349525498
0.0015                    0.0075                   4.94153635345681
0.0015                    0.0085                   4.938110763144724
0.0015                    0.0095                   4.925273098673324
0.0015                    0.0105                   4.898065351529608
0.0015                    0.0115                   4.856784227892618
0.0015                    0.0125                   4.806421284319512
0.0015                    0.0135                   4.75194794653295
0.0015                    0.0145                   4.697143127324626
0.0015                    0.0155                   4.64385238838857
0.0015                    0.0165                   4.5926591271864785
0.0015                    0.0175                   4.543487803861306
0.0015                    0.0185                   4.495991173421512
0.0015                    0.0195                   4.449748037288753
0.0015                    0.0205                   4.404406605108241
0.0015                    0.0215                   4.35971188895531
0.0015                    0.0225                   4.31549181546781
0.0015                    0.0235                   4.271642541208656
0.0015                    0.0245                   4.2281121483813315
0.0015                    0.0255                   4.1848954519124675
0.0015                    0.0265                   4.142033320370905
0.0015                    0.0275                   4.099622293198829
0.0015                    0.0285                   4.057850218694537
0.0015                    0.0295                   4.017265488645905
0.0015                    0.0305                   3.9801472551280543
0.0015                    0.0315                   3.954648785434864
0.0025                    -0.0315                  3.919908826196007
0.0025                    -0.0305                  3.9432853776877064
0.0025                    -0.0295                  3.9807157085479963
0.0025                    -0.0285                  4.023951204672491
0.0025                    -0.0275                  4.068962271001396
0.0025                    -0.0265                  4.11432075353712
0.0025                    -0.0255                  4.159583875499291
0.0025                    -0.0245                  4.204596468020393
0.0025                    -0.0235                  4.249296152356373
0.0025                    -0.0225                  4.293687864424568
0.0025                    -0.0215                  4.337854896532091
0.0025                    -0.0205                  4.3819878593688255
0.0025                    -0.0195                  4.4264236969355295
0.0025                    -0.0185                  4.471676802050221
0.0025                    -0.0175                  4.518453658920367
0.0025                    -0.0165                  4.567597664659212
0.0025                    -0.0155                  4.6199108134875635
0.0025                    -0.0145                  4.67581514518753
0.0025                    -0.0135                  4.734753832846968
0.0025                    -0.0125                  4.7941833450272275
0.0025                    -0.0115                  4.849063595529028
0.0025                    -0.0105                  4.894098377943103
0.0025                    -0.0095                  4.924308140988071
0.0025                    -0.0085                  4.940120097177552
0.0025                    -0.0075                  4.946263454372442
0.0025                    -0.0065                  4.945350097123942
0.0025                    -0.0055                  4.943736008780685
0.0025                    -0.0045                  4.956714169071244
0.0025                    -0.0035                  5.005073413771054
0.0025                    -0.0025                  5.0844748777658175
0.0025                    -0.0015                  5.1619962210280415
0.0025                    -5.0E-4                  5.208181889262326
0.0025                    5.0E-4                   5.20815618472355
0.0025                    0.0015                   5.161948834848431
0.0025                    0.0025                   5.084485248834986
0.0025                    0.0035                   5.005218903029756
0.0025                    0.0045                   4.956978078448441
0.0025                    0.0055                   4.94404042710636
0.0025                    0.0065                   4.945652346537111
0.0025                    0.0075                   4.946555033653755
0.0025                    0.0085                   4.940403967780665
0.0025                    0.0095                   4.924586134116623
0.0025                    0.0105                   4.894365886927249
0.0025                    0.0115                   4.849313302565225
0.0025                    0.0125                   4.79441155685679
0.0025                    0.0135                   4.73495734465955
0.0025                    0.0145                   4.675984665528777
0.0025                    0.0155                   4.620031347764367
0.0025                    0.0165                   4.567651992481767
0.0025                    0.0175                   4.5184273175946235
0.0025                    0.0185                   4.471563061306286
0.0025                    0.0195                   4.426224277580696
0.0025                    0.0205                   4.381712768064274
0.0025                    0.0215                   4.33752522079158
0.0025                    0.0225                   4.293334967113714
0.0025                    0.0235                   4.248951973968538
0.0025                    0.0245                   4.204286382059835
0.0025                    0.0255                   4.159320511187575
0.0025                    0.0265                   4.11409880874705
0.0025                    0.0275                   4.0687626951115705
0.0025                    0.0285                   4.023744317098303
0.0025                    0.0295                   3.980464426218604
0.0025                    0.0305                   3.942977971264675
0.0025                    0.0315                   3.919628389093089
0.0035                    -0.0315                  3.881275487079389
0.0035                    -0.0305                  3.902268872271144
0.0035                    -0.0295                  3.9380795610126675
0.0035                    -0.0285                  3.9819960147897566
0.0035                    -0.0275                  4.029298021116994
0.0035                    -0.0265                  4.077436654472542
0.0035                    -0.0255                  4.125281170306174
0.0035                    -0.0245                  4.172365601613296
0.0035                    -0.0235                  4.218500697748736
0.0035                    -0.0225                  4.26364232554963
0.0035                    -0.0215                  4.307875173432457
0.0035                    -0.0205                  4.351443752977662
0.0035                    -0.0195                  4.394805583191209
0.0035                    -0.0185                  4.438680392713292
0.0035                    -0.0175                  4.484060870822425
0.0035                    -0.0165                  4.532153804987487
0.0035                    -0.0155                  4.584181724907339
0.0035                    -0.0145                  4.640878489527242
0.0035                    -0.0135                  4.701644297923872
0.0035                    -0.0125                  4.763794810385741
0.0035                    -0.0115                  4.822372758961017
0.0035                    -0.0105                  4.87288997263182
0.0035                    -0.0095                  4.9109879561643845
0.0035                    -0.0085                  4.935749277024687
0.0035                    -0.0075                  4.948527300921956
0.0035                    -0.0065                  4.951140019459377
0.0035                    -0.0055                  4.9552492046437635
0.0035                    -0.0045                  4.982954581723317
0.0035                    -0.0035                  5.049734127004498
0.0035                    -0.0025                  5.143276777537
0.0035                    -0.0015                  5.231248726997804
0.0035                    -5.0E-4                  5.283508665098792
0.0035                    5.0E-4                   5.2834683533283275
0.0035                    0.0015                   5.231158503551443
0.0035                    0.0025                   5.14321845808939
0.0035                    0.0035                   5.049791940488138
0.0035                    0.0045                   4.98314456385747
0.0035                    0.0055                   4.955512168687571
0.0035                    0.0065                   4.951416157929576
0.0035                    0.0075                   4.948797618539955
0.0035                    0.0085                   4.936017611890364
0.0035                    0.0095                   4.911261816230286
0.0035                    0.0105                   4.8731736995985875
0.0035                    0.0115                   4.8226659157460485
0.0035                    0.0125                   4.764089555731619
0.0035                    0.0135                   4.701927450316634
0.0035                    0.0145                   4.641134511986438
0.0035                    0.0155                   4.584395438741257
0.0035                    0.0165                   4.532311361383617
0.0035                    0.0175                   4.484150997670532
0.0035                    0.0185                   4.438696572211098
0.0035                    0.0195                   4.3947486884561435
0.0035                    0.0205                   4.351323552564391
0.0035                    0.0215                   4.307708619665697
0.0035                    0.0225                   4.263448272088294
0.0035                    0.0235                   4.218296211604192
0.0035                    0.0245                   4.172164733760933
0.0035                    0.0255                   4.125092885505815
0.0035                    0.0265                   4.077263134625117
0.0035                    0.0275                   4.029133543638163
0.0035                    0.0285                   3.981828643686035
0.0035                    0.0295                   3.9379011229443903
0.0035                    0.0305                   3.902113176997031
0.0035                    0.0315                   3.8812355159781435
0.0045                    -0.0315                  3.840831779364181
0.0045                    -0.0305                  3.8598733755119303
0.0045                    -0.0295                  3.8936510817638723
0.0045                    -0.0285                  3.9368514711853884
0.0045                    -0.0275                  3.985071799735331
0.0045                    -0.0265                  4.0351930497475985
0.0045                    -0.0255                  4.085339736869817
0.0045                    -0.0245                  4.134522175340896
0.0045                    -0.0235                  4.182256815034437
0.0045                    -0.0225                  4.228345654842387
0.0045                    -0.0215                  4.272800279829029
0.0045                    -0.0205                  4.315851812007043
0.0045                    -0.0195                  4.357998222041378
0.0045                    -0.0185                  4.400049518782653
0.0045                    -0.0175                  4.443137607881957
0.0045                    -0.0165                  4.488654656391332
0.0045                    -0.0155                  4.538052962583245
0.0045                    -0.0145                  4.592404985231715
0.0045                    -0.0135                  4.651506105098814
0.0045                    -0.0125                  4.712997916708597
0.0045                    -0.0115                  4.773850695758616
0.0045                    -0.0105                  4.830260744642766
0.0045                    -0.0095                  4.878545562664887
0.0045                    -0.0085                  4.915101507808783
0.0045                    -0.0075                  4.934353046140065
0.0045                    -0.0065                  4.939626275290355
0.0045                    -0.0055                  4.949922342359818
0.0045                    -0.0045                  4.989957784277802
0.0045                    -0.0035                  5.070098673049661
0.0045                    -0.0025                  5.175115100538737
0.0045                    -0.0015                  5.272481330060875
0.0045                    -5.0E-4                  5.329740057913285
0.0045                    5.0E-4                   5.329691980183055
0.0045                    0.0015                   5.27236803334913
0.0045                    0.0025                   5.175017788363765
0.0045                    0.0035                   5.070100738796187
0.0045                    0.0045                   4.990088244802278
0.0045                    0.0055                   4.950141866403954
0.0045                    0.0065                   4.939876047675512
0.0045                    0.0075                   4.93460356509996
0.0045                    0.0085                   4.915355884004372
0.0045                    0.0095                   4.878820499559844
0.0045                    0.0105                   4.830567174000962
0.0045                    0.0115                   4.774190796334261
0.0045                    0.0125                   4.713362541678293
0.0045                    0.0135                   4.651877174117112
0.0045                    0.0145                   4.592762512335846
0.0045                    0.0155                   4.538378776608996
0.0045                    0.0165                   4.488934667488423
0.0045                    0.0175                   4.443362314248998
0.0045                    0.0185                   4.400214459474318
0.0045                    0.0195                   4.35810486792902
0.0045                    0.0205                   4.315907125030909
0.0045                    0.0215                   4.2728137054980815
0.0045                    0.0225                   4.228325824323964
0.0045                    0.0235                   4.182210172929477
0.0045                    0.0245                   4.134453288540226
0.0045                    0.0255                   4.085252797319994
0.0045                    0.0265                   4.0350927842924476
0.0045                    0.0275                   3.9849636885182216
0.0045                    0.0285                   3.9367446877559362
0.0045                    0.0295                   3.8935697505577322
0.0045                    0.0305                   3.859873375131042
0.0045                    0.0315                   3.8409452761578677
0.0055                    -0.0315                  3.799082432550007
0.0055                    -0.0305                  3.8167302205850726
0.0055                    -0.0295                  3.8487806283519266
0.0055                    -0.0285                  3.8908915082099416
0.0055                    -0.0275                  3.9391605283914335
0.0055                    -0.0265                  3.990417624123255
0.0055                    -0.0255                  4.0423357851514226
0.0055                    -0.0245                  4.09340682534231
0.0055                    -0.0235                  4.142753032672428
0.0055                    -0.0225                  4.189923798860614
0.0055                    -0.0215                  4.234773718582094
0.0055                    -0.0205                  4.277429371565938
0.0055                    -0.0195                  4.318314423630532
0.0055                    -0.0185                  4.35818961902426
0.0055                    -0.0175                  4.398161478730068
0.0055                    -0.0165                  4.4396243175411785
0.0055                    -0.0155                  4.484105837200877
0.0055                    -0.0145                  4.532950553776795
0.0055                    -0.0135                  4.586835715915607
0.0055                    -0.0125                  4.645065227528603
0.0055                    -0.0115                  4.706564714577162
0.0055                    -0.0105                  4.767547504748933
0.0055                    -0.0095                  4.823236277969361
0.0055                    -0.0085                  4.86618874315144
0.0055                    -0.0075                  4.887179748923973
0.0055                    -0.0065                  4.893236366984631
0.0055                    -0.0055                  4.908734942440993
0.0055                    -0.0045                  4.957833067088643
0.0055                    -0.0035                  5.04775174646595
0.0055                    -0.0025                  5.161725813601656
0.0055                    -0.0015                  5.26543949833739
0.0055                    -5.0E-4                  5.325485650649828
0.0055                    5.0E-4                   5.32544132237813
0.0055                    0.0015                   5.265335561881817
0.0055                    0.0025                   5.161638021214268
0.0055                    0.0035                   5.047757150029275
0.0055                    0.0045                   4.95795792522396
0.0055                    0.0055                   4.908949323756639
0.0055                    0.0065                   4.893490186590096
0.0055                    0.0075                   4.887438812849178
0.0055                    0.0085                   4.866453434035109
0.0055                    0.0095                   4.8235313495622005
0.0055                    0.0105                   4.767892021793501
0.0055                    0.0115                   4.706962361820834
0.0055                    0.0125                   4.645506641858355
0.0055                    0.0135                   4.587300996072153
0.0055                    0.0145                   4.533416668661662
0.0055                    0.0155                   4.484552133420397
0.0055                    0.0165                   4.4400357427820545
0.0055                    0.0175                   4.39852932866552
0.0055                    0.0185                   4.358511075690046
0.0055                    0.0195                   4.318591282577352
0.0055                    0.0205                   4.27766586984685
0.0055                    0.0215                   4.2349738906854935
0.0055                    0.0225                   4.190089313217754
0.0055                    0.0235                   4.142882328057613
0.0055                    0.0245                   4.093496312314169
0.0055                    0.0255                   4.042382962174659
0.0055                    0.0265                   3.9904252093861534
0.0055                    0.0275                   3.9391405671539648
0.0055                    0.0285                   3.890868805559646
0.0055                    0.0295                   3.8487929706040664
0.0055                    0.0305                   3.8168122092364025
0.0055                    0.0315                   3.7992275749198052
0.0065                    -0.0315                  3.7560987733568063
0.0065                    -0.0305                  3.772912668058064
0.0065                    -0.0295                  3.8038183297686277
0.0065                    -0.0285                  3.8450767057577484
0.0065                    -0.0275                  3.8931825227149472
0.0065                    -0.0265                  3.945093193165353
0.0065                    -0.0255                  3.9983178504525214
0.0065                    -0.0245                  4.050993016611304
0.0065                    -0.0235                  4.1018629697803775
0.0065                    -0.0225                  4.150175596275811
0.0065                    -0.0215                  4.195564867370135
0.0065                    -0.0205                  4.237975571288697
0.0065                    -0.0195                  4.27765023917523
0.0065                    -0.0185                  4.315166336403196
0.0065                    -0.0175                  4.351476077386584
0.0065                    -0.0165                  4.387891818682367
0.0065                    -0.0155                  4.425990510331119
0.0065                    -0.0145                  4.467460945927388
0.0065                    -0.0135                  4.513857518664852
0.0065                    -0.0125                  4.56667054464941
0.0065                    -0.0115                  4.6260385100384624
0.0065                    -0.0105                  4.688363418418071
0.0065                    -0.0095                  4.745775242613733
0.0065                    -0.0085                  4.787231542326189
0.0065                    -0.0075                  4.806179269058629
0.0065                    -0.0065                  4.8145715458658405
0.0065                    -0.0055                  4.838776171002527
0.0065                    -0.0045                  4.897546131084467
0.0065                    -0.0035                  4.992570094803911
0.0065                    -0.0025                  5.108606379412388
0.0065                    -0.0015                  5.213619812483225
0.0065                    -5.0E-4                  5.274554372861228
0.0065                    5.0E-4                   5.274527283899004
0.0065                    0.0015                   5.213562811892181
0.0065                    0.0025                   5.108581999371205
0.0065                    0.0035                   4.992640678169293
0.0065                    0.0045                   4.897730700023569
0.0065                    0.0055                   4.839047744296095
0.0065                    0.0065                   4.814883506590907
0.0065                    0.0075                   4.806496520940105
0.0065                    0.0085                   4.787551505098797
0.0065                    0.0095                   4.746124211049599
0.0065                    0.0105                   4.688768881964918
0.0065                    0.0115                   4.626508370024581
0.0065                    0.0125                   4.567195788535345
0.0065                    0.0135                   4.51441854637202