% Model:              Benchmark260518.mph
% Version:            COMSOL 6.2.0.339
% Date:               May 21 2026, 06:56
% Dimension:          2
% Nodes:              4096
% Expressions:        1
% Description:        压力
% Length unit:        m
% x                       y                        p (Pa)
5.0E-4                    -0.0315                  3.513910574884335
5.0E-4                    -0.0305                  3.53947613147426
5.0E-4                    -0.0295                  3.5743597636053495
5.0E-4                    -0.0285                  3.612278431687434
5.0E-4                    -0.0275                  3.6519132369704144
5.0E-4                    -0.0265                  3.6927940150842815
5.0E-4                    -0.0255                  3.734607099989218
5.0E-4                    -0.0245                  3.7771755150013084
5.0E-4                    -0.0235                  3.820380691412786
5.0E-4                    -0.0225                  3.8641534956668
5.0E-4                    -0.0215                  3.908457742692675
5.0E-4                    -0.0205                  3.9532845316350245
5.0E-4                    -0.0195                  3.9986401422029716
5.0E-4                    -0.0185                  4.044550029618052
5.0E-4                    -0.0175                  4.09105810804234
5.0E-4                    -0.0165                  4.138209020465311
5.0E-4                    -0.0155                  4.186040286029811
5.0E-4                    -0.0145                  4.234573017225826
5.0E-4                    -0.0135                  4.283799073196795
5.0E-4                    -0.0125                  4.333671388261425
5.0E-4                    -0.0115                  4.384097487508531
5.0E-4                    -0.0105                  4.434950695707462
5.0E-4                    -0.0095                  4.486089580501181
5.0E-4                    -0.0085                  4.537366798624097
5.0E-4                    -0.0075                  4.588621313388964
5.0E-4                    -0.0065                  4.639687002770703
5.0E-4                    -0.0055                  4.69030787884701
5.0E-4                    -0.0045                  4.740305434301049
5.0E-4                    -0.0035                  4.788938664836578
5.0E-4                    -0.0025                  4.8333733849661975
5.0E-4                    -0.0015                  4.86980176948637
5.0E-4                    -5.0E-4                  4.89425882381139
5.0E-4                    5.0E-4                   4.906425172344735
5.0E-4                    0.0015                   4.910592147653591
5.0E-4                    0.0025                   4.909567031087166
5.0E-4                    0.0035                   4.909311113366282
5.0E-4                    0.0045                   4.91820802552643
5.0E-4                    0.0055                   4.934896193429311
5.0E-4                    0.0065                   4.950570238229502
5.0E-4                    0.0075                   4.96237578565653
5.0E-4                    0.0085                   4.9724987934133456
5.0E-4                    0.0095                   4.98146723396141
5.0E-4                    0.0105                   4.987695872213053
5.0E-4                    0.0115                   4.9861759193496455
5.0E-4                    0.0125                   4.969748593300495
5.0E-4                    0.0135                   4.940770400314653
5.0E-4                    0.0145                   4.9066656242996665
5.0E-4                    0.0155                   4.869867488565811
5.0E-4                    0.0165                   4.832187323058113
5.0E-4                    0.0175                   4.794365866999271
5.0E-4                    0.0185                   4.756547163950213
5.0E-4                    0.0195                   4.7189304410892765
5.0E-4                    0.0205                   4.681719972596654
5.0E-4                    0.0215                   4.64500792760295
5.0E-4                    0.0225                   4.608833038652303
5.0E-4                    0.0235                   4.573198959817716
5.0E-4                    0.0245                   4.5381073933642355
5.0E-4                    0.0255                   4.5035785175626595
5.0E-4                    0.0265                   4.469675539404056
5.0E-4                    0.0275                   4.436522009028769
5.0E-4                    0.0285                   4.404362064904901
5.0E-4                    0.0295                   4.373583184435224
5.0E-4                    0.0305                   4.345274672999159
5.0E-4                    0.0315                   4.324513174308578
0.0015                    -0.0315                  3.4882523392465563
0.0015                    -0.0305                  3.513896910821186
0.0015                    -0.0295                  3.551347562391468
0.0015                    -0.0285                  3.5923105013344396
0.0015                    -0.0275                  3.6344791641251515
0.0015                    -0.0265                  3.677322957258618
0.0015                    -0.0255                  3.720658761576707
0.0015                    -0.0245                  3.764386524031864
0.0015                    -0.0235                  3.808447008751913
0.0015                    -0.0225                  3.8528054068491056
0.0015                    -0.0215                  3.8974494001354048
0.0015                    -0.0205                  3.9423885599847512
0.0015                    -0.0195                  3.987656215418722
0.0015                    -0.0185                  4.0333119729245
0.0015                    -0.0175                  4.079444399727761
0.0015                    -0.0165                  4.1261668636844
0.0015                    -0.0155                  4.173606537343797
0.0015                    -0.0145                  4.221888136002325
0.0015                    -0.0135                  4.271107258884562
0.0015                    -0.0125                  4.321298813276158
0.0015                    -0.0115                  4.372414806451734
0.0015                    -0.0105                  4.424328072120236
0.0015                    -0.0095                  4.476867708394655
0.0015                    -0.0085                  4.5298676895633125
0.0015                    -0.0075                  4.583201126646853
0.0015                    -0.0065                  4.636764646251252
0.0015                    -0.0055                  4.6904317667167845
0.0015                    -0.0045                  4.743727108452589
0.0015                    -0.0035                  4.794909920548713
0.0015                    -0.0025                  4.84022586980164
0.0015                    -0.0015                  4.875607363639713
0.0015                    -5.0E-4                  4.8977582834903295
0.0015                    5.0E-4                   4.908248444948603
0.0015                    0.0015                   4.912362976969197
0.0015                    0.0025                   4.913130574745567
0.0015                    0.0035                   4.912903255083009
0.0015                    0.0045                   4.91947736143424
0.0015                    0.0055                   4.931574137357002
0.0015                    0.0065                   4.939809573476497
0.0015                    0.0075                   4.944417603322324
0.0015                    0.0085                   4.948335922542288
0.0015                    0.0095                   4.9528517395925284
0.0015                    0.0105                   4.957498850035927
0.0015                    0.0115                   4.959585542640632
0.0015                    0.0125                   4.953243272410999
0.0015                    0.0135                   4.933576038919597
0.0015                    0.0145                   4.902645378639352
0.0015                    0.0155                   4.865768404172784
0.0015                    0.0165                   4.826539331530855
0.0015                    0.0175                   4.7868777803568685
0.0015                    0.0185                   4.747638934502316
0.0015                    0.0195                   4.709137624773909
0.0015                    0.0205                   4.671443932617186
0.0015                    0.0215                   4.634491612590637
0.0015                    0.0225                   4.598145714855601
0.0015                    0.0235                   4.562267820717022
0.0015                    0.0245                   4.52675048710837
0.0015                    0.0255                   4.49153313353353
0.0015                    0.0265                   4.456607674946945
0.0015                    0.0275                   4.422028240122347
0.0015                    0.0285                   4.387940204593518
0.0015                    0.0295                   4.35479005397793
0.0015                    0.0305                   4.324459407261752
0.0015                    0.0315                   4.303662585206137
0.0025                    -0.0315                  3.4530655214825923
0.0025                    -0.0305                  3.4763996100660157
0.0025                    -0.0295                  3.514047999864732
0.0025                    -0.0285                  3.5575766764454384
0.0025                    -0.0275                  3.6029049848586077
0.0025                    -0.0265                  3.6486477628544196
0.0025                    -0.0255                  3.6944148280917655
0.0025                    -0.0245                  3.740091628067606
0.0025                    -0.0235                  3.7856391472797064
0.0025                    -0.0225                  3.831045951614435
0.0025                    -0.0215                  3.8763192163252285
0.0025                    -0.0205                  3.9214898407018586
0.0025                    -0.0195                  3.966622561249787
0.0025                    -0.0185                  4.011826436584602
0.0025                    -0.0175                  4.057263475065445
0.0025                    -0.0165                  4.103153997671701
0.0025                    -0.0155                  4.149771525093536
0.0025                    -0.0145                  4.197420916341437
0.0025                    -0.0135                  4.246395382030673
0.0025                    -0.0125                  4.296914002619328
0.0025                    -0.0115                  4.3490594214271905
0.0025                    -0.0105                  4.402748975011386
0.0025                    -0.0095                  4.457768326285153
0.0025                    -0.0085                  4.513863294470699
0.0025                    -0.0075                  4.570830999422204
0.0025                    -0.0065                  4.628523052955312
0.0025                    -0.0055                  4.686612475108861
0.0025                    -0.0045                  4.743949595007036
0.0025                    -0.0035                  4.797681954711896
0.0025                    -0.0025                  4.843134753540294
0.0025                    -0.0015                  4.876409147044309
0.0025                    -5.0E-4                  4.896469129354957
0.0025                    5.0E-4                   4.9071583776240475
0.0025                    0.0015                   4.913804030726782
0.0025                    0.0025                   4.919184300319056
0.0025                    0.0035                   4.925620946772257
0.0025                    0.0045                   4.932233730985123
0.0025                    0.0055                   4.934045664411656
0.0025                    0.0065                   4.931279541367033
0.0025                    0.0075                   4.9288772287286875
0.0025                    0.0085                   4.9290100461318
0.0025                    0.0095                   4.931454757536613
0.0025                    0.0105                   4.9347498584372484
0.0025                    0.0115                   4.936443409502494
0.0025                    0.0125                   4.932512660818711
0.0025                    0.0135                   4.917895357064155
0.0025                    0.0145                   4.890447802294974
0.0025                    0.0155                   4.853538442226251
0.0025                    0.0165                   4.812352618863595
0.0025                    0.0175                   4.770404110469115
0.0025                    0.0185                   4.729375880289524
0.0025                    0.0195                   4.689786494424466
0.0025                    0.0205                   4.651549278304145
0.0025                    0.0215                   4.614330294146313
0.0025                    0.0225                   4.577742625737621
0.0025                    0.0235                   4.541447312026731
0.0025                    0.0245                   4.505196729154095
0.0025                    0.0255                   4.468841405008399
0.0025                    0.0265                   4.4323267139588225
0.0025                    0.0275                   4.395713465021326
0.0025                    0.0285                   4.3593209937147055
0.0025                    0.0295                   4.324288335957721
0.0025                    0.0305                   4.293929992449909
0.0025                    0.0315                   4.275072760907715
0.0035                    -0.0315                  3.414663389066494
0.0035                    -0.0305                  3.4352627431744973
0.0035                    -0.0295                  3.470873370069649
0.0035                    -0.0285                  3.514735810764701
0.0035                    -0.0275                  3.56209402872096
0.0035                    -0.0265                  3.610462427568805
0.0035                    -0.0255                  3.6587981975835318
0.0035                    -0.0245                  3.7067145257418046
0.0035                    -0.0235                  3.754068754948658
0.0035                    -0.0225                  3.8008089512627894
0.0035                    -0.0215                  3.846927609161857
0.0035                    -0.0205                  3.892456387915952
0.0035                    -0.0195                  3.9374775580906407
0.0035                    -0.0185                  3.982141181209141
0.0035                    -0.0175                  4.026681994220291
0.0035                    -0.0165                  4.071431966393565
0.0035                    -0.0155                  4.116822837013158
0.0035                    -0.0145                  4.163368871816017
0.0035                    -0.0135                  4.211619269801891
0.0035                    -0.0125                  4.262073695769163
0.0035                    -0.0115                  4.3150704059644385
0.0035                    -0.0105                  4.370685445116802
0.0035                    -0.0095                  4.42870165635395
0.0035                    -0.0085                  4.488684231073098
0.0035                    -0.0075                  4.550119424549708
0.0035                    -0.0065                  4.6124481489122395
0.0035                    -0.0055                  4.674786067780801
0.0035                    -0.0045                  4.735304346757187
0.0035                    -0.0035                  4.790536174911919
0.0035                    -0.0025                  4.8356715081576445
0.0035                    -0.0015                  4.867719679477211
0.0035                    -5.0E-4                  4.887294977454757
0.0035                    5.0E-4                   4.899075520684169
0.0035                    0.0015                   4.908604606951965
0.0035                    0.0025                   4.9207005756481195
0.0035                    0.0035                   4.934408151995273
0.0035                    0.0045                   4.939503241638492
0.0035                    0.0055                   4.93251431055643
0.0035                    0.0065                   4.921769846395382
0.0035                    0.0075                   4.914425492380115
0.0035                    0.0085                   4.912114616930803
0.0035                    0.0095                   4.913417943749769
0.0035                    0.0105                   4.915639326570133
0.0035                    0.0115                   4.916049551512586
0.0035                    0.0125                   4.910730836084819
0.0035                    0.0135                   4.895231699575389
0.0035                    0.0145                   4.867537630119289
0.0035                    0.0155                   4.829924185546965
0.0035                    0.0165                   4.787379049514858
0.0035                    0.0175                   4.7440680953370835
0.0035                    0.0185                   4.70209482611368
0.0035                    0.0195                   4.662032322981618
0.0035                    0.0205                   4.623632809978017
0.0035                    0.0215                   4.586323758420596
0.0035                    0.0225                   4.549504842907462
0.0035                    0.0235                   4.512688008346288
0.0035                    0.0245                   4.4755440046814705
0.0035                    0.0255                   4.437908721172457
0.0035                    0.0265                   4.399795831358151
0.0035                    0.0275                   4.361486488080399
0.0035                    0.0285                   4.3238275836175655
0.0035                    0.0295                   4.288839876630293
0.0035                    0.0305                   4.260363017297442
0.0035                    0.0315                   4.2438417513811455
0.0045                    -0.0315                  3.3744747806622604
0.0045                    -0.0305                  3.3928395134987266
0.0045                    -0.0295                  3.425882924498236
0.0045                    -0.0285                  3.4684738174794125
0.0045                    -0.0275                  3.5162561098753615
0.0045                    -0.0265                  3.566223660456076
0.0045                    -0.0255                  3.6166395531296023
0.0045                    -0.0245                  3.6666396706738174
0.0045                    -0.0235                  3.715823284473356
0.0045                    -0.0225                  3.7640053560705957
0.0045                    -0.0215                  3.8111073589169626
0.0045                    -0.0205                  3.8571234436123065
0.0045                    -0.0195                  3.9021232339268255
0.0045                    -0.0185                  3.9462708119199803
0.0045                    -0.0175                  3.989847889564612
0.0045                    -0.0165                  4.033273343489409
0.0045                    -0.0155                  4.0771132580168885
0.0045                    -0.0145                  4.122074238976834
0.0045                    -0.0135                  4.168967657694981
0.0045                    -0.0125                  4.218627492717176
0.0045                    -0.0115                  4.271768414841486
0.0045                    -0.0105                  4.32879700018382
0.0045                    -0.0095                  4.389638746228689
0.0045                    -0.0085                  4.453676035646082
0.0045                    -0.0075                  4.519837305804783
0.0045                    -0.0065                  4.586740851447056
0.0045                    -0.0055                  4.652667143594675
0.0045                    -0.0045                  4.715233553530803
0.0045                    -0.0035                  4.771081965095549
0.0045                    -0.0025                  4.816260507431554
0.0045                    -0.0015                  4.848813133774778
0.0045                    -5.0E-4                  4.869314665199226
0.0045                    5.0E-4                   4.8815078647154015
0.0045                    0.0015                   4.891002104834848
0.0045                    0.0025                   4.905322289027101
0.0045                    0.0035                   4.922899767825282
0.0045                    0.0045                   4.92910528561348
0.0045                    0.0055                   4.921448676059362
0.0045                    0.0065                   4.9096164534858815
0.0045                    0.0075                   4.900110061127621
0.0045                    0.0085                   4.895932183977666
0.0045                    0.0095                   4.896135649025375
0.0045                    0.0105                   4.897198736694005
0.0045                    0.0115                   4.895278243622712
0.0045                    0.0125                   4.885611126268065
0.0045                    0.0135                   4.864798385743844
0.0045                    0.0145                   4.833149702341991
0.0045                    0.0155                   4.793799013108943
0.0045                    0.0165                   4.7509881841035995
0.0045                    0.0175                   4.708061582880679
0.0045                    0.0185                   4.6667170572539725
0.0045                    0.0195                   4.6272896185711705
0.0045                    0.0205                   4.589356513053813
0.0045                    0.0215                   4.552221981848046
0.0045                    0.0225                   4.515213891519721
0.0045                    0.0235                   4.477826816789783
0.0045                    0.0245                   4.439771956949063
0.0045                    0.0255                   4.400996718863117
0.0045                    0.0265                   4.361735568740247
0.0045                    0.0275                   4.322662249348586
0.0045                    0.0285                   4.285175917577589
0.0045                    0.0295                   4.251687296372903
0.0045                    0.0305                   4.225660086370978
0.0045                    0.0315                   4.211165592098003
0.0055                    -0.0315                  3.3329803687853885
0.0055                    -0.0305                  3.3496822212384068
0.0055                    -0.0295                  3.380416325713833
0.0055                    -0.0285                  3.4211669705720675
0.0055                    -0.0275                  3.468231425834771
0.0055                    -0.0265                  3.5186536678781435
0.0055                    -0.0255                  3.570323226497445
0.0055                    -0.0245                  3.6219214246798717
0.0055                    -0.0235                  3.672703872623027
0.0055                    -0.0225                  3.722269266683827
0.0055                    -0.0215                  3.7704072933782395
0.0055                    -0.0205                  3.8170283297910275
0.0055                    -0.0195                  3.862148137139724
0.0055                    -0.0185                  3.9059031850913617
0.0055                    -0.0175                  3.94857808617126
0.0055                    -0.0165                  3.990631984451263
0.0055                    -0.0155                  4.032716047383674
0.0055                    -0.0145                  4.075677437077706
0.0055                    -0.0135                  4.120542824913858
0.0055                    -0.0125                  4.168463055735604
0.0055                    -0.0115                  4.220584595425862
0.0055                    -0.0105                  4.277813006405924
0.0055                    -0.0095                  4.340476351866302
0.0055                    -0.0085                  4.407994295447989
0.0055                    -0.0075                  4.478738913081357
0.0055                    -0.0065                  4.55021332281626
0.0055                    -0.0055                  4.619502260331137
0.0055                    -0.0045                  4.683665893559815
0.0055                    -0.0035                  4.739888407031101
0.0055                    -0.0025                  4.785799306690237
0.0055                    -0.0015                  4.82042322013049
0.0055                    -5.0E-4                  4.843431102073518
0.0055                    5.0E-4                   4.856945216762595
0.0055                    0.0015                   4.865743083730488
0.0055                    0.0025                   4.876206447278328
0.0055                    0.0035                   4.890785971219501
0.0055                    0.0045                   4.902570567776879
0.0055                    0.0055                   4.904929865722628
0.0055                    0.0065                   4.897560687287121
0.0055                    0.0075                   4.8865830209155625
0.0055                    0.0085                   4.879665525636475
0.0055                    0.0095                   4.877572353965485
0.0055                    0.0105                   4.875918377785135
0.0055                    0.0115                   4.869124566758532
0.0055                    0.0125                   4.8520497441996255
0.0055                    0.0135                   4.823537290494329
0.0055                    0.0145                   4.786730665073602
0.0055                    0.0155                   4.745882347339096
0.0055                    0.0165                   4.704288443849466
0.0055                    0.0175                   4.663696621515354
0.0055                    0.0185                   4.624673600012121
0.0055                    0.0195                   4.587026575514905
0.0055                    0.0205                   4.550172294171163
0.0055                    0.0215                   4.513443122215417
0.0055                    0.0225                   4.476278193931184
0.0055                    0.0235                   4.43832286976981
0.0055                    0.0245                   4.39947584544093
0.0055                    0.0255                   4.359926949648738
0.0055                    0.0265                   4.320231514373629
0.0055                    0.0275                   4.281440195022579
0.0055                    0.0285                   4.245225505604609
0.0055                    0.0295                   4.213892780002405
0.0055                    0.0305                   4.190286614919874
0.0055                    0.0315                   4.1774660946613995
0.0065                    -0.0315                  3.290471280990086
0.0065                    -0.0305                  3.3059396262069276
0.0065                    -0.0295                  3.334804115114995
0.0065                    -0.0285                  3.373739291024963
0.0065                    -0.0275                  3.4195800007755337
0.0065                    -0.0265                  3.469633349844352
0.0065                    -0.0255                  3.5217324493556075
0.0065                    -0.0245                  3.5742938711461565
0.0065                    -0.0235                  3.6262705636233856
0.0065                    -0.0225                  3.6770181743372405
0.0065                    -0.0215                  3.726155112208237
0.0065                    -0.0205                  3.7734694489066873
0.0065                    -0.0195                  3.818881917659597
0.0065                    -0.0185                  3.8624525433402255
0.0065                    -0.0175                  3.9044117015742703
0.0065                    -0.0165                  3.9451960614912966
0.0065                    -0.0155                  3.9854755252386287
0.0065                    -0.0145                  4.026165764027294
0.0065                    -0.0135                  4.068425778599079
0.0065                    -0.0125                  4.113634699737124
0.0065                    -0.0115                  4.163315954755625
0.0065                    -0.0105                  4.218937947671366
0.0065                    -0.0095                  4.281511263255611
0.0065                    -0.0085                  4.350980977133419
0.0065                    -0.0075                  4.425635291097605
0.0065                    -0.0065                  4.501978434009972
0.0065                    -0.0055                  4.575464317377989
0.0065                    -0.0045                  4.642061487545792
0.0065                    -0.0035                  4.69942861324744
0.0065                    -0.0025                  4.746908928665834
0.0065                    -0.0015                  4.784775102600132
0.0065                    -5.0E-4                  4.812572407353047
0.0065                    5.0E-4                   4.831153084331742
0.0065                    0.0015                   4.843868214451667
0.0065                    0.0025                   4.854284542579113
0.0065                    0.0035                   4.86756009263731
0.0065                    0.0045                   4.885268529572385
0.0065                    0.0055                   4.896772901213347
0.0065                    0.0065                   4.8916862792320925
0.0065                    0.0075                   4.876300396796058
0.0065                    0.0085                   4.863660524087004
0.0065                    0.0095                   4.856600080368836
0.0065                    0.0105                   4.848761014065847
0.0065                    0.0115                   4.832711377980782
0.0065                    0.0125                   4.805414674842128