% Model:              Benchmark260518.mph
% Version:            COMSOL 6.2.0.339
% Date:               May 21 2026, 14:14
% Dimension:          2
% Nodes:              4096
% Expressions:        1
% Description:        压力
% Length unit:        m
% x                       y                        p (Pa)
5.0E-4                    -0.0315                  3.755213849708868
5.0E-4                    -0.0305                  3.7724349985823746
5.0E-4                    -0.0295                  3.79594815901006
5.0E-4                    -0.0285                  3.8215104341303774
5.0E-4                    -0.0275                  3.8482508332954035
5.0E-4                    -0.0265                  3.875867305672324
5.0E-4                    -0.0255                  3.904152538003459
5.0E-4                    -0.0245                  3.932989503373474
5.0E-4                    -0.0235                  3.9622992694151606
5.0E-4                    -0.0225                  3.992030958969396
5.0E-4                    -0.0215                  4.022148321857657
5.0E-4                    -0.0205                  4.052621057948601
5.0E-4                    -0.0195                  4.0834218318119255
5.0E-4                    -0.0185                  4.114523404905564
5.0E-4                    -0.0175                  4.145899755591061
5.0E-4                    -0.0165                  4.1775266641094255
5.0E-4                    -0.0155                  4.209383733611115
5.0E-4                    -0.0145                  4.241462008593445
5.0E-4                    -0.0135                  4.2737646812974175
5.0E-4                    -0.0125                  4.306311149727103
5.0E-4                    -0.0115                  4.33913933925785
5.0E-4                    -0.0105                  4.37230728101466
5.0E-4                    -0.0095                  4.405900669962503
5.0E-4                    -0.0085                  4.440036125611449
5.0E-4                    -0.0075                  4.474870792490716
5.0E-4                    -0.0065                  4.510608972864486
5.0E-4                    -0.0055                  4.547510890639748
5.0E-4                    -0.0045                  4.585900739225427
5.0E-4                    -0.0035                  4.626073819294117
5.0E-4                    -0.0025                  4.668281155847654
5.0E-4                    -0.0015                  4.711915113582329
5.0E-4                    -5.0E-4                  4.7540211262058305
5.0E-4                    5.0E-4                   4.790565493443346
5.0E-4                    0.0015                   4.817154555619722
5.0E-4                    0.0025                   4.832529940458423
5.0E-4                    0.0035                   4.839880871313623
5.0E-4                    0.0045                   4.841810214052699
5.0E-4                    0.0055                   4.839209751390927
5.0E-4                    0.0065                   4.832741671706033
5.0E-4                    0.0075                   4.840432370896734
5.0E-4                    0.0085                   4.878697372170281
5.0E-4                    0.0095                   4.924672948153966
5.0E-4                    0.0105                   4.954395258175514
5.0E-4                    0.0115                   4.971391033660928
5.0E-4                    0.0125                   4.983275882056623
5.0E-4                    0.0135                   4.992394519824878
5.0E-4                    0.0145                   4.998506526704411
5.0E-4                    0.0155                   4.999877261381289
5.0E-4                    0.0165                   4.996133283837529
5.0E-4                    0.0175                   4.988975390163919
5.0E-4                    0.0185                   4.9801288145060365
5.0E-4                    0.0195                   4.969060200797414
5.0E-4                    0.0205                   4.956511687649013
5.0E-4                    0.0215                   4.946481581364168
5.0E-4                    0.0225                   4.9401031067677525
5.0E-4                    0.0235                   4.927193947116744
5.0E-4                    0.0245                   4.894252773907303
5.0E-4                    0.0255                   4.851952172861669
5.0E-4                    0.0265                   4.813723054229943
5.0E-4                    0.0275                   4.777130095466099
5.0E-4                    0.0285                   4.741465151677094
5.0E-4                    0.0295                   4.707443855964746
5.0E-4                    0.0305                   4.676585463631593
5.0E-4                    0.0315                   4.6542488112253535
0.0015                    -0.0315                  3.737917909983178
0.0015                    -0.0305                  3.755153622133813
0.0015                    -0.0295                  3.7803356314383434
0.0015                    -0.0285                  3.8078620369720597
0.0015                    -0.0275                  3.8361980205460475
0.0015                    -0.0265                  3.8650146002632306
0.0015                    -0.0255                  3.894213460444617
0.0015                    -0.0245                  3.9237477271871684
0.0015                    -0.0235                  3.953597213198688
0.0015                    -0.0225                  3.983753835093868
0.0015                    -0.0215                  4.0142152351369464
0.0015                    -0.0205                  4.044978517792602
0.0015                    -0.0195                  4.076035304860788
0.0015                    -0.0185                  4.107368671759833
0.0015                    -0.0175                  4.1389510623715156
0.0015                    -0.0165                  4.170745047000676
0.0015                    -0.0155                  4.2027068967361885
0.0015                    -0.0145                  4.234793144404756
0.0015                    -0.0135                  4.266968680351762
0.0015                    -0.0125                  4.299213027816252
0.0015                    -0.0115                  4.331526157306782
0.0015                    -0.0105                  4.363932982301953
0.0015                    -0.0095                  4.396489137386811
0.0015                    -0.0085                  4.4292910403628465
0.0015                    -0.0075                  4.46249322818886
0.0015                    -0.0065                  4.496342999237886
0.0015                    -0.0055                  4.531238718265948
0.0015                    -0.0045                  4.567813287136295
0.0015                    -0.0035                  4.607000228154758
0.0015                    -0.0025                  4.649760642311909
0.0015                    -0.0015                  4.696062621026728
0.0015                    -5.0E-4                  4.742941054402475
0.0015                    5.0E-4                   4.7849107856800615
0.0015                    0.0015                   4.815287776244716
0.0015                    0.0025                   4.832478491718505
0.0015                    0.0035                   4.841055749825374
0.0015                    0.0045                   4.843973674533115
0.0015                    0.0055                   4.84250947889433
0.0015                    0.0065                   4.8398831592182
0.0015                    0.0075                   4.843780595030271
0.0015                    0.0085                   4.873884297602308
0.0015                    0.0095                   4.915540237961281
0.0015                    0.0105                   4.940871387087608
0.0015                    0.0115                   4.955295992605343
0.0015                    0.0125                   4.9650149105550305
0.0015                    0.0135                   4.97258733373971
0.0015                    0.0145                   4.978054368897204
0.0015                    0.0155                   4.979022824672038
0.0015                    0.0165                   4.972020166823655
0.0015                    0.0175                   4.956934322058743
0.0015                    0.0185                   4.937595811379497
0.0015                    0.0195                   4.918180575960875
0.0015                    0.0205                   4.902621601841732
0.0015                    0.0215                   4.891586088667676
0.0015                    0.0225                   4.881789049062726
0.0015                    0.0235                   4.869157099485422
0.0015                    0.0245                   4.849972196476967
0.0015                    0.0255                   4.822595007353621
0.0015                    0.0265                   4.790709245791694
0.0015                    0.0275                   4.757679098235397
0.0015                    0.0285                   4.7229890232403875
0.0015                    0.0295                   4.687649889835738
0.0015                    0.0305                   4.6547285752566605
0.0015                    0.0315                   4.632073868867224
0.0025                    -0.0315                  3.7142331381530322
0.0025                    -0.0305                  3.72980091762908
0.0025                    -0.0295                  3.7549684018158476
0.0025                    -0.0285                  3.784042209258539
0.0025                    -0.0275                  3.8142923176471664
0.0025                    -0.0265                  3.844832015684202
0.0025                    -0.0255                  3.8754497934978276
0.0025                    -0.0245                  3.906121709470632
0.0025                    -0.0235                  3.936875007590241
0.0025                    -0.0225                  3.9677529214343554
0.0025                    -0.0215                  3.9988004090324756
0.0025                    -0.0205                  4.030055948561435
0.0025                    -0.0195                  4.061543848069809
0.0025                    -0.0185                  4.093266823341937
0.0025                    -0.0175                  4.1251999796569505
0.0025                    -0.0165                  4.157288006828438
0.0025                    -0.0155                  4.1894478912659325
0.0025                    -0.0145                  4.221577544102401
0.0025                    -0.0135                  4.253569732253819
0.0025                    -0.0125                  4.285327631017898
0.0025                    -0.0115                  4.316778145674441
0.0025                    -0.0105                  4.347882551769366
0.0025                    -0.0095                  4.378646313818592
0.0025                    -0.0085                  4.409135391217191
0.0025                    -0.0075                  4.43950910719777
0.0025                    -0.0065                  4.470083049877324
0.0025                    -0.0055                  4.501437151597742
0.0025                    -0.0045                  4.534566964281762
0.0025                    -0.0035                  4.57098513594975
0.0025                    -0.0025                  4.612479417695491
0.0025                    -0.0015                  4.659956797095122
0.0025                    -5.0E-4                  4.711377636368281
0.0025                    5.0E-4                   4.7605887291573605
0.0025                    0.0015                   4.799550097114512
0.0025                    0.0025                   4.824754249650928
0.0025                    0.0035                   4.8394669054712125
0.0025                    0.0045                   4.8464368064932035
0.0025                    0.0055                   4.847181623859425
0.0025                    0.0065                   4.847993850441535
0.0025                    0.0075                   4.8596969880318985
0.0025                    0.0085                   4.8851093770721805
0.0025                    0.0095                   4.911870795474269
0.0025                    0.0105                   4.930747134999539
0.0025                    0.0115                   4.943191328991184
0.0025                    0.0125                   4.9521665419160135
0.0025                    0.0135                   4.958957743701361
0.0025                    0.0145                   4.962354871227793
0.0025                    0.0155                   4.958983064459459
0.0025                    0.0165                   4.945546044093955
0.0025                    0.0175                   4.9227727097353995
0.0025                    0.0185                   4.896505851972738
0.0025                    0.0195                   4.873147833421731
0.0025                    0.0205                   4.85517760561615
0.0025                    0.0215                   4.840617013243875
0.0025                    0.0225                   4.826490157596117
0.0025                    0.0235                   4.8116729114798655
0.0025                    0.0245                   4.795345974866692
0.0025                    0.0255                   4.7758204709188625
0.0025                    0.0265                   4.751678503880926
0.0025                    0.0275                   4.723260687281673
0.0025                    0.0285                   4.69077885733775
0.0025                    0.0295                   4.655472082773474
0.0025                    0.0305                   4.622595117811308
0.0025                    0.0315                   4.601492868800088
0.0035                    -0.0315                  3.688457514276781
0.0035                    -0.0305                  3.7020275535026492
0.0035                    -0.0295                  3.725577915335757
0.0035                    -0.0285                  3.7545889597090056
0.0035                    -0.0275                  3.785887699690084
0.0035                    -0.0265                  3.817863428879528
0.0035                    -0.0255                  3.849891550552697
0.0035                    -0.0245                  3.8817984906421676
0.0035                    -0.0235                  3.913581495811514
0.0035                    -0.0225                  3.9452998047079224
0.0035                    -0.0215                  3.977032579280455
0.0035                    -0.0205                  4.008857660673838
0.0035                    -0.0195                  4.040836339056932
0.0035                    -0.0185                  4.072999200407238
0.0035                    -0.0175                  4.105333093751596
0.0035                    -0.0165                  4.137771485181901
0.0035                    -0.0155                  4.170191822763064
0.0035                    -0.0145                  4.202423274958189
0.0035                    -0.0135                  4.234265597304752
0.0035                    -0.0125                  4.265516122573668
0.0035                    -0.0115                  4.295997991573944
0.0035                    -0.0105                  4.325583969800482
0.0035                    -0.0095                  4.354216490987675
0.0035                    -0.0085                  4.381932172719077
0.0035                    -0.0075                  4.4089048513711875
0.0035                    -0.0065                  4.435521301417123
0.0035                    -0.0055                  4.462494616377019
0.0035                    -0.0045                  4.4909877183020415
0.0035                    -0.0035                  4.522673375043533
0.0035                    -0.0025                  4.559609858692818
0.0035                    -0.0015                  4.603622872072337
0.0035                    -5.0E-4                  4.6546736371583215
0.0035                    5.0E-4                   4.708788785475473
0.0035                    0.0015                   4.759229675738908
0.0035                    0.0025                   4.7988871850646015
0.0035                    0.0035                   4.825034790476252
0.0035                    0.0045                   4.838296587400526
0.0035                    0.0055                   4.842131856080325
0.0035                    0.0065                   4.846735393892729
0.0035                    0.0075                   4.860978038589926
0.0035                    0.0085                   4.883008389431864
0.0035                    0.0095                   4.903882765979365
0.0035                    0.0105                   4.919499080284545
0.0035                    0.0115                   4.931232308792973
0.0035                    0.0125                   4.940274711371392
0.0035                    0.0135                   4.9463022807228745
0.0035                    0.0145                   4.946449159254862
0.0035                    0.0155                   4.936604131377699
0.0035                    0.0165                   4.915169603118759
0.0035                    0.0175                   4.885411148406802
0.0035                    0.0185                   4.854203973098655
0.0035                    0.0195                   4.827321777735919
0.0035                    0.0205                   4.805651886293783
0.0035                    0.0215                   4.787444308435155
0.0035                    0.0225                   4.771302071652687
0.0035                    0.0235                   4.755918974358018
0.0035                    0.0245                   4.740579494013769
0.0035                    0.0255                   4.724017851365273
0.0035                    0.0265                   4.704020575087686
0.0035                    0.0275                   4.679781590846801
0.0035                    0.0285                   4.650620647353435
0.0035                    0.0295                   4.617616563976512
0.0035                    0.0305                   4.586761550982477
0.0035                    0.0315                   4.567450658327738
0.0045                    -0.0315                  3.6615167912233644
0.0045                    -0.0305                  3.6734194594065914
0.0045                    -0.0295                  3.6949346105169374
0.0045                    -0.0285                  3.7227090417947806
0.0045                    -0.0275                  3.753876086271693
0.0045                    -0.0265                  3.7864988208241277
0.0045                    -0.0255                  3.8195107837779307
0.0045                    -0.0245                  3.852446725955392
0.0045                    -0.0235                  3.885165675156757
0.0045                    -0.0225                  3.9176789354446306
0.0045                    -0.0215                  3.950064177432723
0.0045                    -0.0205                  3.982421078069943
0.0045                    -0.0195                  4.0148427175018995
0.0045                    -0.0185                  4.047391922769367
0.0045                    -0.0175                  4.080079114868766
0.0045                    -0.0165                  4.1128427921503405
0.0045                    -0.0155                  4.14553681735184
0.0045                    -0.0145                  4.1779305150638
0.0045                    -0.0135                  4.209726771804805
0.0045                    -0.0125                  4.240598665273251
0.0045                    -0.0115                  4.27023791149826
0.0045                    -0.0105                  4.298403114032921
0.0045                    -0.0095                  4.324959527347651
0.0045                    -0.0085                  4.349913912571576
0.0045                    -0.0075                  4.3734577108101
0.0045                    -0.0065                  4.396029552440714
0.0045                    -0.0055                  4.418390372688791
0.0045                    -0.0045                  4.4416798069820125
0.0045                    -0.0035                  4.467413176721798
0.0045                    -0.0025                  4.497413490031224
0.0045                    -0.0015                  4.533794747522844
0.0045                    -5.0E-4                  4.578616621947638
0.0045                    5.0E-4                   4.631795092341441
0.0045                    0.0015                   4.690373572119281
0.0045                    0.0025                   4.744926787655601
0.0045                    0.0035                   4.784534121653898
0.0045                    0.0045                   4.806475292002358
0.0045                    0.0055                   4.8172992054790384
0.0045                    0.0065                   4.829287524688273
0.0045                    0.0075                   4.848564999092105
0.0045                    0.0085                   4.870915977396346
0.0045                    0.0095                   4.8907189068328965
0.0045                    0.0105                   4.906462774628153
0.0045                    0.0115                   4.918659534045079
0.0045                    0.0125                   4.927358635215587
0.0045                    0.0135                   4.930755672839123
0.0045                    0.0145                   4.9250076112622505
0.0045                    0.0155                   4.907110960086684
0.0045                    0.0165                   4.877974999328807
0.0045                    0.0175                   4.842508962578448
0.0045                    0.0185                   4.807262529902354
0.0045                    0.0195                   4.777011696516568
0.0045                    0.0205                   4.752385203713159
0.0045                    0.0215                   4.732471588254761
0.0045                    0.0225                   4.71613876465191
0.0045                    0.0235                   4.701175902998696
0.0045                    0.0245                   4.686502278491816
0.0045                    0.0255                   4.670981434490013
0.0045                    0.0265                   4.653436956649832
0.0045                    0.0275                   4.632907962550924
0.0045                    0.0285                   4.607399789396002
0.0045                    0.0295                   4.5773659159770475
0.0045                    0.0305                   4.548655673325197
0.0045                    0.0315                   4.53064671697033
0.0055                    -0.0315                  3.633737991098544
0.0055                    -0.0305                  3.644334707282481
0.0055                    -0.0295                  3.663945596518802
0.0055                    -0.0285                  3.690026151963524
0.0055                    -0.0275                  3.7202042621575164
0.0055                    -0.0265                  3.7526124560200547
0.0055                    -0.0255                  3.785959080190602
0.0055                    -0.0245                  3.8194965996857158
0.0055                    -0.0235                  3.8528781542265884
0.0055                    -0.0225                  3.8860007204713316
0.0055                    -0.0215                  3.9188931026966864
0.0055                    -0.0205                  3.9516471518615037
0.0055                    -0.0195                  3.9843729636871648
0.0055                    -0.0185                  4.017163930966246
0.0055                    -0.0175                  4.050064762418499
0.0055                    -0.0165                  4.083040904015772
0.0055                    -0.0155                  4.115952336048821
0.0055                    -0.0145                  4.148538866492329
0.0055                    -0.0135                  4.180426799724824
0.0055                    -0.0125                  4.211165402312654
0.0055                    -0.0115                  4.240293231922664
0.0055                    -0.0105                  4.267420767093688
0.0055                    -0.0095                  4.292306402100194
0.0055                    -0.0085                  4.314910400722596
0.0055                    -0.0075                  4.335431434739147
0.0055                    -0.0065                  4.3543382889045485
0.0055                    -0.0055                  4.372397675330843
0.0055                    -0.0045                  4.3906832596456065
0.0055                    -0.0035                  4.410546123214877
0.0055                    -0.0025                  4.433585290748356
0.0055                    -0.0015                  4.461755186082664
0.0055                    -5.0E-4                  4.497703482163564
0.0055                    5.0E-4                   4.543771954479723
0.0055                    0.0015                   4.60186876412265
0.0055                    0.0025                   4.664075148788857
0.0055                    0.0035                   4.7155594600081105
0.0055                    0.0045                   4.750604554970461
0.0055                    0.0055                   4.775323697366347
0.0055                    0.0065                   4.799817494533016
0.0055                    0.0075                   4.826717258644764
0.0055                    0.0085                   4.852311826458182
0.0055                    0.0095                   4.873915452932581
0.0055                    0.0105                   4.891077151514091
0.0055                    0.0115                   4.9032575497932
0.0055                    0.0125                   4.909290469380598
0.0055                    0.0135                   4.90673482653368
0.0055                    0.0145                   4.892645980516715
0.0055                    0.0155                   4.8664891753999315
0.0055                    0.0165                   4.831089982008107
0.0055                    0.0175                   4.79157630728079
0.0055                    0.0185                   4.753602831487388
0.0055                    0.0195                   4.721564727858524
0.0055                    0.0205                   4.696430287605349
0.0055                    0.0215                   4.6767091649723564
0.0055                    0.0225                   4.660310928818493
0.0055                    0.0235                   4.645619989331928
0.0055                    0.0245                   4.632201332697818
0.0055                    0.0255                   4.618918584566059
0.0055                    0.0265                   4.6044531648539415
0.0055                    0.0275                   4.586749728743727
0.0055                    0.0285                   4.563525656900296
0.0055                    0.0295                   4.535508019592993
0.0055                    0.0305                   4.508299130780291
0.0055                    0.0315                   4.491140480659556
0.0065                    -0.0315                  3.6053294275816743
0.0065                    -0.0305                  3.614880232857431
0.0065                    -0.0295                  3.6328340082666175
0.0065                    -0.0285                  3.6571719546832817
0.0065                    -0.0275                  3.6859406255074303
0.0065                    -0.0265                  3.7174940735182336
0.0065                    -0.0255                  3.7505322839342328
0.0065                    -0.0245                  3.7841478676944607
0.0065                    -0.0235                  3.8178031255800344
0.0065                    -0.0225                  3.8512459341302625
0.0065                    -0.0215                  3.8844138178355196
0.0065                    -0.0205                  3.9173563860293634
0.0065                    -0.0195                  3.9501783346179735
0.0065                    -0.0185                  3.9829945265014763
0.0065                    -0.0175                  4.015889441051673
0.0065                    -0.0165                  4.048876956371431
0.0065                    -0.0155                  4.081860673703929
0.0065                    -0.0145                  4.114600245838744
0.0065                    -0.0135                  4.146695452889745
0.0065                    -0.0125                  4.177604600581326
0.0065                    -0.0115                  4.206711342930968
0.0065                    -0.0105                  4.233438107341797
0.0065                    -0.0095                  4.257377213353813
0.0065                    -0.0085                  4.278392703348495
0.0065                    -0.0075                  4.296665461434992
0.0065                    -0.0065                  4.3126984365196614
0.0065                    -0.0055                  4.327310193499862
0.0065                    -0.0045                  4.341620135255831
0.0065                    -0.0035                  4.357025322893029
0.0065                    -0.0025                  4.37516607334212
0.0065                    -0.0015                  4.3979554951145925
0.0065                    -5.0E-4                  4.427341536391779
0.0065                    5.0E-4                   4.4655073988528216
0.0065                    0.0015                   4.515505256658642
0.0065                    0.0025                   4.574386187840725
0.0065                    0.0035                   4.632264608921087
0.0065                    0.0045                   4.6816490192137605
0.0065                    0.0055                   4.723767321808378
0.0065                    0.0065                   4.7625494571881895
0.0065                    0.0075                   4.797548358521135
0.0065                    0.0085                   4.827556869220356
0.0065                    0.0095                   4.851490988809295
0.0065                    0.0105                   4.868657720744866
0.0065                    0.0115                   4.878193399633691
0.0065                    0.0125                   4.878441575472566