% Model:              Benchmark260518.mph
% Version:            COMSOL 6.2.0.339
% Date:               May 19 2026, 22:53
% Dimension:          2
% Nodes:              4096
% Expressions:        1
% Description:        压力
% Length unit:        m
% x                       y                        p (Pa)
% mirrored_by_python_y_to_minus_y, coord_match_decimals=12
0.0005 -0.0315 4.02880217703
0.0005 -0.0305 4.06985846898
0.0005 -0.0295 4.12570378048
0.0005 -0.0285 4.18627590086
0.0005 -0.0275 4.24952766631
0.0005 -0.0265 4.31487405785
0.0005 -0.0255 4.38209718706
0.0005 -0.0245 4.45122325601
0.0005 -0.0235 4.5223148689
0.0005 -0.0225 4.59543799976
0.0005 -0.0215 4.67057323613
0.0005 -0.0205 4.74772143625
0.0005 -0.0195 4.82561666937
0.0005 -0.0185 4.89920292672
0.0005 -0.0175 4.96149908043
0.0005 -0.0165 5.00465353774
0.0005 -0.0155 5.0267143624
0.0005 -0.0145 5.03410605578
0.0005 -0.0135 5.03289778931
0.0005 -0.0125 5.02664921243
0.0005 -0.0115 5.01678985771
0.0005 -0.0105 5.00667767492
0.0005 -0.0095 5.00334530262
0.0005 -0.0085 5.00808300183
0.0005 -0.0075 5.00725402335
0.0005 -0.0065 4.97718653268
0.0005 -0.0055 4.90610406543
0.0005 -0.0045 4.81204015745
0.0005 -0.0035 4.72443704302
0.0005 -0.0025 4.66510162696
0.0005 -0.0015 4.72219884206
0.0005 -0.0005 4.91738792858
0.0005 0.0005 4.89395245804
0.0005 0.0015 4.66993259462
0.0005 0.0025 4.59106568794
0.0005 0.0035 4.61552140103
0.0005 0.0045 4.68203134896
0.0005 0.0055 4.78428766216
0.0005 0.0065 4.89365836714
0.0005 0.0075 4.98141886901
0.0005 0.0085 5.02902475272
0.0005 0.0095 5.04246583636
0.0005 0.0105 5.04321772037
0.0005 0.0115 5.04745229938
0.0005 0.0125 5.05717637078
0.0005 0.0135 5.0672331972
0.0005 0.0145 5.07448043969
0.0005 0.0155 5.07731342576
0.0005 0.0165 5.07245647267
0.0005 0.0175 5.05570108852
0.0005 0.0185 5.02349041359
0.0005 0.0195 4.9784193827
0.0005 0.0205 4.92678855286
0.0005 0.0215 4.87323763332
0.0005 0.0225 4.82083346859
0.0005 0.0235 4.77006764948
0.0005 0.0245 4.72042349325
0.0005 0.0255 4.67153628991
0.0005 0.0265 4.62328520046
0.0005 0.0275 4.57578010926
0.0005 0.0285 4.52940919267
0.0005 0.0295 4.48481357953
0.0005 0.0305 4.44364613989
0.0005 0.0315 4.41338644587
0.0015 -0.0315 3.98755445565
0.0015 -0.0305 4.02906746538
0.0015 -0.0295 4.08938095465
0.0015 -0.0285 4.15484791258
0.0015 -0.0275 4.22167179525
0.0015 -0.0265 4.28918985441
0.0015 -0.0255 4.35762434406
0.0015 -0.0245 4.42754267263
0.0015 -0.0235 4.49959645464
0.0015 -0.0225 4.57436933819
0.0015 -0.0215 4.65239114586
0.0015 -0.0205 4.7337494213
0.0015 -0.0195 4.81660421946
0.0015 -0.0185 4.89514123854
0.0015 -0.0175 4.96137280617
0.0015 -0.0165 5.00609545582
0.0015 -0.0155 5.02911200358
0.0015 -0.0145 5.03810689743
0.0015 -0.0135 5.0364686615
0.0015 -0.0125 5.02564641778
0.0015 -0.0115 5.00667849586
0.0015 -0.0105 4.98436153118
0.0015 -0.0095 4.96831759362
0.0015 -0.0085 4.96335030045
0.0015 -0.0075 4.95996046974
0.0015 -0.0065 4.93696327483
0.0015 -0.0055 4.87988957717
0.0015 -0.0045 4.79904050554
0.0015 -0.0035 4.72737523882
0.0015 -0.0025 4.72613290543
0.0015 -0.0015 4.99130528719
0.0015 -0.0005 5.38667195983
0.0015 0.0005 5.34029478084
0.0015 0.0015 4.88671636301
0.0015 0.0025 4.61043139641
0.0015 0.0035 4.60231356289
0.0015 0.0045 4.6630297452
0.0015 0.0055 4.75960496108
0.0015 0.0065 4.86214047482
0.0015 0.0075 4.94009925263
0.0015 0.0085 4.98109999729
0.0015 0.0095 4.99594017191
0.0015 0.0105 5.00525172646
0.0015 0.0115 5.02189573128
0.0015 0.0125 5.04452680151
0.0015 0.0135 5.0648307843
0.0015 0.0145 5.07775948181
0.0015 0.0155 5.08150221515
0.0015 0.0165 5.07395868663
0.0015 0.0175 5.05364936092
0.0015 0.0185 5.01744681307
0.0015 0.0195 4.9687648107
0.0015 0.0205 4.91564590347
0.0015 0.0215 4.86198406739
0.0015 0.0225 4.80998843935
0.0015 0.0235 4.75945707189
0.0015 0.0245 4.70946128834
0.0015 0.0255 4.65934727587
0.0015 0.0265 4.60892852883
0.0015 0.0275 4.55836877857
0.0015 0.0285 4.50808252084
0.0015 0.0295 4.45895005929
0.0015 0.0305 4.41393944946
0.0015 0.0315 4.38309264432
0.0025 -0.0315 3.93091324077
0.0025 -0.0305 3.96920964687
0.0025 -0.0295 4.03049780311
0.0025 -0.0285 4.1003831666
0.0025 -0.0275 4.17183024564
0.0025 -0.0265 4.24268853702
0.0025 -0.0255 4.31308157234
0.0025 -0.0245 4.3841780358
0.0025 -0.0235 4.45753101612
0.0025 -0.0225 4.53456384728
0.0025 -0.0215 4.61614048224
0.0025 -0.0205 4.7019767916
0.0025 -0.0195 4.78936499492
0.0025 -0.0185 4.87178228538
0.0025 -0.0175 4.94182052133
0.0025 -0.0165 4.99196728074
0.0025 -0.0155 5.02283361086
0.0025 -0.0145 5.03666588874
0.0025 -0.0135 5.02760035394
0.0025 -0.0125 4.9955284511
0.0025 -0.0115 4.94971360931
0.0025 -0.0105 4.90303179494
0.0025 -0.0095 4.86731850494
0.0025 -0.0085 4.84950966459
0.0025 -0.0075 4.84715387877
0.0025 -0.0065 4.85006391208
0.0025 -0.0055 4.84974854696
0.0025 -0.0045 4.85396059124
0.0025 -0.0035 4.91859180929
0.0025 -0.0025 5.16018640268
0.0025 -0.0015 5.70316828754
0.0025 -0.0005 6.20880682001
0.0025 0.0005 6.13196858573
0.0025 0.0015 5.51885183265
0.0025 0.0025 4.96390321791
0.0025 0.0035 4.75851611201
0.0025 0.0045 4.72853204094
0.0025 0.0055 4.76580535538
0.0025 0.0065 4.81240532544
0.0025 0.0075 4.84325873734
0.0025 0.0085 4.85768494318
0.0025 0.0095 4.86840005889
0.0025 0.0105 4.88891155561
0.0025 0.0115 4.92514658034
0.0025 0.0125 4.97377907193
0.0025 0.0135 5.02434439118
0.0025 0.0145 5.06315384822
0.0025 0.0155 5.07813340992
0.0025 0.0165 5.06627269848
0.0025 0.0175 5.03511016934
0.0025 0.0185 4.99137224678
0.0025 0.0195 4.94081731225
0.0025 0.0205 4.88930356212
0.0025 0.0215 4.83870465506
0.0025 0.0225 4.78925397429
0.0025 0.0235 4.73977860384
0.0025 0.0245 4.6890993173
0.0025 0.0255 4.63661654287
0.0025 0.0265 4.58236469834
0.0025 0.0275 4.52684324518
0.0025 0.0285 4.47102769233
0.0025 0.0295 4.41710011807
0.0025 0.0305 4.37041482285
0.0025 0.0315 4.34146758324
0.0035 -0.0315 3.8688708201
0.0035 -0.0305 3.90334625373
0.0035 -0.0295 3.96225513023
0.0035 -0.0285 4.0334724052
0.0035 -0.0275 4.10843826795
0.0035 -0.0265 4.18287467756
0.0035 -0.0255 4.25575285412
0.0035 -0.0245 4.32817789783
0.0035 -0.0235 4.40245509035
0.0035 -0.0225 4.48095251411
0.0035 -0.0215 4.56483000712
0.0035 -0.0205 4.65293764242
0.0035 -0.0195 4.74133637514
0.0035 -0.0185 4.82381599487
0.0035 -0.0175 4.89520597004
0.0035 -0.0165 4.95229062697
0.0035 -0.0155 4.99253928231
0.0035 -0.0145 5.00557038529
0.0035 -0.0135 4.97886255393
0.0035 -0.0125 4.91792823472
0.0035 -0.0115 4.84329265199
0.0035 -0.0105 4.7768672481
0.0035 -0.0095 4.7332470318
0.0035 -0.0085 4.71615452567
0.0035 -0.0075 4.72360270899
0.0035 -0.0065 4.7573454982
0.0035 -0.0055 4.83032009625
0.0035 -0.0045 4.98464155406
0.0035 -0.0035 5.31490205794
0.0035 -0.0025 5.88995617761
0.0035 -0.0015 6.59964226374
0.0035 -0.0005 7.07030078358
0.0035 0.0005 6.98714133588
0.0035 0.0015 6.40585996678
0.0035 0.0025 5.71394184403
0.0035 0.0035 5.2324920732
0.0035 0.0045 4.96729650175
0.0035 0.0055 4.83186416526
0.0035 0.0065 4.75896090814
0.0035 0.0075 4.71881996983
0.0035 0.0085 4.69927764943
0.0035 0.0095 4.69797426263
0.0035 0.0105 4.71937770574
0.0035 0.0115 4.76709365198
0.0035 0.0125 4.83856894955
0.0035 0.0135 4.92185422627
0.0035 0.0145 4.99584545035
0.0035 0.0155 5.03626212422
0.0035 0.0165 5.0306507068
0.0035 0.0175 4.99117716706
0.0035 0.0185 4.94158322089
0.0035 0.0195 4.89374640809
0.0035 0.0205 4.84889394149
0.0035 0.0215 4.80556238806
0.0035 0.0225 4.7610707709
0.0035 0.0235 4.71345468488
0.0035 0.0245 4.66175442899
0.0035 0.0255 4.60603151217
0.0035 0.0265 4.54705269242
0.0035 0.0275 4.48612071959
0.0035 0.0285 4.42538691701
0.0035 0.0295 4.36870892922
0.0035 0.0305 4.32258047708
0.0035 0.0315 4.29582810715
0.0045 -0.0315 3.80356562543
0.0045 -0.0305 3.83486500713
0.0045 -0.0295 3.89055093089
0.0045 -0.0285 3.96103400311
0.0045 -0.0275 4.03812318332
0.0045 -0.0265 4.11619243245
0.0045 -0.0255 4.19243407181
0.0045 -0.0245 4.2667983467
0.0045 -0.0235 4.3415033049
0.0045 -0.0225 4.41987308251
0.0045 -0.0215 4.50399666351
0.0045 -0.0205 4.5923870966
0.0045 -0.0195 4.67949426899
0.0045 -0.0185 4.75874203133
0.0045 -0.0175 4.82693795849
0.0045 -0.0165 4.88511139375
0.0045 -0.0155 4.92742162041
0.0045 -0.0145 4.93357019894
0.0045 -0.0135 4.89073564623
0.0045 -0.0125 4.81283381341
0.0045 -0.0115 4.73081246047
0.0045 -0.0105 4.67168164464
0.0045 -0.0095 4.64379911377
0.0045 -0.0085 4.64126055447
0.0045 -0.0075 4.66061173653
0.0045 -0.0065 4.71257635378
0.0045 -0.0055 4.83121335157
0.0045 -0.0045 5.0984453631
0.0045 -0.0035 5.63876092154
0.0045 -0.0025 6.43164762915
0.0045 -0.0015 7.18362355968
0.0045 -0.0005 7.58236896446
0.0045 0.0005 7.53416050517
0.0045 0.0015 7.09532050599
0.0045 0.0025 6.43260072453
0.0045 0.0035 5.76579161745
0.0045 0.0045 5.24432589996
0.0045 0.0055 4.91249368403
0.0045 0.0065 4.73098005971
0.0045 0.0075 4.64066885182
0.0045 0.0085 4.59796497755
0.0045 0.0095 4.58224090966
0.0045 0.0105 4.58866799126
0.0045 0.0115 4.62169151734
0.0045 0.0125 4.68765895867
0.0045 0.0135 4.78084917278
0.0045 0.0145 4.8768430549
0.0045 0.0155 4.94245487738
0.0045 0.0165 4.95510300938
0.0045 0.0175 4.92326496883
0.0045 0.0185 4.87752866181
0.0045 0.0195 4.83668118039
0.0045 0.0205 4.80133787849
0.0045 0.0215 4.7668210355
0.0045 0.0225 4.72815044728
0.0045 0.0235 4.68245584737
0.0045 0.0245 4.6293293726
0.0045 0.0255 4.56991520103
0.0045 0.0265 4.50608925083
0.0045 0.0275 4.44030438011
0.0045 0.0285 4.37602139098
0.0045 0.0295 4.31813187118
0.0045 0.0305 4.27299414905
0.0045 0.0315 4.24779178238
0.0055 -0.0315 3.73563401203
0.0055 -0.0305 3.76416542968
0.0055 -0.0295 3.81658811109
0.0055 -0.0285 3.88568068498
0.0055 -0.0275 3.96440870871
0.0055 -0.0265 4.04669469118
0.0055 -0.0255 4.12798679198
0.0055 -0.0245 4.2060643527
0.0055 -0.0235 4.28191747303
0.0055 -0.0225 4.35902478128
0.0055 -0.0215 4.44131914539
0.0055 -0.0205 4.52912033231
0.0055 -0.0195 4.61567325296
0.0055 -0.0185 4.69147342087
0.0055 -0.0175 4.7537341677
0.0055 -0.0165 4.80593516974
0.0055 -0.0155 4.84313506598
0.0055 -0.0145 4.84421665225
0.0055 -0.0135 4.79592975782
0.0055 -0.0125 4.71970235903
0.0055 -0.0115 4.65457658077
0.0055 -0.0105 4.62110667487
0.0055 -0.0095 4.61367526175
0.0055 -0.0085 4.62224249479
0.0055 -0.0075 4.64894062793
0.0055 -0.0065 4.71238699709
0.0055 -0.0055 4.86287814744
0.0055 -0.0045 5.2000472483
0.0055 -0.0035 5.82182235163
0.0055 -0.0025 6.63339775099
0.0055 -0.0015 7.3153685302
0.0055 -0.0005 7.65268638445
0.0055 0.0005 7.64948531125
0.0055 0.0015 7.34543739749
0.0055 0.0025 6.77641745017
0.0055 0.0035 6.06423174401
0.0055 0.0045 5.4210537763
0.0055 0.0055 4.98442001307
0.0055 0.0065 4.74505805887
0.0055 0.0075 4.62923981701
0.0055 0.0085 4.57360584637
0.0055 0.0095 4.54772564476
0.0055 0.0105 4.53849743168
0.0055 0.0115 4.54547385644
0.0055 0.0125 4.58002704516
0.0055 0.0135 4.65113129784
0.0055 0.0145 4.74443929301
0.0055 0.0155 4.82306049146
0.0055 0.0165 4.85646604355
0.0055 0.0175 4.84501001555
0.0055 0.0185 4.81291082448
0.0055 0.0195 4.78160490457
0.0055 0.0205 4.75471008903
0.0055 0.0215 4.72689384269
0.0055 0.0225 4.69259769138
0.0055 0.0235 4.64804762558
0.0055 0.0245 4.59308002078
0.0055 0.0255 4.52994643257
0.0055 0.0265 4.46166987244
0.0055 0.0275 4.39191657822
0.0055 0.0285 4.32515186697
0.0055 0.0295 4.26661150254
0.0055 0.0305 4.22215161706
0.0055 0.0315 4.19783509687
0.0065 -0.0315 3.66546391067
0.0065 -0.0305 3.69100223129
0.0065 -0.0295 3.73982205959
0.0065 -0.0285 3.80735075997
0.0065 -0.0275 3.8880476987
0.0065 -0.0265 3.97575355253
0.0065 -0.0255 4.0642985205
0.0065 -0.0245 4.14894053149
0.0065 -0.0235 4.22792470184
0.0065 -0.0225 4.30367703466
0.0065 -0.0215 4.38343663829
0.0065 -0.0205 4.47131899401
0.0065 -0.0195 4.55974983422
0.0065 -0.0185 4.63535837933
0.0065 -0.0175 4.6940471551
0.0065 -0.0165 4.74184444518
0.0065 -0.0155 4.77652677261
0.0065 -0.0145 4.77575733332
0.0065 -0.0135 4.72769762683
0.0065 -0.0125 4.66304569824
0.0065 -0.0115 4.62026195332
0.0065 -0.0105 4.60578895652
0.0065 -0.0095 4.60701977618
0.0065 -0.0085 4.61840255966
0.0065 -0.0075 4.64922851565
0.0065 -0.0065 4.72698893086
0.0065 -0.0055 4.91448580016
0.0065 -0.0045 5.30199161645
0.0065 -0.0035 5.92080892472
0.0065 -0.0025 6.63618588752
0.0065 -0.0015 7.20326975877
0.0065 -0.0005 7.48712477627
0.0065 0.0005 7.50382382437
0.0065 0.0015 7.28245569042
0.0065 0.0025 6.82246433388
0.0065 0.0035 6.18188000955
0.0065 0.0045 5.53726808249
0.0065 0.0055 5.05723364101
0.0065 0.0065 4.77895660692
0.0065 0.0075 4.64150023113
0.0065 0.0085 4.57594695898
0.0065 0.0095 4.54464699536
0.0065 0.0105 4.52943886888
0.0065 0.0115 4.52388429573
0.0065 0.0125 4.53228474788
0.0065 0.0135 4.56864244801
0.0065 0.0145 4.63717133614
0.0065 0.0155 4.71326405802
0.0065 0.0165 4.76174613969
0.0065 0.0175 4.77081671009
0.0065 0.0185 4.75519760541
0.0065 0.0195 4.73357904598
0.0065 0.0205 4.71265197946
0.0065 0.0215 4.68840416575
0.0065 0.0225 4.65566973225
0.0065 0.0235 4.61102852587
0.0065 0.0245 4.55389708785
0.0065 0.0255 4.48716935784
0.0065 0.0265 4.41496731116
0.0065 0.0275 4.34204614812
0.0065 0.0285 4.27345813049
0.0065 0.0295 4.21437354887
0.0065 0.0305 4.17013848367
0.0065 0.0315 4.14617540012
0.0075 -0.0315 3.5933038481
0.0075 -0.0305 3.61516022248
0.0075 -0.0295 3.6595884761
0.0075 -0.0285 3.72520203037
0.0075 -0.0275 3.80826457518
0.0075 -0.0265 3.90251304871
0.0075 -0.0255 3.99999665309
0.0075 -0.0245 4.09329275511
0.0075 -0.0235 4.17794874009
0.0075 -0.0225 4.25584258016
0.0075 -0.0215 4.33610014107
0.0075 -0.0205 4.42525057597
0.0075 -0.0195 4.51677752754
0.0075 -0.0185 4.59668471873
0.0075 -0.0175 4.66102980347
0.0075 -0.0165 4.71680953033
0.0075 -0.0155 4.75605025342
0.0075 -0.0145 4.75050695385
0.0075 -0.0135 4.69797507778
0.0075 -0.0125 4.63951390352
0.0075 -0.0115 4.6087485043
0.0075 -0.0105 4.6020960015
0.0075 -0.0095 4.60450620549
0.0075 -0.0085 4.61425310107
0.0075 -0.0075 4.64784688035
0.0075 -0.0065 4.7444653387
0.0075 -0.0055 4.96546035244
0.0075 -0.0045 5.36258907956
0.0075 -0.0035 5.91606261405
0.0075 -0.0025 6.50858034586
0.0075 -0.0015 6.97785928493
0.0075 -0.0005 7.22826496652
0.0075 0.0005 7.2586569641
0.0075 0.0015 7.08681500873
0.0075 0.0025 6.71726551602
0.0075 0.0035 6.18573839421
0.0075 0.0045 5.61020522923
0.0075 0.0055 5.13516306373
0.0075 0.0065 4.82657509789
0.0075 0.0075 4.65981233985
0.0075 0.0085 4.57965132238
0.0075 0.0095 4.54277845251
0.0075 0.0105 4.52524808731
0.0075 0.0115 4.5167943439
0.0075 0.0125 4.51526162683
0.0075 0.0135 4.52877572613
0.0075 0.0145 4.56929858475
0.0075 0.0155 4.63135939573
0.0075 0.0165 4.68443103463
0.0075 0.0175 4.70722541053
0.0075 0.0185 4.70479298851
0.0075 0.0195 4.69043858656
0.0075 0.0205 4.67315300256
0.0075 0.0215 4.65075191039
0.0075 0.0225 4.61808967147
0.0075 0.0235 4.57220177186
0.0075 0.0245 4.51235323697
0.0075 0.0255 4.44194476195
0.0075 0.0265 4.36629025023
0.0075 0.0275 4.29097356684
0.0075 0.0285 4.22112024982
0.0075 0.0295 4.16148611084
0.0075 0.0305 4.11697268711
0.0075 0.0315 4.09282746429
0.0085 -0.0315 3.51934244119
0.0085 -0.0305 3.53693350635
0.0085 -0.0295 3.57631777576
0.0085 -0.0285 3.63944507337
0.0085 -0.0275 3.72451166171
0.0085 -0.0265 3.8250484699
0.0085 -0.0255 3.93120429955
0.0085 -0.0245 4.03318184695
0.0085 -0.0235 4.12557754942
0.0085 -0.0225 4.21091983302
0.0085 -0.0215 4.296757396
0.0085 -0.0205 4.3891633981
0.0085 -0.0195 4.48587600225
0.0085 -0.0185 4.57867289201
0.0085 -0.0175 4.66507861773
0.0085 -0.0165 4.74175963117
0.0085 -0.0155 4.78475057334
0.0085 -0.0145 4.76651582237
0.0085 -0.0135 4.70020685682
0.0085 -0.0125 4.63636740952
0.0085 -0.0115 4.60683411918
0.0085 -0.0105 4.6014567492
0.0085 -0.0095 4.60233411486
0.0085 -0.0085 4.60883530916
0.0085 -0.0075 4.64364082626
0.0085 -0.0065 4.75338278812
0.0085 -0.0055 4.98530859943
0.0085 -0.0045 5.35265402232
0.0085 -0.0035 5.81414221095
0.0085 -0.0025 6.28330996435
0.0085 -0.0015 6.66526128078
0.0085 -0.0005 6.89395203434
0.0085 0.0005 6.94099204733
0.0085 0.0015 6.80451305103
0.0085 0.0025 6.50238655421
0.0085 0.0035 6.07838921515
0.0085 0.0045 5.61091156845
0.0085 0.0055 5.19056845937
0.0085 0.0065 4.87791259841
0.0085 0.0075 4.68475423604
0.0085 0.0085 4.58442698811
0.0085 0.0095 4.53871807883
0.0085 0.0105 4.51934321948
0.0085 0.0115 4.51081051706
0.0085 0.0125 4.50694127265
0.0085 0.0135 4.51025791072
0.0085 0.0145 4.53228829629
0.0085 0.0155 4.57805423021
0.0085 0.0165 4.62754528325
0.0085 0.0175 4.65615497488
0.0085 0.0185 4.6602522556
0.0085 0.0195 4.65008430259
0.0085 0.0205 4.63469362897
0.0085 0.0215 4.61358826394
0.0085 0.0225 4.58076462287
0.0085 0.0235 4.53235930128
0.0085 0.0245 4.46860186506
0.0085 0.0255 4.39413752795
0.0085 0.0265 4.31565362633
0.0085 0.0275 4.23890005599
0.0085 0.0285 4.16832990968
0.0085 0.0295 4.1079803627
0.0085 0.0305 4.06252132029
0.0085 0.0315 4.0375777666
0.0095 -0.0315 3.44448846031
0.0095 -0.0305 3.45792285319
0.0095 -0.0295 3.49244547941
0.0095 -0.0285 3.55295418029
0.0095 -0.0275 3.63804633482
0.0095 -0.0265 3.74177615948
0.0095 -0.0255 3.85381119029
0.0095 -0.0245 3.96281807094
0.0095 -0.0235 4.06364379107
0.0095 -0.0225 4.15705416099
0.0095 -0.0215 4.2484009927
0.0095 -0.0205 4.34592704935
0.0095 -0.0195 4.45492384922
0.0095 -0.0185 4.57415005714
0.0095 -0.0175 4.69533487419
0.0095 -0.0165 4.79530786868
0.0095 -0.0155 4.83720507741
0.0095 -0.0145 4.80217592135
0.0095 -0.0135 4.71814950009
0.0095 -0.0125 4.64292851157
0.0095 -0.0115 4.60868858932
0.0095 -0.0105 4.60104403275
0.0095 -0.0095 4.59883038416
0.0095 -0.0085 4.60128287384
0.0095 -0.0075 4.63301367591
0.0095 -0.0065 4.73885494688
0.0095 -0.0055 4.95136055854
0.0095 -0.0045 5.26363063237
0.0095 -0.0035 5.6333873977
0.0095 -0.0025 6.00107063851
0.0095 -0.0015 6.3067658568
0.0095 -0.0005 6.50146254
0.0095 0.0005 6.55292954659
0.0095 0.0015 6.45301117763
0.0095 0.0025 6.22107846585
0.0095 0.0035 5.89766716423
0.0095 0.0045 5.53490658317
0.0095 0.0055 5.18792310817
0.0095 0.0065 4.90295106676
0.0095 0.0075 4.70408385822
0.0095 0.0085 4.58777728884
0.0095 0.0095 4.53190517111
0.0095 0.0105 4.51024981953
0.0095 0.0115 4.50279973022
0.0095 0.0125 4.49941387028
0.0095 0.0135 4.49949366805
0.0095 0.0145 4.51235948462
0.0095 0.0155 4.54651199342
0.0095 0.0165 4.5913160117
0.0095 0.0175 4.61996985075
0.0095 0.0185 4.6238062087
0.0095 0.0195 4.61465158657
0.0095 0.0205 4.60016580238
0.0095 0.0215 4.57960097497
0.0095 0.0225 4.54516684839
0.0095 0.0235 4.49190466359
0.0095 0.0245 4.42248227738
0.0095 0.0255 4.34387404065
0.0095 0.0265 4.263608834
0.0095 0.0275 4.18638460547
0.0095 0.0285 4.11520791108
0.0095 0.0295 4.05349191659
0.0095 0.0305 4.00622795982
0.0095 0.0315 3.9799601577
0.0105 -0.0315 3.37120979937
0.0105 -0.0305 3.3816613083
0.0105 -0.0295 3.41277081304
0.0105 -0.0285 3.46989928918
0.0105 -0.0275 3.55138545728
0.0105 -0.0265 3.65326966603
0.0105 -0.0255 3.76697645745
0.0105 -0.0245 3.88016300337
0.0105 -0.0235 3.98621627589
0.0105 -0.0225 4.08312048091
0.0105 -0.0215 4.17707952041
0.0105 -0.0205 4.28263419994
0.0105 -0.0195 4.41118566311
0.0105 -0.0185 4.56046736805
0.0105 -0.0175 4.71081252983
0.0105 -0.0165 4.82552903297
0.0105 -0.0155 4.86461045124
0.0105 -0.0145 4.81781450095
0.0105 -0.0135 4.72501357945
0.0105 -0.0125 4.64609580854
0.0105 -0.0115 4.60888808378
0.0105 -0.0105 4.59791595369
0.0105 -0.0095 4.59142180934
0.0105 -0.0085 4.58838098995
0.0105 -0.0075 4.61089524931
0.0105 -0.0065 4.69669213117
0.0105 -0.0055 4.86925610738
0.0105 -0.0045 5.11793022394
0.0105 -0.0035 5.40658205573
0.0105 -0.0025 5.69060445566
0.0105 -0.0015 5.92739609992
0.0105 -0.0005 6.08123520007
0.0105 0.0005 6.12869249301
0.0105 0.0015 6.06382814196
0.0105 0.0025 5.89949942823
0.0105 0.0035 5.66353267963
0.0105 0.0045 5.39129114099
0.0105 0.0055 5.11931430582
0.0105 0.0065 4.88069331367
0.0105 0.0075 4.69865006749
0.0105 0.0085 4.58129121441
0.0105 0.0095 4.52097303982
0.0105 0.0105 4.49849198129
0.0105 0.0115 4.4929846136
0.0105 0.0125 4.49143721111
0.0105 0.0135 4.49148833755
0.0105 0.0145 4.50118170355
0.0105 0.0155 4.53156203189
0.0105 0.0165 4.57630074783
0.0105 0.0175 4.60413078277
0.0105 0.0185 4.60289990212
0.0105 0.0195 4.58949207683
0.0105 0.0205 4.57319374386
0.0105 0.0215 4.55046460459
0.0105 0.0225 4.51131532311
0.0105 0.0235 4.45046366664
0.0105 0.0245 4.37407230403
0.0105 0.0255 4.29242446112
0.0105 0.0265 4.2116226646
0.0105 0.0275 4.13396297711
0.0105 0.0285 4.06109892195
0.0105 0.0295 3.9966220086
0.0105 0.0305 3.94690591722
0.0105 0.0315 3.91937694521
0.0115 -0.0315 3.30371482551
0.0115 -0.0305 3.31246693478
0.0115 -0.0295 3.34170934438
0.0115 -0.0285 3.39536989479
0.0115 -0.0275 3.47113626152
0.0115 -0.0265 3.56612773803
0.0115 -0.0255 3.67523427868
0.0115 -0.0245 3.78814895281
0.0115 -0.0235 3.89611588836
0.0115 -0.0225 3.99652201053
0.0115 -0.0215 4.09680232959
0.0115 -0.0205 4.21291683529
0.0115 -0.0195 4.35782585197
0.0115 -0.0185 4.52455763161
0.0115 -0.0175 4.68383534921
0.0115 -0.0165 4.79584036977
0.0115 -0.0155 4.82658817121
0.0115 -0.0145 4.77706854846
0.0115 -0.0135 4.69399316281
0.0115 -0.0125 4.62856271747
0.0115 -0.0115 4.59745637805
0.0115 -0.0105 4.58606789749
0.0115 -0.0095 4.57611787475
0.0115 -0.0085 4.5671564436
0.0115 -0.0075 4.57696801878
0.0115 -0.0065 4.63521862553
0.0115 -0.0055 4.76129295931
0.0115 -0.0045 4.94721252925
0.0115 -0.0035 5.16434210798
0.0115 -0.0025 5.37722791178
0.0115 -0.0015 5.55373603456
0.0115 -0.0005 5.6693393325
0.0115 0.0005 5.70954925973
0.0115 0.0015 5.67090879443
0.0115 0.0025 5.5607925562
0.0115 0.0035 5.39589815769
0.0115 0.0045 5.19904206497
0.0115 0.0055 4.99533876917
0.0115 0.0065 4.80872369011
0.0115 0.0075 4.65878983194
0.0115 0.0085 4.5569320879
0.0115 0.0095 4.50289171693
0.0115 0.0105 4.48429986868
0.0115 0.0115 4.48237775702
0.0115 0.0125 4.48348410253
0.0115 0.0135 4.48497290187
0.0115 0.0145 4.49573996704
0.0115 0.0155 4.53065055125
0.0115 0.0165 4.58349030788
0.0115 0.0175 4.61613181679
0.0115 0.0185 4.60903507591
0.0115 0.0195 4.58323610255
0.0115 0.0205 4.55731616572
0.0115 0.0215 4.52682706345
0.0115 0.0225 4.47844712312
0.0115 0.0235 4.40707617742
0.0115 0.0245 4.32299032672
0.0115 0.0255 4.23995498697
0.0115 0.0265 4.16011409036
0.0115 0.0275 4.08070604062
0.0115 0.0285 4.00346355367
0.0115 0.0295 3.93479142118
0.0115 0.0305 3.8830875635
0.0115 0.0315 3.85529379625
0.0125 -0.0315 3.24687401883
0.0125 -0.0305 3.25551228564
0.0125 -0.0295 3.28387268371
0.0125 -0.0285 3.33334945098
0.0125 -0.0275 3.40165093993
0.0125 -0.0265 3.48627872996
0.0125 -0.0255 3.58552907559
0.0125 -0.0245 3.69434621973
0.0125 -0.0235 3.80570031162
0.0125 -0.0225 3.91483468686
0.0125 -0.0215 4.0237893742
0.0125 -0.0205 4.14629181841
0.0125 -0.0195 4.29702753552
0.0125 -0.0185 4.46619526749
0.0125 -0.0175 4.61848983473
0.0125 -0.0165 4.71529364648
0.0125 -0.0155 4.73361526015
0.0125 -0.0145 4.68883890631
0.0125 -0.0135 4.62691495404
0.0125 -0.0125 4.58320390195
0.0125 -0.0115 4.5648828948
0.0125 -0.0105 4.55872248025
0.0125 -0.0095 4.54947973263
0.0125 -0.0085 4.5372721804
0.0125 -0.0075 4.53619827025
0.0125 -0.0065 4.56804056232
0.0125 -0.0055 4.64954764816
0.0125 -0.0045 4.77752569557
0.0125 -0.0035 4.93084466391
0.0125 -0.0025 5.08191861889
0.0125 -0.0015 5.20671819685
0.0125 -0.0005 5.2887739185
0.0125 0.0005 5.31961838843
0.0125 0.0015 5.29742464769
0.0125 0.0025 5.22622621004
0.0125 0.0035 5.11565134185
0.0125 0.0045 4.97967100069
0.0125 0.0055 4.83507856515
0.0125 0.0065 4.69949619978
0.0125 0.0075 4.58880247645
0.0125 0.0085 4.51368188423
0.0125 0.0095 4.47601831196
0.0125 0.0105 4.46708544052
0.0125 0.0115 4.47095591176
0.0125 0.0125 4.47565703742
0.0125 0.0135 4.47999231379
0.0125 0.0145 4.49599492013
0.0125 0.0155 4.54374283882
0.0125 0.0165 4.61382624996
0.0125 0.0175 4.65953405166
0.0125 0.0185 4.65188161086
0.0125 0.0195 4.60867317898
0.0125 0.0205 4.56001877319
0.0125 0.0215 4.51052233486
0.0125 0.0225 4.44623896111
0.0125 0.0235 4.36222265358
0.0125 0.0245 4.2716933525
0.0125 0.0255 4.187659859
0.0125 0.0265 4.10698655598
0.0125 0.0275 4.02237199832
0.0125 0.0285 3.93817765138
0.0125 0.0295 3.86567928837
0.0125 0.0305 3.81404600895
0.0125 0.0315 3.78797841997
0.0135 -0.0315 3.20590638994
0.0135 -0.0305 3.21456822556
0.0135 -0.0295 3.24015777467
0.0135 -0.0285 3.28178803422
0.0135 -0.0275 3.33857585123
0.0135 -0.0265 3.41106489732
0.0135 -0.0255 3.50010690657
0.0135 -0.0245 3.60403425038
0.0135 -0.0235 3.71782910615
0.0135 -0.0225 3.83482193735
0.0135 -0.0215 3.95174164105
0.0135 -0.0205 4.07932599804
0.0135 -0.0195 4.22975023154
0.0135 -0.0185 4.39082351239
0.0135 -0.0175 4.5293368338
0.0135 -0.0165 4.6125329223
0.0135 -0.0155 4.62709320749
0.0135 -0.0145 4.59425605924
0.0135 -0.0135 4.55160746657
0.0135 -0.0125 4.52253373316
0.0135 -0.0115 4.5137896712
0.0135 -0.0105 4.51533808289
0.0135 -0.0095 4.51122607042
0.0135 -0.0085 4.49990597521
0.0135 -0.0075 4.49239384213
0.0135 -0.0065 4.50387098926
0.0135 -0.0055 4.54788188064
0.0135 -0.0045 4.62533090719
0.0135 -0.0035 4.7221337334
0.0135 -0.0025 4.81856668741
0.0135 -0.0015 4.8979561696
0.0135 -0.0005 4.94985136686
0.0135 0.0005 4.96949232992
0.0135 0.0015 4.95603934417
0.0135 0.0025 4.91169254732
0.0135 0.0035 4.84173882
0.0135 0.0045 4.75431375119
0.0135 0.0055 4.66022332275
0.0135 0.0065 4.57204114352
0.0135 0.0075 4.50192573671
0.0135 0.0085 4.45834417047
0.0135 0.0095 4.44244652255
0.0135 0.0105 4.44648301984
0.0135 0.0115 4.45774034923
0.0135 0.0125 4.46744560936
0.0135 0.0135 4.47702339406
0.0135 0.0145 4.50371262136
0.0135 0.0155 4.57099135896
0.0135 0.0165 4.66288232415
0.0135 0.0175 4.72600176992
0.0135 0.0185 4.72489960546
0.0135 0.0195 4.66688279142
0.0135 0.0205 4.58437026974
0.0135 0.0215 4.49829611976
0.0135 0.0225 4.40839509146
0.0135 0.0235 4.31279672988
0.0135 0.0245 4.21926656393
0.0135 0.0255 4.13261416502
0.0135 0.0265 4.04650817587
0.0135 0.0275 3.95382285742
0.0135 0.0285 3.86321982259
0.0135 0.0295 3.78980230288
0.0135 0.0305 3.74145451069
0.0135 0.0315 3.7196907813
0.0145 -0.0315 3.18040687699
0.0145 -0.0305 3.18708160119
0.0145 -0.0295 3.20501183007
0.0145 -0.0285 3.23393915617
0.0145 -0.0275 3.27598913775
0.0145 -0.0265 3.33644022625
0.0145 -0.0255 3.41773604443
0.0145 -0.0245 3.51622519528
0.0145 -0.0235 3.62728800786
0.0145 -0.0225 3.74769307707
0.0145 -0.0215 3.87431446857
0.0145 -0.0205 4.01089650933
0.0145 -0.0195 4.15963840527
0.0145 -0.0185 4.30746217296
0.0145 -0.0175 4.43068172745
0.0145 -0.0165 4.50702046301
0.0145 -0.0155 4.5292028922
0.0145 -0.0145 4.51281984842
0.0145 -0.0135 4.48387615414
0.0145 -0.0125 4.46144120025
0.0145 -0.0115 4.45616006355
0.0145 -0.0105 4.46276430292
0.0145 -0.0095 4.46487754054
0.0145 -0.0085 4.45709201382
0.0145 -0.0075 4.44720078704
0.0145 -0.0065 4.44591096783
0.0145 -0.0055 4.46229934522
0.0145 -0.0045 4.49809042836
0.0145 -0.0035 4.54538500206
0.0145 -0.0025 4.59296314994
0.0145 -0.0015 4.63157416127
0.0145 -0.0005 4.65571991683
0.0145 0.0005 4.66313352149
0.0145 0.0015 4.6535971499
0.0145 0.0025 4.62826751386
0.0145 0.0035 4.58964888195
0.0145 0.0045 4.54190644307
0.0145 0.0055 4.4913190971
0.0145 0.0065 4.4460206104
0.0145 0.0075 4.41433706957
0.0145 0.0085 4.40161261433
0.0145 0.0095 4.40699699413
0.0145 0.0105 4.42335274241
0.0145 0.0115 4.44201079657
0.0145 0.0125 4.4580032327
0.0145 0.0135 4.47612979186
0.0145 0.0145 4.51849639875
0.0145 0.0155 4.60484621921
0.0145 0.0165 4.71276448469
0.0145 0.0175 4.78949767676
0.0145 0.0185 4.79588485314
0.0145 0.0195 4.72792163695
0.0145 0.0205 4.61021506827
0.0145 0.0215 4.47579471505
0.0145 0.0225 4.3502085699
0.0145 0.0235 4.24252725036
0.0145 0.0245 4.14943002206
0.0145 0.0255 4.06170485695
0.0145 0.0265 3.96938943569
0.0145 0.0275 3.87081853574
0.0145 0.0285 3.78038574267
0.0145 0.0295 3.71209466074
0.0145 0.0305 3.67066081239
0.0145 0.0315 3.65463988822
0.0155 -0.0315 3.16278844841
0.0155 -0.0305 3.16538206315
0.0155 -0.0295 3.17144608582
0.0155 -0.0285 3.18376800788
0.0155 -0.0275 3.21120345919
0.0155 -0.0265 3.26255786524
0.0155 -0.0255 3.3373683054
0.0155 -0.0245 3.42913850583
0.0155 -0.0235 3.53596669327
0.0155 -0.0225 3.65838877041
0.0155 -0.0215 3.79389440791
0.0155 -0.0205 3.93841041929
0.0155 -0.0195 4.08498039106
0.0155 -0.0185 4.22159419274
0.0155 -0.0175 4.33348346163
0.0155 -0.0165 4.40776557681
0.0155 -0.0155 4.44022734238
0.0155 -0.0145 4.43893269926
0.0155 -0.0135 4.42101718525
0.0155 -0.0125 4.40448705489
0.0155 -0.0115 4.40127283539
0.0155 -0.0105 4.41011141734
0.0155 -0.0095 4.41676640883
0.0155 -0.0085 4.41286147621
0.0155 -0.0075 4.40370880239
0.0155 -0.0065 4.39614817695
0.0155 -0.0055 4.39316170557
0.0155 -0.0045 4.39501479195
0.0155 -0.0035 4.39965166384
0.0155 -0.0025 4.40422013458
0.0155 -0.0015 4.40667148811
0.0155 -0.0005 4.40591550855
0.0155 0.0005 4.40169528856
0.0155 0.0015 4.39421935442
0.0155 0.0025 4.3838688126
0.0155 0.0035 4.37122792423
0.0155 0.0045 4.35744203631
0.0155 0.0055 4.34487342495
0.0155 0.0065 4.33738906992
0.0155 0.0075 4.33912817048
0.0155 0.0085 4.35192893959
0.0155 0.0095 4.37346188071
0.0155 0.0105 4.39876065048
0.0155 0.0115 4.4233149401
0.0155 0.0125 4.44568825207
0.0155 0.0135 4.47426033125
0.0155 0.0145 4.53050733771
0.0155 0.0155 4.62492180213
0.0155 0.0165 4.734184121
0.0155 0.0175 4.81272185201
0.0155 0.0185 4.82162967326
0.0155 0.0195 4.74967450892
0.0155 0.0205 4.60969298826
0.0155 0.0215 4.43560230861
0.0155 0.0225 4.27400627366
0.0155 0.0235 4.14905054972
0.0155 0.0245 4.05289848731
0.0155 0.0255 3.96627520853
0.0155 0.0265 3.87439852984
0.0155 0.0275 3.78081071335
0.0155 0.0285 3.70064751182
0.0155 0.0295 3.64211869865
0.0155 0.0305 3.60824230827
0.0155 0.0315 3.59744856925
0.0165 -0.0315 3.14479596727
0.0165 -0.0305 3.1408834005
0.0165 -0.0295 3.13326848969
0.0165 -0.0285 3.13028759965
0.0165 -0.0275 3.14675815152
0.0165 -0.0265 3.19065053849
0.0165 -0.0255 3.25770503104
0.0165 -0.0245 3.3432289206
0.0165 -0.0235 3.4480695769
0.0165 -0.0225 3.57289714974
0.0165 -0.0215 3.71392540681
0.0165 -0.0205 3.86243360048
0.0165 -0.0195 4.00752420831
0.0165 -0.0185 4.13836183519
0.0165 -0.0175 4.24462518809
0.0165 -0.0165 4.31868134719
0.0165 -0.0155 4.35833871104
0.0165 -0.0145 4.36843282784
0.0165 -0.0135 4.3617122943