% Model:              Benchmark260518.mph
% Version:            COMSOL 6.2.0.339
% Date:               May 27 2026, 11:05
% Dimension:          2
% Nodes:              4096
% Expressions:        1
% Description:        压力
% Length unit:        m
% x                       y                        p (Pa)
5.0E-4                    -0.0315                  2.7556997410944963
5.0E-4                    -0.0305                  2.7695773322171386
5.0E-4                    -0.0295                  2.7865257364843172
5.0E-4                    -0.0285                  2.804798168062696
5.0E-4                    -0.0275                  2.8237435104924393
5.0E-4                    -0.0265                  2.8433184234698095
5.0E-4                    -0.0255                  2.863415675476946
5.0E-4                    -0.0245                  2.884024153182262
5.0E-4                    -0.0235                  2.9051266820449992
5.0E-4                    -0.0225                  2.926674087745251
5.0E-4                    -0.0215                  2.9487161501396097
5.0E-4                    -0.0205                  2.9711665574023516
5.0E-4                    -0.0195                  2.994074695867001
5.0E-4                    -0.0185                  3.017393828910067
5.0E-4                    -0.0175                  3.041126060468607
5.0E-4                    -0.0165                  3.0652787998442266
5.0E-4                    -0.0155                  3.089807837228591
5.0E-4                    -0.0145                  3.11476984656738
5.0E-4                    -0.0135                  3.1400998118053898
5.0E-4                    -0.0125                  3.1658470269962833
5.0E-4                    -0.0115                  3.191988733215475
5.0E-4                    -0.0105                  3.218544556819011
5.0E-4                    -0.0095                  3.2455384579378714
5.0E-4                    -0.0085                  3.2729597997477007
5.0E-4                    -0.0075                  3.3008987883434244
5.0E-4                    -0.0065                  3.3293260538023777
5.0E-4                    -0.0055                  3.358335751875827
5.0E-4                    -0.0045                  3.3879582369908467
5.0E-4                    -0.0035                  3.4182442300568106
5.0E-4                    -0.0025                  3.449307548854514
5.0E-4                    -0.0015                  3.481099223057302
5.0E-4                    -5.0E-4                  3.5137742333196567
5.0E-4                    5.0E-4                   3.5471911622350083
5.0E-4                    0.0015                   3.5813881532272345
5.0E-4                    0.0025                   3.616209527988027
5.0E-4                    0.0035                   3.6515241744634364
5.0E-4                    0.0045                   3.687098028093416
5.0E-4                    0.0055                   3.722590201830886
5.0E-4                    0.0065                   3.7574210987488303
5.0E-4                    0.0075                   3.791021272680986
5.0E-4                    0.0085                   3.82221587286996
5.0E-4                    0.0095                   3.849553358223947
5.0E-4                    0.0105                   3.87167688201269
5.0E-4                    0.0115                   3.8854420381739034
5.0E-4                    0.0125                   3.888813093354246
5.0E-4                    0.0135                   3.8770035080582566
5.0E-4                    0.0145                   3.8535453748052118
5.0E-4                    0.0155                   3.8275885351774552
5.0E-4                    0.0165                   3.8128907153643374
5.0E-4                    0.0175                   3.8056860508206443
5.0E-4                    0.0185                   3.7983815287806673
5.0E-4                    0.0195                   3.789731408482079
5.0E-4                    0.0205                   3.778705736883469
5.0E-4                    0.0215                   3.7706698204101547
5.0E-4                    0.0225                   4.057202740061926
5.0E-4                    0.0235                   4.658349527377641
5.0E-4                    0.0245                   4.94799245320874
5.0E-4                    0.0255                   4.996597507970997
5.0E-4                    0.0265                   4.992439724901734
5.0E-4                    0.0275                   4.983921335253461
5.0E-4                    0.0285                   4.959077502655575
5.0E-4                    0.0295                   4.918784014595673
5.0E-4                    0.0305                   4.873310724255027
5.0E-4                    0.0315                   4.833377720073569
0.0015                    -0.0315                  2.7417688141196206
0.0015                    -0.0305                  2.7556887524351894
0.0015                    -0.0295                  2.7742637680568767
0.0015                    -0.0285                  2.7939888955132743
0.0015                    -0.0275                  2.814090218509064
0.0015                    -0.0265                  2.834517649218698
0.0015                    -0.0255                  2.8552640956624575
0.0015                    -0.0245                  2.8763746621303943
0.0015                    -0.0235                  2.8978816374710528
0.0015                    -0.0225                  2.919765971764413
0.0015                    -0.0215                  2.9420923263985914
0.0015                    -0.0205                  2.9647973328284483
0.0015                    -0.0195                  2.9879289695071787
0.0015                    -0.0185                  3.0114505806360548
0.0015                    -0.0175                  3.0353622597454475
0.0015                    -0.0165                  3.059671067130054
0.0015                    -0.0155                  3.0843287325125135
0.0015                    -0.0145                  3.10938601472997
0.0015                    -0.0135                  3.1347732732564557
0.0015                    -0.0125                  3.1605249563789624
0.0015                    -0.0115                  3.1866163745520932
0.0015                    -0.0105                  3.2130456942114245
0.0015                    -0.0095                  3.2398390753974846
0.0015                    -0.0085                  3.2669634407516037
0.0015                    -0.0075                  3.294504717812718
0.0015                    -0.0065                  3.3224308924938035
0.0015                    -0.0055                  3.3508419481551215
0.0015                    -0.0045                  3.379797970406508
0.0015                    -0.0035                  3.4093949664732923
0.0015                    -0.0025                  3.439835849199539
0.0015                    -0.0015                  3.471164096603746
0.0015                    -5.0E-4                  3.5037088144107096
0.0015                    5.0E-4                   3.537429314934249
0.0015                    0.0015                   3.572528184586981
0.0015                    0.0025                   3.6090199918592445
0.0015                    0.0035                   3.6468886482118554
0.0015                    0.0045                   3.686254946864672
0.0015                    0.0055                   3.726836106162756
0.0015                    0.0065                   3.768446567518318
0.0015                    0.0075                   3.8101453389501794
0.0015                    0.0085                   3.8505239178902255
0.0015                    0.0095                   3.887243364633564
0.0015                    0.0105                   3.917688301176305
0.0015                    0.0115                   3.936219684669908
0.0015                    0.0125                   3.938799264549888
0.0015                    0.0135                   3.9177736867745976
0.0015                    0.0145                   3.8808650510883664
0.0015                    0.0155                   3.8435431283945665
0.0015                    0.0165                   3.8192417370269736
0.0015                    0.0175                   3.8051919407347183
0.0015                    0.0185                   3.795588080977867
0.0015                    0.0195                   3.788558071248313
0.0015                    0.0205                   3.7846099638850768
0.0015                    0.0215                   3.83774135663671
0.0015                    0.0225                   4.271018527670917
0.0015                    0.0235                   4.76129381298636
0.0015                    0.0245                   4.976374220668046
0.0015                    0.0255                   5.000891988793838
0.0015                    0.0265                   4.996254705936681
0.0015                    0.0275                   4.985606129953789
0.0015                    0.0285                   4.958039226675809
0.0015                    0.0295                   4.905589455857969
0.0015                    0.0305                   4.843414134576878
0.0015                    0.0315                   4.794430730806285
0.0025                    -0.0315                  2.7246449267443
0.0025                    -0.0305                  2.7369648558295205
0.0025                    -0.0295                  2.755561375403544
0.0025                    -0.0285                  2.776518305361787
0.0025                    -0.0275                  2.7979531976751493
0.0025                    -0.0265                  2.8195441246780186
0.0025                    -0.0255                  2.8412554121673814
0.0025                    -0.0245                  2.8631519032484705
0.0025                    -0.0235                  2.8853092391673427
0.0025                    -0.0225                  2.9077488206946787
0.0025                    -0.0215                  2.930552689588794
0.0025                    -0.0205                  2.9536862033743265
0.0025                    -0.0195                  2.9772012777220995
0.0025                    -0.0185                  3.0010728427787274
0.0025                    -0.0175                  3.025298872279114
0.0025                    -0.0165                  3.0498849397675873
0.0025                    -0.0155                  3.074778468465283
0.0025                    -0.0145                  3.1000136347399874
0.0025                    -0.0135                  3.125517314828691
0.0025                    -0.0125                  3.1512997204734186
0.0025                    -0.0115                  3.1773247842870322
0.0025                    -0.0105                  3.203572423114284
0.0025                    -0.0095                  3.2300414494080147
0.0025                    -0.0085                  3.2566992926252185
0.0025                    -0.0075                  3.2835853114728866
0.0025                    -0.0065                  3.3106935462414127
0.0025                    -0.0055                  3.338107472445474
0.0025                    -0.0045                  3.3659355974256977
0.0025                    -0.0035                  3.39433346948936
0.0025                    -0.0025                  3.4236376022664303
0.0025                    -0.0015                  3.4540396497502575
0.0025                    -5.0E-4                  3.486152182199953
0.0025                    5.0E-4                   3.5201316894015062
0.0025                    0.0015                   3.5564910175039617
0.0025                    0.0025                   3.595499699270632
0.0025                    0.0035                   3.6373198027348916
0.0025                    0.0045                   3.6825465502079155
0.0025                    0.0055                   3.730937199636059
0.0025                    0.0065                   3.782812914463163
0.0025                    0.0075                   3.83675596759249
0.0025                    0.0085                   3.8907079388503703
0.0025                    0.0095                   3.9403069595520823
0.0025                    0.0105                   3.9800484247355565
0.0025                    0.0115                   3.99964914404851
0.0025                    0.0125                   3.995912896940598
0.0025                    0.0135                   3.966042318535851
0.0025                    0.0145                   3.920101285883943
0.0025                    0.0155                   3.8713840666746857
0.0025                    0.0165                   3.832130556419284
0.0025                    0.0175                   3.8042394757280658
0.0025                    0.0185                   3.790862354463208
0.0025                    0.0195                   3.792495580256353
0.0025                    0.0205                   3.834204495773262
0.0025                    0.0215                   4.079340313957214
0.0025                    0.0225                   4.543445786526894
0.0025                    0.0235                   4.873943493364671
0.0025                    0.0245                   4.980425476870661
0.0025                    0.0255                   4.992996123529797
0.0025                    0.0265                   4.9917577765620464
0.0025                    0.0275                   4.978065800304368
0.0025                    0.0285                   4.939663440133815
0.0025                    0.0295                   4.8725798332448065
0.0025                    0.0305                   4.7983885533535355
0.0025                    0.0315                   4.745702849880104
0.0035                    -0.0315                  2.7060059172835134
0.0035                    -0.0305                  2.71690930756321
0.0035                    -0.0295                  2.73435389377031
0.0035                    -0.0285                  2.7553943344627787
0.0035                    -0.0275                  2.7775993177856826
0.0035                    -0.0265                  2.8001998663799115
0.0035                    -0.0255                  2.8228944893233807
0.0035                    -0.0245                  2.8456750964512167
0.0035                    -0.0235                  2.8686049545560683
0.0035                    -0.0225                  2.891727487005216
0.0035                    -0.0215                  2.9151335091891526
0.0035                    -0.0205                  2.9388153610068213
0.0035                    -0.0195                  2.962828543370157
0.0035                    -0.0185                  2.98716053773839
0.0035                    -0.0175                  3.01180747748403
0.0035                    -0.0165                  3.0367719030850377
0.0035                    -0.0155                  3.06199725090926
0.0035                    -0.0145                  3.0874933333763135
0.0035                    -0.0135                  3.1131837497069044
0.0035                    -0.0125                  3.139047989006665
0.0035                    -0.0115                  3.165032916715803
0.0035                    -0.0105                  3.191096182071018
0.0035                    -0.0095                  3.2171997121115448
0.0035                    -0.0085                  3.2433103604046267
0.0035                    -0.0075                  3.2694124993621347
0.0035                    -0.0065                  3.29552108814853
0.0035                    -0.0055                  3.3216972720518925
0.0035                    -0.0045                  3.348082896117107
0.0035                    -0.0035                  3.3748893461838874
0.0035                    -0.0025                  3.4025734390486573
0.0035                    -0.0015                  3.4315005461046852
0.0035                    -5.0E-4                  3.462601803816449
0.0035                    5.0E-4                   3.496340750151
0.0035                    0.0015                   3.533651620260413
0.0035                    0.0025                   3.5751849880344535
0.0035                    0.0035                   3.621254971552068
0.0035                    0.0045                   3.672878009435716
0.0035                    0.0055                   3.729655342485279
0.0035                    0.0065                   3.7923117405039344
0.0035                    0.0075                   3.858936287503533
0.0035                    0.0085                   3.9263686022806
0.0035                    0.0095                   3.98728715933352
0.0035                    0.0105                   4.033059331454124
0.0035                    0.0115                   4.050024463256711
0.0035                    0.0125                   4.040063848716169
0.0035                    0.0135                   4.008362606868722
0.0035                    0.0145                   3.9592570793587383
0.0035                    0.0155                   3.9015622208019094
0.0035                    0.0165                   3.848617075340052
0.0035                    0.0175                   3.8157448961746314
0.0035                    0.0185                   3.8200382647714157
0.0035                    0.0195                   3.87932293640526
0.0035                    0.0205                   4.070325405289456
0.0035                    0.0215                   4.401490684423159
0.0035                    0.0225                   4.730908635521173
0.0035                    0.0235                   4.897225146996062
0.0035                    0.0245                   4.949081666505956
0.0035                    0.0255                   4.9688441858345325
0.0035                    0.0265                   4.972486877851943
0.0035                    0.0275                   4.950197279627175
0.0035                    0.0285                   4.896358634118707
0.0035                    0.0295                   4.819352796324697
0.0035                    0.0305                   4.742887169329185
0.0035                    0.0315                   4.690362952329769
0.0045                    -0.0315                  2.686446550086462
0.0045                    -0.0305                  2.696286085595612
0.0045                    -0.0295                  2.712514427170092
0.0045                    -0.0285                  2.7329782834400493
0.0045                    -0.0275                  2.755307308858174
0.0045                    -0.0265                  2.7785404321520426
0.0045                    -0.0255                  2.8020357369156286
0.0045                    -0.0245                  2.8256406225965867
0.0045                    -0.0235                  2.8493471023251953
0.0045                    -0.0225                  2.87318676852272
0.0045                    -0.0215                  2.8972447488258073
0.0045                    -0.0205                  2.9215313057840016
0.0045                    -0.0195                  2.9461033385524233
0.0045                    -0.0185                  2.970958954124699
0.0045                    -0.0175                  2.996093058723016
0.0045                    -0.0165                  3.02150424726198
0.0045                    -0.0155                  3.047131240258515
0.0045                    -0.0145                  3.072959062563913
0.0045                    -0.0135                  3.098904159203137
0.0045                    -0.0125                  3.1249142373941483
0.0045                    -0.0115                  3.1509131090945877
0.0045                    -0.0105                  3.1768357735579356
0.0045                    -0.0095                  3.2025992126340457
0.0045                    -0.0085                  3.2281699792872516
0.0045                    -0.0075                  3.253472685734536
0.0045                    -0.0065                  3.2785368488348836
0.0045                    -0.0055                  3.303392992594567
0.0045                    -0.0045                  3.3281955385056547
0.0045                    -0.0035                  3.3531925412294945
0.0045                    -0.0025                  3.3789122890635253
0.0045                    -0.0015                  3.405881097770164
0.0045                    -5.0E-4                  3.43530495280668
0.0045                    5.0E-4                   3.4680201458959825
0.0045                    0.0015                   3.5054457267834795
0.0045                    0.0025                   3.548756881450694
0.0045                    0.0035                   3.5984321029816404
0.0045                    0.0045                   3.655808214613663
0.0045                    0.0055                   3.7200150112538664
0.0045                    0.0065                   3.7917074030472695
0.0045                    0.0075                   3.86843755465899
0.0045                    0.0085                   3.945984488951378
0.0045                    0.0095                   4.014362671807671
0.0045                    0.0105                   4.0639378734565
0.0045                    0.0115                   4.083658494285455
0.0045                    0.0125                   4.079015313649401
0.0045                    0.0135                   4.048532244004497
0.0045                    0.0145                   3.997532466791826
0.0045                    0.0155                   3.9334713574234645
0.0045                    0.0165                   3.8811648147341073
0.0045                    0.0175                   3.8632283620450543
0.0045                    0.0185                   3.9232025034778006
0.0045                    0.0195                   4.087435200286511
0.0045                    0.0205                   4.337520645756747
0.0045                    0.0215                   4.596888776477715
0.0045                    0.0225                   4.775789951483434
0.0045                    0.0235                   4.855823272390746
0.0045                    0.0245                   4.902705941181286
0.0045                    0.0255                   4.9313834261664375
0.0045                    0.0265                   4.933726792284709
0.0045                    0.0275                   4.898811496830216
0.0045                    0.0285                   4.833404968991803
0.0045                    0.0295                   4.754070615619365
0.0045                    0.0305                   4.680058316263118
0.0045                    0.0315                   4.629309301851406
0.0055                    -0.0315                  2.6660044667329306
0.0055                    -0.0305                  2.675113934365677
0.0055                    -0.0295                  2.690358773289639
0.0055                    -0.0285                  2.7100463303501217
0.0055                    -0.0275                  2.732024234493163
0.0055                    -0.0265                  2.7554128206536097
0.0055                    -0.0255                  2.779375861993903
0.0055                    -0.0245                  2.803611834581069
0.0055                    -0.0235                  2.8280005802551353
0.0055                    -0.0225                  2.8525192900514456
0.0055                    -0.0215                  2.8772284350759634
0.0055                    -0.0205                  2.902137543040646
0.0055                    -0.0195                  2.927300593535531
0.0055                    -0.0185                  2.952721972321691
0.0055                    -0.0175                  2.9783952203989363
0.0055                    -0.0165                  3.0043154545295128
0.0055                    -0.0155                  3.0304159411579983
0.0055                    -0.0145                  3.0566593236081907
0.0055                    -0.0135                  3.082950877201685
0.0055                    -0.0125                  3.10920702243923
0.0055                    -0.0115                  3.1353225956873363
0.0055                    -0.0105                  3.1612091700980054
0.0055                    -0.0095                  3.186731049893895
0.0055                    -0.0085                  3.2118529831357674
0.0055                    -0.0075                  3.2364363135415806
0.0055                    -0.0065                  3.260515428024654
0.0055                    -0.0055                  3.2840819211003307
0.0055                    -0.0045                  3.307273886738993
0.0055                    -0.0035                  3.330347059523235
0.0055                    -0.0025                  3.35381614412718
0.0055                    -0.0015                  3.3783140058834165
0.0055                    -5.0E-4                  3.4051765914446843
0.0055                    5.0E-4                   3.4355993322485285
0.0055                    0.0015                   3.4714741538568648
0.0055                    0.0025                   3.514682142845621
0.0055                    0.0035                   3.5660252988073644
0.0055                    0.0045                   3.6272204259085115
0.0055                    0.0055                   3.6965444676419454
0.0055                    0.0065                   3.77362926561898
0.0055                    0.0075                   3.854885854832537
0.0055                    0.0085                   3.9355751344389374
0.0055                    0.0095                   4.006434864716667
0.0055                    0.0105                   4.060851693381938
0.0055                    0.0115                   4.093872149749413
0.0055                    0.0125                   4.108147193328362
0.0055                    0.0135                   4.079280784032551
0.0055                    0.0145                   4.00231422544941
0.0055                    0.0155                   3.9109974008876334
0.0055                    0.0165                   3.866887004380659
0.0055                    0.0175                   3.89689883982734
0.0055                    0.0185                   4.028649909726359
0.0055                    0.0195                   4.222360074509305
0.0055                    0.0205                   4.431363567472992
0.0055                    0.0215                   4.599990196138536
0.0055                    0.0225                   4.714345359490814
0.0055                    0.0235                   4.792488098530064
0.0055                    0.0245                   4.846292219513766
0.0055                    0.0255                   4.873625188429027
0.0055                    0.0265                   4.864870888413769
0.0055                    0.0275                   4.819992322555379
0.0055                    0.0285                   4.752731866069086
0.0055                    0.0295                   4.677833560159987
0.0055                    0.0305                   4.6088144130350575
0.0055                    0.0315                   4.561575798539276
0.0065                    -0.0315                  2.6448977908441695
0.0065                    -0.0305                  2.653479141195093
0.0065                    -0.0295                  2.6679610350226546
0.0065                    -0.0285                  2.6869337378883116
0.0065                    -0.0275                  2.708430813481862
0.0065                    -0.0265                  2.7317058901210274
0.0065                    -0.0255                  2.755868471151997
0.0065                    -0.0245                  2.7805275908762686
0.0065                    -0.0235                  2.805462892719776
0.0065                    -0.0225                  2.8305762573596343
0.0065                    -0.0215                  2.855893008490407
0.0065                    -0.0205                  2.881403927205783
0.0065                    -0.0195                  2.9071556344799
0.0065                    -0.0185                  2.9331539654542613
0.0065                    -0.0175                  2.959390472011188
0.0065                    -0.0165                  2.985858354454157
0.0065                    -0.0155                  3.012485148317082
0.0065                    -0.0145                  3.0392157312067076
0.0065                    -0.0135                  3.0659414374279113
0.0065                    -0.0125                  3.09254987162084
0.0065                    -0.0115                  3.118902304576161
0.0065                    -0.0105                  3.14488588255614
0.0065                    -0.0095                  3.170305475959984
0.0065                    -0.0085                  3.1951201870093535
0.0065                    -0.0075                  3.219125854675332
0.0065                    -0.0065                  3.2423509363955403
0.0065                    -0.0055                  3.264743848347536
0.0065                    -0.0045                  3.2864024969901653
0.0065                    -0.0035                  3.3075695785002504
0.0065                    -0.0025                  3.328669023947075
0.0065                    -0.0015                  3.350375310512504
0.0065                    -5.0E-4                  3.373975031100862
0.0065                    5.0E-4                   3.4009004350115464
0.0065                    0.0015                   3.4333649116137734
0.0065                    0.0025                   3.4740114293274003
0.0065                    0.0035                   3.524210185333943
0.0065                    0.0045                   3.5864331658255435
0.0065                    0.0055                   3.658159058508958
0.0065                    0.0065                   3.7373819993828405
0.0065                    0.0075                   3.818249811087929
0.0065                    0.0085                   3.895468626389917
0.0065                    0.0095                   3.9649973386603983
0.0065                    0.0105                   4.027276309338921
0.0065                    0.0115                   4.078498876882826