% Model:              Benchmark260518.mph
% Version:            COMSOL 6.2.0.339
% Date:               May 19 2026, 02:36
% Dimension:          2
% Nodes:              4096
% Expressions:        1
% Description:        压力
% Length unit:        m
% x                       y                        p (Pa)
% mirrored_by_python_y_to_minus_y, coord_match_decimals=12
0.0005 -0.0315 4.27115767648
0.0005 -0.0305 4.29807920474
0.0005 -0.0295 4.33465611342
0.0005 -0.0285 4.37439026475
0.0005 -0.0275 4.41581294772
0.0005 -0.0265 4.45840168967
0.0005 -0.0255 4.50186586528
0.0005 -0.0245 4.54610579465
0.0005 -0.0235 4.59115359572
0.0005 -0.0225 4.63716263472
0.0005 -0.0215 4.684372711
0.0005 -0.0205 4.73314053062
0.0005 -0.0195 4.78380650264
0.0005 -0.0185 4.83546907678
0.0005 -0.0175 4.88479034859
0.0005 -0.0165 4.92729061389
0.0005 -0.0155 4.95729261532
0.0005 -0.0145 4.9728227165
0.0005 -0.0135 4.97754323584
0.0005 -0.0125 4.97826199391
0.0005 -0.0115 4.98732500449
0.0005 -0.0105 5.01400925885
0.0005 -0.0095 5.05235097935
0.0005 -0.0085 5.08561478422
0.0005 -0.0075 5.09267506737
0.0005 -0.0065 5.05481456543
0.0005 -0.0055 4.95737368299
0.0005 -0.0045 4.83322817047
0.0005 -0.0035 4.76766655448
0.0005 -0.0025 4.77165602015
0.0005 -0.0015 4.79313944089
0.0005 -0.0005 4.81284791866
0.0005 0.0005 4.82918804063
0.0005 0.0015 4.8406163696
0.0005 0.0025 4.84703900226
0.0005 0.0035 4.85032434006
0.0005 0.0045 4.85302558027
0.0005 0.0055 4.85679261027
0.0005 0.0065 4.8614140047
0.0005 0.0075 4.86545311725
0.0005 0.0085 4.86738869306
0.0005 0.0095 4.86584907636
0.0005 0.0105 4.85894970523
0.0005 0.0115 4.84291240013
0.0005 0.0125 4.81330948461
0.0005 0.0135 4.77121773642
0.0005 0.0145 4.72148644525
0.0005 0.0155 4.66846643145
0.0005 0.0165 4.61545000732
0.0005 0.0175 4.56320803257
0.0005 0.0185 4.51153840531
0.0005 0.0195 4.46026902593
0.0005 0.0205 4.40925993529
0.0005 0.0215 4.35843929766
0.0005 0.0225 4.30779956486
0.0005 0.0235 4.25739010591
0.0005 0.0245 4.20730612754
0.0005 0.0255 4.15768034482
0.0005 0.0265 4.10868997766
0.0005 0.0275 4.0605746297
0.0005 0.0285 4.01373726312
0.0005 0.0295 3.96878230644
0.0005 0.0305 3.92734087827
0.0005 0.0315 3.89687126916
0.0015 -0.0315 4.24412518975
0.0015 -0.0305 4.27143129708
0.0015 -0.0295 4.3111428564
0.0015 -0.0285 4.35451717064
0.0015 -0.0275 4.39899155942
0.0015 -0.0265 4.44383756274
0.0015 -0.0255 4.48877983486
0.0015 -0.0245 4.53374546527
0.0015 -0.0235 4.57885071247
0.0015 -0.0225 4.62441586796
0.0015 -0.0215 4.67101053766
0.0015 -0.0205 4.71945049929
0.0015 -0.0195 4.77050219632
0.0015 -0.0185 4.82383512759
0.0015 -0.0175 4.87634489713
0.0015 -0.0165 4.92310915979
0.0015 -0.0155 4.95652160505
0.0015 -0.0145 4.97414005205
0.0015 -0.0135 4.98120257127
0.0015 -0.0125 4.98393918337
0.0015 -0.0115 4.99955313995
0.0015 -0.0105 5.04116709908
0.0015 -0.0095 5.09891055209
0.0015 -0.0085 5.15114708582
0.0015 -0.0075 5.17263772003
0.0015 -0.0065 5.14253208729
0.0015 -0.0055 5.04887134756
0.0015 -0.0045 4.90721387375
0.0015 -0.0035 4.81129321715
0.0015 -0.0025 4.79295318516
0.0015 -0.0015 4.79974719916
0.0015 -0.0005 4.81417190021
0.0015 0.0005 4.82699667143
0.0015 0.0015 4.83544599556
0.0015 0.0025 4.83975609377
0.0015 0.0035 4.84248833474
0.0015 0.0045 4.8464616294
0.0015 0.0055 4.85280304236
0.0015 0.0065 4.86019742004
0.0015 0.0075 4.86611427533
0.0015 0.0085 4.86865112168
0.0015 0.0095 4.86659788765
0.0015 0.0105 4.85880335779
0.0015 0.0115 4.8425291976
0.0015 0.0125 4.81254916205
0.0015 0.0135 4.76915884649
0.0015 0.0145 4.71793168869
0.0015 0.0155 4.66366729048
0.0015 0.0165 4.60982872164
0.0015 0.0175 4.55726029039
0.0015 0.0185 4.50555519066
0.0015 0.0195 4.45416303348
0.0015 0.0205 4.40275149366
0.0015 0.0215 4.35118412333
0.0015 0.0225 4.29946251827
0.0015 0.0235 4.24766553216
0.0015 0.0245 4.19589711279
0.0015 0.0255 4.14425488538
0.0015 0.0265 4.09283041504
0.0015 0.0275 4.04175515189
0.0015 0.0285 3.9912844463
0.0015 0.0295 3.94213722139
0.0015 0.0305 3.89715398108
0.0015 0.0315 3.86627805456
0.0025 -0.0315 4.2069607946
0.0025 -0.0305 4.23244392821
0.0025 -0.0295 4.27325446895
0.0025 -0.0285 4.32028567795
0.0025 -0.0275 4.36893007089
0.0025 -0.0265 4.41735976612
0.0025 -0.0255 4.4648631431
0.0025 -0.0245 4.51119879774
0.0025 -0.0235 4.55647692607
0.0025 -0.0225 4.60119196124
0.0025 -0.0215 4.64626759885
0.0025 -0.0205 4.69299961659
0.0025 -0.0195 4.74267420783
0.0025 -0.0185 4.79568729706
0.0025 -0.0175 4.85014838437
0.0025 -0.0165 4.90167396542
0.0025 -0.0155 4.94258753038
0.0025 -0.0145 4.96879110153
0.0025 -0.0135 4.9826325522
0.0025 -0.0125 4.99308469768
0.0025 -0.0115 5.02090831065
0.0025 -0.0105 5.07927157134
0.0025 -0.0095 5.15729679143
0.0025 -0.0085 5.22893500701
0.0025 -0.0075 5.26585985218
0.0025 -0.0065 5.24910150717
0.0025 -0.0055 5.17441863396
0.0025 -0.0045 5.05555734553
0.0025 -0.0035 4.9390306215
0.0025 -0.0025 4.86956393678
0.0025 -0.0015 4.84242550773
0.0025 -0.0005 4.83294745952
0.0025 0.0005 4.82717914128
0.0025 0.0015 4.82049571991
0.0025 0.0025 4.8141978438
0.0025 0.0035 4.81182435924
0.0025 0.0045 4.81621065056
0.0025 0.0055 4.8275264538
0.0025 0.0065 4.84292041518
0.0025 0.0075 4.85737594494
0.0025 0.0085 4.86529765243
0.0025 0.0095 4.86319839613
0.0025 0.0105 4.85133935309
0.0025 0.0115 4.83063693293
0.0025 0.0125 4.79817805768
0.0025 0.0135 4.75427946535
0.0025 0.0145 4.70374728831
0.0025 0.0155 4.6504748675
0.0025 0.0165 4.59749378574
0.0025 0.0175 4.54550463874
0.0025 0.0185 4.49401393715
0.0025 0.0195 4.44234050465
0.0025 0.0205 4.39004204066
0.0025 0.0215 4.3369787571
0.0025 0.0225 4.28321367156
0.0025 0.0235 4.22888694163
0.0025 0.0245 4.17411529663
0.0025 0.0255 4.1189520505
0.0025 0.0265 4.06342926454
0.0025 0.0275 4.00768386895
0.0025 0.0285 3.95225837515
0.0025 0.0295 3.89896882026
0.0025 0.0305 3.85286731093
0.0025 0.0315 3.82419119872
0.0035 -0.0315 4.1660620642
0.0035 -0.0305 4.18954299139
0.0035 -0.0295 4.22956284296
0.0035 -0.0285 4.27844740618
0.0035 -0.0275 4.33063891539
0.0035 -0.0265 4.38289773616
0.0035 -0.0255 4.43354995677
0.0035 -0.0245 4.48179946073
0.0035 -0.0235 4.52747644923
0.0035 -0.0225 4.57103458462
0.0035 -0.0215 4.61355997747
0.0035 -0.0205 4.65664706
0.0035 -0.0195 4.70206608561
0.0035 -0.0185 4.75106300649
0.0035 -0.0175 4.80374355271
0.0035 -0.0165 4.85802640164
0.0035 -0.0155 4.90821332385
0.0035 -0.0145 4.9464878337
0.0035 -0.0135 4.96949327285
0.0035 -0.0125 4.9890881219
0.0035 -0.0115 5.03088986332
0.0035 -0.0105 5.10862615471
0.0035 -0.0095 5.20843106765
0.0035 -0.0085 5.29843169485
0.0035 -0.0075 5.3477450696
0.0035 -0.0065 5.34196237625
0.0035 -0.0055 5.28376182943
0.0035 -0.0045 5.18740125789
0.0035 -0.0035 5.08016945175
0.0035 -0.0025 4.99004589119
0.0035 -0.0015 4.92446620852
0.0035 -0.0005 4.87451362837
0.0035 0.0005 4.83137428914
0.0035 0.0015 4.7937999807
0.0035 0.0025 4.76580484649
0.0035 0.0035 4.75135124932
0.0035 0.0045 4.75241783471
0.0035 0.0055 4.76830044849
0.0035 0.0065 4.79410487572
0.0035 0.0075 4.82213673622
0.0035 0.0085 4.84215938235
0.0035 0.0095 4.84472530925
0.0035 0.0105 4.82906073654
0.0035 0.0115 4.80127983246
0.0035 0.0125 4.76486611586
0.0035 0.0135 4.72223998684
0.0035 0.0145 4.67613196872
0.0035 0.0155 4.62779915996
0.0035 0.0165 4.57853632155
0.0035 0.0175 4.5286239614
0.0035 0.0185 4.47777881208
0.0035 0.0195 4.42560755556
0.0035 0.0205 4.37189596412
0.0035 0.0215 4.3166868858
0.0035 0.0225 4.26018556556
0.0035 0.0235 4.20260054159
0.0035 0.0245 4.14403908758
0.0035 0.0255 4.08453367145
0.0035 0.0265 4.02420445206
0.0035 0.0275 3.96355577419
0.0035 0.0285 3.90401811809
0.0035 0.0295 3.84885424612
0.0035 0.0305 3.80403644626
0.0035 0.0315 3.7779484369
0.0045 -0.0315 4.12300252083
0.0045 -0.0305 4.14511210752
0.0045 -0.0295 4.18413842535
0.0045 -0.0285 4.23368233705
0.0045 -0.0275 4.28830634204
0.0045 -0.0265 4.34394835888
0.0045 -0.0255 4.39789558939
0.0045 -0.0245 4.44848347409
0.0045 -0.0235 4.49489058358
0.0045 -0.0225 4.53717661704
0.0045 -0.0215 4.57635610916
0.0045 -0.0205 4.61429418078
0.0045 -0.0195 4.65334888068
0.0045 -0.0185 4.69602425966
0.0045 -0.0175 4.74407104354
0.0045 -0.0165 4.79768728879
0.0045 -0.0155 4.85246562253
0.0045 -0.0145 4.89718877372
0.0045 -0.0135 4.92573992065
0.0045 -0.0125 4.95253040097
0.0045 -0.0115 5.00610277719
0.0045 -0.0105 5.10241277395
0.0045 -0.0095 5.22511754126
0.0045 -0.0085 5.33253950881
0.0045 -0.0075 5.39015427745
0.0045 -0.0065 5.39110161128
0.0045 -0.0055 5.34619837171
0.0045 -0.0045 5.2710325127
0.0045 -0.0035 5.18168509547
0.0045 -0.0025 5.09115757885
0.0045 -0.0015 5.00387675455
0.0045 -0.0005 4.91859201048
0.0045 0.0005 4.83783366389
0.0045 0.0015 4.76890952152
0.0045 0.0025 4.71833230262
0.0045 0.0035 4.68839592187
0.0045 0.0045 4.679048697
0.0045 0.0055 4.69028071062
0.0045 0.0065 4.71930903546
0.0045 0.0075 4.75718149328
0.0045 0.0085 4.78912386006
0.0045 0.0095 4.80027785491
0.0045 0.0105 4.78550803647
0.0045 0.0115 4.75340598199
0.0045 0.0125 4.71562303902
0.0045 0.0135 4.67734299824
0.0045 0.0145 4.63866282911
0.0045 0.0155 4.59804238713
0.0045 0.0165 4.55441056545
0.0045 0.0175 4.50753971479
0.0045 0.0185 4.45750102287
0.0045 0.0195 4.40450711749
0.0045 0.0205 4.34890560006
0.0045 0.0215 4.29113154851
0.0045 0.0225 4.23157329398
0.0045 0.0235 4.1704342599
0.0045 0.0245 4.10775183061
0.0045 0.0255 4.04361403118
0.0045 0.0265 3.97849111551
0.0045 0.0275 3.91363359196
0.0045 0.0285 3.85152289657
0.0045 0.0295 3.79621401536
0.0045 0.0305 3.75329283307
0.0045 0.0315 3.72929084489
0.0055 -0.0315 4.07821115038
0.0055 -0.0305 4.09969180113
0.0055 -0.0295 4.13826293496
0.0055 -0.0285 4.18829689836
0.0055 -0.0275 4.24468334896
0.0055 -0.0265 4.30311813887
0.0055 -0.0255 4.36019422084
0.0055 -0.0245 4.41337184293
0.0055 -0.0235 4.4609275632
0.0055 -0.0225 4.50216713557
0.0055 -0.0215 4.53783618714
0.0055 -0.0205 4.57020025346
0.0055 -0.0195 4.60270512122
0.0055 -0.0185 4.63904200939
0.0055 -0.0175 4.68178527002
0.0055 -0.0165 4.73088381657
0.0055 -0.0155 4.78091778691
0.0055 -0.0145 4.82104798903
0.0055 -0.0135 4.84692152566
0.0055 -0.0125 4.87635897044
0.0055 -0.0115 4.93914519204
0.0055 -0.0105 5.05035168609
0.0055 -0.0095 5.19232404615
0.0055 -0.0085 5.31551674345
0.0055 -0.0075 5.38123279006
0.0055 -0.0065 5.38906391983
0.0055 -0.0055 5.35574429996
0.0055 -0.0045 5.29724601564
0.0055 -0.0035 5.22402420479
0.0055 -0.0025 5.14108363024
0.0055 -0.0015 5.04888513214
0.0055 -0.0005 4.94798625955
0.0055 0.0005 4.84699868821
0.0055 0.0015 4.75975563811
0.0055 0.0025 4.69510980037
0.0055 0.0035 4.65383608084
0.0055 0.0045 4.63269828222
0.0055 0.0055 4.63029370852
0.0055 0.0065 4.64786142898
0.0055 0.0075 4.68165092
0.0055 0.0085 4.71683014864
0.0055 0.0095 4.73418686879
0.0055 0.0105 4.72416429561
0.0055 0.0115 4.69492653204
0.0055 0.0125 4.66113678347
0.0055 0.0135 4.62935394118
0.0055 0.0145 4.59866242361
0.0055 0.0155 4.5656326637
0.0055 0.0165 4.52748864804
0.0055 0.0175 4.48330547421
0.0055 0.0185 4.43351697592
0.0055 0.0195 4.37915552016
0.0055 0.0205 4.32135274399
0.0055 0.0215 4.26100164691
0.0055 0.0225 4.19851338642
0.0055 0.0235 4.1338673527
0.0055 0.0245 4.06698010993
0.0055 0.0255 3.99818273205
0.0055 0.0265 3.92861831593
0.0055 0.0275 3.86046963376
0.0055 0.0285 3.79698256223
0.0055 0.0295 3.74229335175
0.0055 0.0305 3.7011955299
0.0055 0.0315 3.67878583992
0.0065 -0.0315 4.03181002167
0.0065 -0.0305 4.05328743383
0.0065 -0.0295 4.09214639462
0.0065 -0.0285 4.14307794265
0.0065 -0.0275 4.20116318493
0.0065 -0.0265 4.26203964182
0.0065 -0.0255 4.32194213158
0.0065 -0.0245 4.37771276806
0.0065 -0.0235 4.42679055589
0.0065 -0.0225 4.46760283924
0.0065 -0.0215 4.50044758335
0.0065 -0.0205 4.52820706322
0.0065 -0.0195 4.55561918383
0.0065 -0.0185 4.58671081376
0.0065 -0.0175 4.62356414174
0.0065 -0.0165 4.66421305805
0.0065 -0.0155 4.70277644608
0.0065 -0.0145 4.7318592297
0.0065 -0.0135 4.75313450806
0.0065 -0.0125 4.78685357385
0.0065 -0.0115 4.85659242699
0.0065 -0.0105 4.97282430787
0.0065 -0.0095 5.12196753619
0.0065 -0.0085 5.25743740446
0.0065 -0.0075 5.33637422164
0.0065 -0.0065 5.35538627043
0.0065 -0.0055 5.33329887587
0.0065 -0.0045 5.28740592191
0.0065 -0.0035 5.22596031493
0.0065 -0.0025 5.15207232002
0.0065 -0.0015 5.06592931188
0.0065 -0.0005 4.96600330725
0.0065 0.0005 4.85899998229
0.0065 0.0015 4.76169804621
0.0065 0.0025 4.68795536351
0.0065 0.0035 4.64066705273
0.0065 0.0045 4.61392323408
0.0065 0.0055 4.60137986392
0.0065 0.0065 4.60274547348
0.0065 0.0075 4.62042670764
0.0065 0.0085 4.64768599513
0.0065 0.0095 4.66544101785
0.0065 0.0105 4.66056579665
0.0065 0.0115 4.63900048466
0.0065 0.0125 4.61273597624
0.0065 0.0135 4.58755672123
0.0065 0.0145 4.56300170534
0.0065 0.0155 4.53517721666
0.0065 0.0165 4.50037963069
0.0065 0.0175 4.45700229176
0.0065 0.0185 4.40596240756
0.0065 0.0195 4.34943308801
0.0065 0.0205 4.28947521273
0.0065 0.0215 4.22709170253
0.0065 0.0225 4.16215791125
0.0065 0.0235 4.09411943469
0.0065 0.0245 4.02287297937
0.0065 0.0255 3.94936448867
0.0065 0.0265 3.8757390411
0.0065 0.0275 3.80507302555
0.0065 0.0285 3.74097033705
0.0065 0.0295 3.68724647039
0.0065 0.0305 3.64784122287
0.0065 0.0315 3.62673524105
0.0075 -0.0315 3.98374035837
0.0075 -0.0305 4.0057251492
0.0075 -0.0295 4.04559414635
0.0075 -0.0285 4.09805529802
0.0075 -0.0275 4.15816561378
0.0075 -0.0265 4.22144610205
0.0075 -0.0255 4.28388585165
0.0075 -0.0245 4.34195433563
0.0075 -0.0235 4.39260763895
0.0075 -0.0225 4.43361955704
0.0075 -0.0215 4.46514426954
0.0075 -0.0205 4.49049305545
0.0075 -0.0195 4.51442301162
0.0075 -0.0185 4.54102113642
0.0075 -0.0175 4.570892828
0.0075 -0.0165 4.60095847891
0.0075 -0.0155 4.62745723662
0.0075 -0.0145 4.64819124805
0.0075 -0.0135 4.67102657781
0.0075 -0.0125 4.71071957678
0.0075 -0.0115 4.77964578849
0.0075 -0.0105 4.88990265848
0.0075 -0.0095 5.03430679303
0.0075 -0.0085 5.17381934981
0.0075 -0.0075 5.26813669319
0.0075 -0.0065 5.30521779781
0.0075 -0.0055 5.29830422136
0.0075 -0.0045 5.26437687011
0.0075 -0.0035 5.21230971648
0.0075 -0.0025 5.14644447543
0.0075 -0.0015 5.06790309525
0.0075 -0.0005 4.97338929814
0.0075 0.0005 4.86611079669
0.0075 0.0015 4.76299107865
0.0075 0.0025 4.68227889044
0.0075 0.0035 4.63073934237
0.0075 0.0045 4.60202829424
0.0075 0.0055 4.58617284621
0.0075 0.0065 4.5790921858
0.0075 0.0075 4.58285080032
0.0075 0.0085 4.59725977516
0.0075 0.0095 4.61088372969
0.0075 0.0105 4.6096394713
0.0075 0.0115 4.59459269021
0.0075 0.0125 4.57519243661
0.0075 0.0135 4.55551797994
0.0075 0.0145 4.53485259822
0.0075 0.0155 4.50945708211
0.0075 0.0165 4.47490215797
0.0075 0.0175 4.42933380562
0.0075 0.0185 4.3748487407
0.0075 0.0195 4.31544843662
0.0075 0.0205 4.25394927899
0.0075 0.0215 4.19045017392
0.0075 0.0225 4.12345059892
0.0075 0.0235 4.05172965935
0.0075 0.0245 3.97560138924
0.0075 0.0255 3.89723839132
0.0075 0.0265 3.81999725248
0.0075 0.0275 3.74757662797
0.0075 0.0285 3.68351007114
0.0075 0.0295 3.631038785
0.0075 0.0305 3.59327340256
0.0075 0.0315 3.57330357743
0.0085 -0.0315 3.93377593396
0.0085 -0.0305 3.95671068456
0.0085 -0.0295 3.99822870687
0.0085 -0.0285 4.05287026853
0.0085 -0.0275 4.11549193741
0.0085 -0.0265 4.18136062982
0.0085 -0.0255 4.24615355392
0.0085 -0.0245 4.30601984704
0.0085 -0.0235 4.35773450693
0.0085 -0.0225 4.39910319504
0.0085 -0.0215 4.43092085944
0.0085 -0.0205 4.45580882289
0.0085 -0.0195 4.47754899924
0.0085 -0.0185 4.50011728714
0.0085 -0.0175 4.52257015547
0.0085 -0.0165 4.54288811399
0.0085 -0.0155 4.56090208633
0.0085 -0.0145 4.57934915971
0.0085 -0.0135 4.60585480751
0.0085 -0.0125 4.64680158872
0.0085 -0.0115 4.71006792722
0.0085 -0.0105 4.80954899991
0.0085 -0.0095 4.94067422528
0.0085 -0.0085 5.07358219755
0.0085 -0.0075 5.17682695624
0.0085 -0.0065 5.23294005333
0.0085 -0.0055 5.24496730295
0.0085 -0.0045 5.22517521501
0.0085 -0.0035 5.18295738133
0.0085 -0.0025 5.12396506232
0.0085 -0.0015 5.0500798468
0.0085 -0.0005 4.95978387283
0.0085 0.0005 4.85663915643
0.0085 0.0015 4.75527309226
0.0085 0.0025 4.67320013199
0.0085 0.0035 4.61918277004
0.0085 0.0045 4.58908232376
0.0085 0.0055 4.57272205649
0.0085 0.0065 4.56344688486
0.0085 0.0075 4.56083537061
0.0085 0.0085 4.56648898977
0.0085 0.0095 4.5761263251
0.0085 0.0105 4.57738195781
0.0085 0.0115 4.56605692792
0.0085 0.0125 4.54982313266
0.0085 0.0135 4.53299127667
0.0085 0.0145 4.51403650849
0.0085 0.0155 4.48847004973
0.0085 0.0165 4.45101641533
0.0085 0.0175 4.39995986211
0.0085 0.0185 4.34013719954
0.0085 0.0195 4.27816083109
0.0085 0.0205 4.2160959115
0.0085 0.0215 4.15193449598
0.0085 0.0225 4.08238075119
0.0085 0.0235 4.00584284877
0.0085 0.0245 3.92407355926
0.0085 0.0255 3.84103743992
0.0085 0.0265 3.76109342348
0.0085 0.0275 3.68799069206
0.0085 0.0285 3.62471460013
0.0085 0.0295 3.57376955634
0.0085 0.0305 3.53755696689
0.0085 0.0315 3.51854735406
0.0095 -0.0315 3.88165369549
0.0095 -0.0305 3.90588210907
0.0095 -0.0295 3.94955144819
0.0095 -0.0285 4.00691029929
0.0095 -0.0275 4.07251090569
0.0095 -0.0265 4.14124947017
0.0095 -0.0255 4.20836555569
0.0095 -0.0245 4.26956037339
0.0095 -0.0235 4.32148190353
0.0095 -0.0225 4.36260913193
0.0095 -0.0215 4.39463321688
0.0095 -0.0205 4.41968702267
0.0095 -0.0195 4.44082243907
0.0095 -0.0185 4.4602404865
0.0095 -0.0175 4.47616403029
0.0095 -0.0165 4.48923670711
0.0095 -0.0155 4.50304045084
0.0095 -0.0145 4.52215914155
0.0095 -0.0135 4.54981478556
0.0095 -0.0125 4.5884062884
0.0095 -0.0115 4.64644256841
0.0095 -0.0105 4.73333280517
0.0095 -0.0095 4.84496284809
0.0095 -0.0085 4.96277924437
0.0095 -0.0075 5.06359439234
0.0095 -0.0065 5.13042270788
0.0095 -0.0055 5.15923610191
0.0095 -0.0045 5.15482283188
0.0095 -0.0035 5.12411074618
0.0095 -0.0025 5.0727009743
0.0095 -0.0015 5.00370231516
0.0095 -0.0005 4.91948695451
0.0095 0.0005 4.82582939758
0.0095 0.0015 4.73411064287
0.0095 0.0025 4.6576344771
0.0095 0.0035 4.60460172455
0.0095 0.0045 4.57403125247
0.0095 0.0055 4.55837596886
0.0095 0.0065 4.54994655623
0.0095 0.0075 4.54598455217
0.0095 0.0085 4.54858578215
0.0095 0.0095 4.55768210234
0.0095 0.0105 4.56390510078
0.0095 0.0115 4.55698914455
0.0095 0.0125 4.54014492072
0.0095 0.0135 4.52120469549
0.0095 0.0145 4.50011551803
0.0095 0.0155 4.47090369785
0.0095 0.0165 4.4269661328
0.0095 0.0175 4.3674940766
0.0095 0.0185 4.30121521745
0.0095 0.0195 4.23774822232
0.0095 0.0205 4.17634887439
0.0095 0.0215 4.11079189137
0.0095 0.0225 4.03664259193
0.0095 0.0235 3.95370331002
0.0095 0.0245 3.86623577419
0.0095 0.0255 3.77982772579
0.0095 0.0265 3.69899918225
0.0095 0.0275 3.62671859939
0.0095 0.0285 3.5650316811
0.0095 0.0295 3.51573896075
0.0095 0.0305 3.48079951432
0.0095 0.0315 3.46241413362
0.0105 -0.0315 3.82717632921
0.0105 -0.0305 3.85287590344
0.0105 -0.0295 3.89896859095
0.0105 -0.0285 3.95934999197
0.0105 -0.0275 4.02824129455
0.0105 -0.0265 4.10011888888
0.0105 -0.0255 4.16967721085
0.0105 -0.0245 4.23204763125
0.0105 -0.0235 4.28355440415
0.0105 -0.0225 4.32351594047
0.0105 -0.0215 4.35428288963
0.0105 -0.0205 4.37908259657
0.0105 -0.0195 4.40053482323
0.0105 -0.0185 4.41770787131
0.0105 -0.0175 4.42923453907
0.0105 -0.0165 4.4383438649
0.0105 -0.0155 4.45092691648
0.0105 -0.0145 4.47078647498
0.0105 -0.0135 4.4979328458
0.0105 -0.0125 4.53352135953
0.0105 -0.0115 4.58471841243
0.0105 -0.0105 4.65648234731
0.0105 -0.0095 4.74550554274
0.0105 -0.0085 4.84146008863
0.0105 -0.0075 4.92916456648
0.0105 -0.0065 4.99585313862
0.0105 -0.0055 5.0343695143
0.0105 -0.0045 5.04337727375
0.0105 -0.0035 5.02557725923
0.0105 -0.0025 4.98505223051
0.0105 -0.0015 4.92605579399
0.0105 -0.0005 4.8536700971
0.0105 0.0005 4.77472446533
0.0105 0.0015 4.69796553265
0.0105 0.0025 4.6326545861
0.0105 0.0035 4.58549915288
0.0105 0.0045 4.55748426864
0.0105 0.0055 4.54397520303
0.0105 0.0065 4.53777371199
0.0105 0.0075 4.53481942663
0.0105 0.0085 4.53751749825
0.0105 0.0095 4.54968321134
0.0105 0.0105 4.56570263829
0.0105 0.0115 4.56898788365
0.0105 0.0125 4.55307277162
0.0105 0.0135 4.52648394712
0.0105 0.0145 4.49527218852
0.0105 0.0155 4.45581863078
0.0105 0.0165 4.40091071174
0.0105 0.0175 4.33178590904
0.0105 0.0185 4.26033362626
0.0105 0.0195 4.19563351078
0.0105 0.0205 4.1331057959
0.0105 0.0215 4.06268072089
0.0105 0.0225 3.98096197331
0.0105 0.0235 3.89135794361
0.0105 0.0245 3.80017383904
0.0105 0.0255 3.713470415
0.0105 0.0265 3.63448644047
0.0105 0.0275 3.56469650451
0.0105 0.0285 3.50518797968
0.0105 0.0295 3.45737464419
0.0105 0.0305 3.42316016173
0.0105 0.0315 3.40491494497
0.0115 -0.0315 3.77027694312
0.0115 -0.0305 3.79734505475
0.0115 -0.0295 3.84579270515
0.0115 -0.0285 3.90917964173
0.0115 -0.0275 3.98142228774
0.0115 -0.0265 4.05661402714
0.0115 -0.0255 4.12886540114
0.0115 -0.0245 4.19266205141
0.0115 -0.0235 4.24403195508
0.0115 -0.0225 4.28297407335
0.0115 -0.0215 4.31214269817
0.0115 -0.0205 4.33588250045
0.0115 -0.0195 4.35671659818
0.0115 -0.0185 4.37226436055
0.0115 -0.0175 4.38173849186
0.0115 -0.0165 4.38959073697
0.0115 -0.0155 4.40240654085
0.0115 -0.0145 4.42222410758
0.0115 -0.0135 4.4473817304
0.0115 -0.0125 4.47884935457
0.0115 -0.0115 4.51991150874
0.0115 -0.0105 4.57267803838
0.0115 -0.0095 4.63640890927
0.0115 -0.0085 4.70637596544
0.0115 -0.0075 4.77453225688
0.0115 -0.0065 4.83237272076
0.0115 -0.0055 4.87285447921
0.0115 -0.0045 4.89167382429
0.0115 -0.0035 4.88769309192
0.0115 -0.0025 4.86262254927
0.0115 -0.0015 4.82033339089
0.0115 -0.0005 4.76618498812
0.0115 0.0005 4.70653257994
0.0115 0.0015 4.64826230834
0.0115 0.0025 4.59811236515
0.0115 0.0035 4.56144886888
0.0115 0.0045 4.53990354492
0.0115 0.0055 4.53043730849
0.0115 0.0065 4.52709360398
0.0115 0.0075 4.52597344892
0.0115 0.0085 4.53027912429
0.0115 0.0095 4.54804019556
0.0115 0.0105 4.57727019457
0.0115 0.0115 4.59720580963
0.0115 0.0125 4.589340969
0.0115 0.0135 4.55423325942
0.0115 0.0145 4.5020719233
0.0115 0.0155 4.43972304125
0.0115 0.0165 4.36796312053
0.0115 0.0175 4.29078806661
0.0115 0.0185 4.21708383993
0.0115 0.0195 4.14975161897
0.0115 0.0205 4.08133934197
0.0115 0.0215 4.00094837835
0.0115 0.0225 3.9095258814
0.0115 0.0235 3.81584565221
0.0115 0.0245 3.72584501916
0.0115 0.0255 3.64338225247
0.0115 0.0265 3.56916767372
0.0115 0.0275 3.50314788224
0.0115 0.0285 3.44595287287
0.0115 0.0295 3.39908330586
0.0115 0.0305 3.36481770949
0.0115 0.0315 3.34617560848
0.0125 -0.0315 3.7109201744
0.0125 -0.0305 3.73892394771
0.0125 -0.0295 3.78921668041
0.0125 -0.0285 3.85523099638
0.0125 -0.0275 3.93064409851
0.0125 -0.0265 4.00919111964
0.0125 -0.0255 4.08450643277
0.0125 -0.0245 4.1503576989
0.0125 -0.0235 4.2028707844
0.0125 -0.0225 4.24189964865
0.0125 -0.0215 4.27047308958
0.0125 -0.0205 4.29349099924
0.0125 -0.0195 4.31317604671
0.0125 -0.0185 4.3282147971
0.0125 -0.0175 4.33714019452
0.0125 -0.0165 4.34405547298
0.0125 -0.0155 4.35624297593
0.0125 -0.0145 4.37480383426
0.0125 -0.0135 4.39631489719
0.0125 -0.0125 4.4194740115
0.0125 -0.0115 4.44471040043
0.0125 -0.0105 4.47392865117
0.0125 -0.0095 4.50981452292
0.0125 -0.0085 4.55245335254
0.0125 -0.0075 4.59921601413
0.0125 -0.0065 4.64503425725
0.0125 -0.0055 4.68381314182
0.0125 -0.0045 4.71008929472
0.0125 -0.0035 4.72044025026
0.0125 -0.0025 4.71424984083
0.0125 -0.0015 4.69357086373
0.0125 -0.0005 4.66232822624
0.0125 0.0005 4.6254470634
0.0125 0.0015 4.58825278608
0.0125 0.0025 4.55599414425
0.0125 0.0035 4.53296260878
0.0125 0.0045 4.52072300377
0.0125 0.0055 4.51695215412
0.0125 0.0065 4.51708074597
0.0125 0.0075 4.51843235209
0.0125 0.0085 4.52527799867
0.0125 0.0095 4.54922885596
0.0125 0.0105 4.59135447201
0.0125 0.0115 4.62857629692
0.0125 0.0125 4.632933432
0.0125 0.0135 4.59241854608
0.0125 0.0145 4.51317583954
0.0125 0.0155 4.414688409
0.0125 0.0165 4.3171263651
0.0125 0.0175 4.23129231754
0.0125 0.0185 4.15732152661
0.0125 0.0195 4.08735693594
0.0125 0.0205 4.0100396831
0.0125 0.0215 3.91790225684
0.0125 0.0225 3.82016714921
0.0125 0.0235 3.72886577381
0.0125 0.0245 3.64643183934
0.0125 0.0255 3.57246899505
0.0125 0.0265 3.50494255354
0.0125 0.0275 3.44314632916
0.0125 0.0285 3.387865057
0.0125 0.0295 3.34106186532
0.0125 0.0305 3.30579696244
0.0125 0.0315 3.28616078968
0.0135 -0.0315 3.64903659378
0.0135 -0.0305 3.6771835809
0.0135 -0.0295 3.72831339544
0.0135 -0.0285 3.79621524547
0.0135 -0.0275 3.87449667868
0.0135 -0.0265 3.95646649235
0.0135 -0.0255 4.03524143894
0.0135 -0.0245 4.10436815027
0.0135 -0.0235 4.1599547703
0.0135 -0.0225 4.20073527679
0.0135 -0.0215 4.23020476349
0.0135 -0.0205 4.25412295354
0.0135 -0.0195 4.27517390932
0.0135 -0.0185 4.29182942798
0.0135 -0.0175 4.30002770326
0.0135 -0.0165 4.30435731395
0.0135 -0.0155 4.31338309284
0.0135 -0.0145 4.32735980523
0.0135 -0.0135 4.34105221733
0.0135 -0.0125 4.34933250916
0.0135 -0.0115 4.3515112102
0.0135 -0.0105 4.35238819401
0.0135 -0.0095 4.35879273407
0.0135 -0.0085 4.37537576477
0.0135 -0.0075 4.40284014753
0.0135 -0.0065 4.43806020139
0.0135 -0.0055 4.47557120524
0.0135 -0.0045 4.50946286985
0.0135 -0.0035 4.53501871975
0.0135 -0.0025 4.54970745773
0.0135 -0.0015 4.55338150063
0.0135 -0.0005 4.54782117013
0.0135 0.0005 4.53601850021
0.0135 0.0015 4.52164131041
0.0135 0.0025 4.50862897862
0.0135 0.0035 4.50039393295
0.0135 0.0045 4.49857235247
0.0135 0.0055 4.50149000999
0.0135 0.0065 4.50589562562
0.0135 0.0075 4.51059775659
0.0135 0.0085 4.52061816038
0.0135 0.0095 4.54899652848
0.0135 0.0105 4.59770741273
0.0135 0.0115 4.64377298565
0.0135 0.0125 4.65586985166
0.0135 0.0135 4.61312215777
0.0135 0.0145 4.51307749433
0.0135 0.0155 4.37888371574
0.0135 0.0165 4.24944491556
0.0135 0.0175 4.14718440132
0.0135 0.0185 4.06806051058
0.0135 0.0195 3.99443539731
0.0135 0.0205 3.90933803295
0.0135 0.0215 3.81153951686
0.0135 0.0225 3.71788523237
0.0135 0.0235 3.63791927154
0.0135 0.0245 3.56778366824
0.0135 0.0255 3.50387332556
0.0135 0.0265 3.44325956551
0.0135 0.0275 3.38524779001
0.0135 0.0285 3.33093413132
0.0135 0.0295 3.28301909046
0.0135 0.0305 3.24573605833
0.0135 0.0315 3.22453876926
0.0145 -0.0315 3.5846805095
0.0145 -0.0305 3.61174017943
0.0145 -0.0295 3.66216884009
0.0145 -0.0285 3.73089105036
0.0145 -0.0275 3.8117424437
0.0145 -0.0265 3.89746633999
0.0145 -0.0255 3.98041671476
0.0145 -0.0245 4.05397282136
0.0145 -0.0235 4.11398243989
0.0145 -0.0225 4.15916588546
0.0145 -0.0215 4.19271110053
0.0145 -0.0205 4.22120069554
0.0145 -0.0195 4.24894465063
0.0145 -0.0185 4.26894589119
0.0145 -0.0175 4.27402373372
0.0145 -0.0165 4.27300944589
0.0145 -0.0155 4.27578797208
0.0145 -0.0145 4.2801445377
0.0145 -0.0135 4.27760841132
0.0145 -0.0125 4.26147810119
0.0145 -0.0115 4.23290809694
0.0145 -0.0105 4.20161524602
0.0145 -0.0095 4.17930573562
0.0145 -0.0085 4.17364459053
0.0145 -0.0075 4.18649601281
0.0145 -0.0065 4.21513264469
0.0145 -0.0055 4.25421769551
0.0145 -0.0045 4.29763593199
0.0145 -0.0035 4.33986048304
0.0145 -0.0025 4.37683833755
0.0145 -0.0015 4.40636792486
0.0145 -0.0005 4.42799492771
0.0145 0.0005 4.44258719657
0.0145 0.0015 4.45187115535
0.0145 0.0025 4.45818649665
0.0145 0.0035 4.46417016767
0.0145 0.0045 4.47211466581
0.0145 0.0055 4.48170481957
0.0145 0.0065 4.49103590729
0.0145 0.0075 4.49975350766
0.0145 0.0085 4.51285497356
0.0145 0.0095 4.54173911665
0.0145 0.0105 4.58708480769
0.0145 0.0115 4.62919018375
0.0145 0.0125 4.64162011888
0.0145 0.0135 4.60084856389
0.0145 0.0145 4.49189731002
0.0145 0.0155 4.3332757293
0.0145 0.0165 4.17643130463
0.0145 0.0175 4.05328679175
0.0145 0.0185 3.9597347054
0.0145 0.0195 3.87768783391
0.0145 0.0205 3.79065294058
0.0145 0.0215 3.70027959314
0.0145 0.0225 3.62012190583
0.0145 0.0235 3.55362232963
0.0145 0.0245 3.49500808698
0.0145 0.0255 3.43964341533
0.0145 0.0265 3.38471662252
0.0145 0.0275 3.32912830819
0.0145 0.0285 3.27422871098
0.0145 0.0295 3.22385587466
0.0145 0.0305 3.18379498314
0.0145 0.0315 3.16079827024
0.0155 -0.0315 3.51826613351
0.0155 -0.0305 3.54263136203
0.0155 -0.0295 3.5903539214
0.0155 -0.0285 3.65855455753
0.0155 -0.0275 3.74165362034
0.0155 -0.0265 3.8316372448
0.0155 -0.0255 3.91971738255
0.0155 -0.0245 3.99864140259
0.0155 -0.0235 4.0644791735
0.0155 -0.0225 4.11700453596
0.0155 -0.0215 4.1596950228
0.0155 -0.0205 4.20040359042
0.0155 -0.0195 4.23993715738
0.0155 -0.0185 4.26258034137
0.0155 -0.0175 4.2613210336
0.0155 -0.0165 4.25116349506
0.0155 -0.0155 4.24359628656
0.0155 -0.0145 4.2319206663
0.0155 -0.0135 4.20220803158
0.0155 -0.0125 4.14975928698
0.0155 -0.0115 4.08333926893
0.0155 -0.0105 4.01911894361
0.0155 -0.0095 3.97201504899
0.0155 -0.0085 3.94983167295
0.0155 -0.0075 3.95361462591
0.0155 -0.0065 3.98015078459
0.0155 -0.0055 4.02416839674
0.0155 -0.0045 4.07957789095
0.0155 -0.0035 4.14031419757
0.0155 -0.0025 4.20103887025
0.0155 -0.0015 4.25763242537
0.0155 -0.0005 4.3073857566
0.0155 0.0005 4.34890081127
0.0155 0.0015 4.3818039397
0.0155 0.0025 4.40659296552
0.0155 0.0035 4.42532580384
0.0155 0.0045 4.44120369512
0.0155 0.0055 4.45615637796
0.0155 0.0065 4.47004803052
0.0155 0.0075 4.48230443566
0.0155 0.0085 4.49696684115
0.0155 0.0095 4.5222405045
0.0155 0.0105 4.55784757836
0.0155 0.0115 4.58990767266
0.0155 0.0125 4.59952879218
0.0155 0.0135 4.56008933539
0.0155 0.0145 4.44638087528
0.0155 0.0155 4.27429667219
0.0155 0.0165 4.09837365261
0.0155 0.0175 3.95658320746
0.0155 0.0185 3.84918246544
0.0155 0.0195 3.76125758301
0.0155 0.0205 3.67980077953
0.0155 0.0215 3.60436592218
0.0155 0.0225 3.53890423158
0.0155 0.0235 3.48174631773
0.0155 0.0245 3.43015061154
0.0155 0.0255 3.38033822904
0.0155 0.0265 3.32862618676
0.0155 0.0275 3.27303586911
0.0155 0.0285 3.21544163795
0.0155 0.0295 3.1615796911
0.0155 0.0305 3.11879234204
0.0155 0.0315 3.09446047703
0.0165 -0.0315 3.45082776532
0.0165 -0.0305 3.47096025088
0.0165 -0.0295 3.51395140944
0.0165 -0.0285 3.58003034137
0.0165 -0.0275 3.66452419031
0.0165 -0.0265 3.7585946282
0.0165 -0.0255 3.85229358634
0.0165 -0.0245 3.93798409484
0.0165 -0.0235 4.01232218429
0.0165 -0.0225 4.07573170275
0.0165 -0.0215 4.13406381705
0.0165 -0.0205 4.19407994411
0.0165 -0.0195 4.24657921982
0.0165 -0.0185 4.27012554234
0.0165 -0.0175 4.26042041568
0.0165 -0.0165 4.2366951045
0.0165 -0.0155 4.21210273728
0.0165 -0.0145 4.17548378171
0.0165 -0.0135 4.10695208996