% Model:              Benchmark260518.mph
% Version:            COMSOL 6.2.0.339
% Date:               May 21 2026, 16:33
% Dimension:          2
% Nodes:              4096
% Expressions:        1
% Description:        压力
% Length unit:        m
% x                       y                        p (Pa)
% mirrored_by_python_y_to_minus_y, coord_match_decimals=12
0.0005 -0.0315 4.98477773852
0.0005 -0.0305 4.99070386043
0.0005 -0.0295 4.99578022165
0.0005 -0.0285 5.00034501427
0.0005 -0.0275 5.00485980822
0.0005 -0.0265 5.01010765151
0.0005 -0.0255 5.01711172068
0.0005 -0.0245 5.0244499008
0.0005 -0.0235 5.0297651414
0.0005 -0.0225 5.03249704663
0.0005 -0.0215 5.03439082723
0.0005 -0.0205 5.03307371505
0.0005 -0.0195 5.01117173882
0.0005 -0.0185 4.94093877225
0.0005 -0.0175 4.79334357601
0.0005 -0.0165 4.62172759398
0.0005 -0.0155 4.53488423977
0.0005 -0.0145 4.52335647381
0.0005 -0.0135 4.52711062068
0.0005 -0.0125 4.53543447809
0.0005 -0.0115 4.54980687225
0.0005 -0.0105 4.57341194759
0.0005 -0.0095 4.6062960851
0.0005 -0.0085 4.64415855304
0.0005 -0.0075 4.68023997616
0.0005 -0.0065 4.70821599456
0.0005 -0.0055 4.72426552599
0.0005 -0.0045 4.72816970469
0.0005 -0.0035 4.72330729607
0.0005 -0.0025 4.71485373632
0.0005 -0.0015 4.70736983902
0.0005 -0.0005 4.70374696121
0.0005 0.0005 4.70493648151
0.0005 0.0015 4.71022043149
0.0005 0.0025 4.71794700748
0.0005 0.0035 4.72621529292
0.0005 0.0045 4.73344886084
0.0005 0.0055 4.73888630663
0.0005 0.0065 4.74220733216
0.0005 0.0075 4.74240993347
0.0005 0.0085 4.73686087797
0.0005 0.0095 4.71964425732
0.0005 0.0105 4.68272412222
0.0005 0.0115 4.62532713851
0.0005 0.0125 4.55328351226
0.0005 0.0135 4.47289250118
0.0005 0.0145 4.38942341644
0.0005 0.0155 4.30475833546
0.0005 0.0165 4.21945387117
0.0005 0.0175 4.13400555909
0.0005 0.0185 4.04872895139
0.0005 0.0195 3.96402650044
0.0005 0.0205 3.88041037678
0.0005 0.0215 3.7983982465
0.0005 0.0225 3.71838276209
0.0005 0.0235 3.64050088945
0.0005 0.0245 3.56466102638
0.0005 0.0255 3.49068290557
0.0005 0.0265 3.4184766739
0.0005 0.0275 3.34814066598
0.0005 0.0285 3.28009624984
0.0005 0.0295 3.21510281958
0.0005 0.0305 3.15536279622
0.0005 0.0315 3.11149955023
0.0015 -0.0315 4.95351777184
0.0015 -0.0305 4.96045299309
0.0015 -0.0295 4.97257430169
0.0015 -0.0285 4.98640130699
0.0015 -0.0275 5.00065444953
0.0015 -0.0265 5.01422612724
0.0015 -0.0255 5.02461903682
0.0015 -0.0245 5.03055054167
0.0015 -0.0235 5.03335574364
0.0015 -0.0225 5.03629139023
0.0015 -0.0215 5.04439705662
0.0015 -0.0205 5.05683647777
0.0015 -0.0195 5.05597833332
0.0015 -0.0185 5.00535890376
0.0015 -0.0175 4.86691969069
0.0015 -0.0165 4.65976823644
0.0015 -0.0155 4.53541908163
0.0015 -0.0145 4.5227825922
0.0015 -0.0135 4.5248480711
0.0015 -0.0125 4.53167972585
0.0015 -0.0115 4.54464171158
0.0015 -0.0105 4.56717009216
0.0015 -0.0095 4.59939542736
0.0015 -0.0085 4.63648538886
0.0015 -0.0075 4.67127527973
0.0015 -0.0065 4.69750866981
0.0015 -0.0055 4.71185544751
0.0015 -0.0045 4.71486571383
0.0015 -0.0035 4.71020739995
0.0015 -0.0025 4.70279886475
0.0015 -0.0015 4.69680483008
0.0015 -0.0005 4.69490707711
0.0015 0.0005 4.69801557522
0.0015 0.0015 4.70540666009
0.0015 0.0025 4.71532294936
0.0015 0.0035 4.72556715506
0.0015 0.0045 4.7341804132
0.0015 0.0055 4.74026931939
0.0015 0.0065 4.74382715613
0.0015 0.0075 4.74419387142
0.0015 0.0085 4.73928143065
0.0015 0.0095 4.72461133794
0.0015 0.0105 4.691942224
0.0015 0.0115 4.63808138307
0.0015 0.0125 4.5673316447
0.0015 0.0135 4.48541749908
0.0015 0.0145 4.39787796209
0.0015 0.0155 4.30791787786
0.0015 0.0165 4.21691382868
0.0015 0.0175 4.12551555916
0.0015 0.0185 4.03440293015
0.0015 0.0195 3.94457172736
0.0015 0.0205 3.857142227
0.0015 0.0215 3.77290440375
0.0015 0.0225 3.69197747192
0.0015 0.0235 3.61384927183
0.0015 0.0245 3.53771466813
0.0015 0.0255 3.46287612139
0.0015 0.0265 3.38896893152
0.0015 0.0275 3.31598709937
0.0015 0.0285 3.24422721302
0.0015 0.0295 3.1745892899
0.0015 0.0305 3.11089987811
0.0015 0.0315 3.06716621081
0.0025 -0.0315 4.92451601428
0.0025 -0.0305 4.93292089729
0.0025 -0.0295 4.94875453998
0.0025 -0.0285 4.96936539833
0.0025 -0.0275 4.99114477858
0.0025 -0.0265 5.0104306374
0.0025 -0.0255 5.02420777746
0.0025 -0.0245 5.03187426189
0.0025 -0.0235 5.03559212417
0.0025 -0.0225 5.04210381528
0.0025 -0.0215 5.06131223223
0.0025 -0.0205 5.09436408418
0.0025 -0.0195 5.12487208397
0.0025 -0.0185 5.1139542107
0.0025 -0.0175 5.01930742603
0.0025 -0.0165 4.8311766204
0.0025 -0.0155 4.64687410576
0.0025 -0.0145 4.55942378372
0.0025 -0.0135 4.53706470642
0.0025 -0.0125 4.53654731577
0.0025 -0.0115 4.54691176762
0.0025 -0.0105 4.56688175097
0.0025 -0.0095 4.59498728597
0.0025 -0.0085 4.62593714207
0.0025 -0.0075 4.65340840684
0.0025 -0.0065 4.67262656158
0.0025 -0.0055 4.68174184842
0.0025 -0.0045 4.68229863843
0.0025 -0.0035 4.67768980097
0.0025 -0.0025 4.67166091877
0.0025 -0.0015 4.66739231373
0.0025 -0.0005 4.66708324233
0.0025 0.0005 4.67182639307
0.0025 0.0015 4.68159264867
0.0025 0.0025 4.69523585554
0.0025 0.0035 4.71079573158
0.0025 0.0045 4.72572892754
0.0025 0.0055 4.73744809969
0.0025 0.0065 4.74431218999
0.0025 0.0075 4.7450722579
0.0025 0.0085 4.73815283848
0.0025 0.0095 4.72186770607
0.0025 0.0105 4.69235187592
0.0025 0.0115 4.64498065303
0.0025 0.0125 4.5790763177
0.0025 0.0135 4.49806018444
0.0025 0.0145 4.40690961046
0.0025 0.0155 4.30981733662
0.0025 0.0165 4.20918931361
0.0025 0.0175 4.10669951954
0.0025 0.0185 4.00464474533
0.0025 0.0195 3.90579325837
0.0025 0.0205 3.81238293589
0.0025 0.0215 3.72516223341
0.0025 0.0225 3.64325069598
0.0025 0.0235 3.5647966141
0.0025 0.0245 3.48792230242
0.0025 0.0255 3.41136855829
0.0025 0.0265 3.33464334536
0.0025 0.0275 3.25787384343
0.0025 0.0285 3.18181186463
0.0025 0.0295 3.10881247301
0.0025 0.0305 3.04563578221
0.0025 0.0315 3.00635766361
0.0035 -0.0315 4.89531079332
0.0035 -0.0305 4.90496578891
0.0035 -0.0295 4.92348692529
0.0035 -0.0285 4.94823500308
0.0035 -0.0275 4.9748749191
0.0035 -0.0265 4.99912269146
0.0035 -0.0255 5.01809727377
0.0035 -0.0245 5.03033268611
0.0035 -0.0235 5.03829711503
0.0035 -0.0225 5.05301067422
0.0035 -0.0215 5.08870802152
0.0035 -0.0205 5.14746615907
0.0035 -0.0195 5.21504120678
0.0035 -0.0185 5.25188418314
0.0035 -0.0175 5.20662552364
0.0035 -0.0165 5.05999628378
0.0035 -0.0155 4.86398649227
0.0035 -0.0145 4.71015706571
0.0035 -0.0135 4.63031175254
0.0035 -0.0125 4.59869474779
0.0035 -0.0115 4.59213920553
0.0035 -0.0105 4.59837322377
0.0035 -0.0095 4.61002053711
0.0035 -0.0085 4.62175003121
0.0035 -0.0075 4.63064250278
0.0035 -0.0065 4.63576604409
0.0035 -0.0055 4.63710119872
0.0035 -0.0045 4.63530284443
0.0035 -0.0035 4.63136148473
0.0035 -0.0025 4.62669584992
0.0035 -0.0015 4.62312135766
0.0035 -0.0005 4.62264628768
0.0035 0.0005 4.6270373353
0.0035 0.0015 4.63732118212
0.0035 0.0025 4.65347099898
0.0035 0.0035 4.674089955
0.0035 0.0045 4.69682285097
0.0035 0.0055 4.71813646969
0.0035 0.0065 4.7334061798
0.0035 0.0075 4.73787982442
0.0035 0.0085 4.72926356772
0.0035 0.0095 4.70931726728
0.0035 0.0105 4.6798937019
0.0035 0.0115 4.63789155768
0.0035 0.0125 4.57819342515
0.0035 0.0135 4.50065365836
0.0035 0.0145 4.40883966548
0.0035 0.0155 4.3054828621
0.0035 0.0165 4.19296875117
0.0035 0.0175 4.07553281548
0.0035 0.0185 3.9593069761
0.0035 0.0195 3.85023109269
0.0035 0.0205 3.75136490415
0.0035 0.0215 3.66218205508
0.0035 0.0225 3.57975358429
0.0035 0.0235 3.500602518
0.0035 0.0245 3.42211855555
0.0035 0.0255 3.34302005609
0.0035 0.0265 3.26316501767
0.0035 0.0275 3.18326319449
0.0035 0.0285 3.10513894081
0.0035 0.0295 3.03286225483
0.0035 0.0305 2.97413717944
0.0035 0.0315 2.94002366138
0.0045 -0.0315 4.86559329759
0.0045 -0.0305 4.87566510509
0.0045 -0.0295 4.89566870177
0.0045 -0.0285 4.92278841549
0.0045 -0.0275 4.95265933505
0.0045 -0.0265 4.98148926686
0.0045 -0.0255 5.00615022075
0.0045 -0.0245 5.0243116892
0.0045 -0.0235 5.03978166251
0.0045 -0.0225 5.06726666379
0.0045 -0.0215 5.12320413704
0.0045 -0.0205 5.21022227177
0.0045 -0.0195 5.31373776003
0.0045 -0.0185 5.39139076224
0.0045 -0.0175 5.38992968908
0.0045 -0.0165 5.28968050945
0.0045 -0.0155 5.12180858662
0.0045 -0.0145 4.95083387035
0.0045 -0.0135 4.82348339516
0.0045 -0.0125 4.74413955535
0.0045 -0.0115 4.69710680506
0.0045 -0.0105 4.66649351646
0.0045 -0.0095 4.64234928247
0.0045 -0.0085 4.62209513134
0.0045 -0.0075 4.60754527179
0.0045 -0.0065 4.59959015712
0.0045 -0.0055 4.59641168052
0.0045 -0.0045 4.59519577484
0.0045 -0.0035 4.59333701206
0.0045 -0.0025 4.58981649551
0.0045 -0.0015 4.58542486773
0.0045 -0.0005 4.58220796389
0.0045 0.0005 4.58246148714
0.0045 0.0015 4.58814776292
0.0045 0.0025 4.60094313266
0.0045 0.0035 4.62165058008
0.0045 0.0045 4.64896839191
0.0045 0.0055 4.67827010759
0.0045 0.0065 4.70290074177
0.0045 0.0075 4.71522011345
0.0045 0.0085 4.70997761695
0.0045 0.0095 4.68983132227
0.0045 0.0105 4.66045150349
0.0045 0.0115 4.62112589474
0.0045 0.0125 4.5652108976
0.0045 0.0135 4.49023519367
0.0045 0.0145 4.39901015212
0.0045 0.0155 4.29044366938
0.0045 0.0165 4.16436433569
0.0045 0.0175 4.02970003455
0.0045 0.0185 3.8994470508
0.0045 0.0195 3.78273351257
0.0045 0.0205 3.68147939765
0.0045 0.0215 3.59203428274
0.0045 0.0225 3.50893235866
0.0045 0.0235 3.4278218072
0.0045 0.0245 3.34640016067
0.0045 0.0255 3.26418808606
0.0045 0.0265 3.18179362135
0.0045 0.0275 3.10064261759
0.0045 0.0285 3.02336432422
0.0045 0.0295 2.95449737
0.0045 0.0305 2.90083771333
0.0045 0.0315 2.87077768066
0.0055 -0.0315 4.83637514489
0.0055 -0.0305 4.84580899865
0.0055 -0.0295 4.86592583983
0.0055 -0.0285 4.89388705463
0.0055 -0.0275 4.92560155128
0.0055 -0.0265 4.95738681768
0.0055 -0.0255 4.98508647025
0.0055 -0.0245 5.00678573418
0.0055 -0.0235 5.02953929628
0.0055 -0.0225 5.07068248431
0.0055 -0.0215 5.14684060135
0.0055 -0.0205 5.26059597638
0.0055 -0.0195 5.39179681001
0.0055 -0.0185 5.49305105553
0.0055 -0.0175 5.51759076787
0.0055 -0.0165 5.45177439167
0.0055 -0.0155 5.31928901689
0.0055 -0.0145 5.16437577274
0.0055 -0.0135 5.02303448284
0.0055 -0.0125 4.90900444476
0.0055 -0.0115 4.81857746194
0.0055 -0.0105 4.7425254171
0.0055 -0.0095 4.67652167606
0.0055 -0.0085 4.62446680102
0.0055 -0.0075 4.59148323373
0.0055 -0.0065 4.5765917827
0.0055 -0.0055 4.57355164545
0.0055 -0.0045 4.57527193569
0.0055 -0.0035 4.57609422637
0.0055 -0.0025 4.57358940723
0.0055 -0.0015 4.56831263972
0.0055 -0.0005 4.56225130575
0.0055 0.0005 4.55749353325
0.0055 0.0015 4.55580092345
0.0055 0.0025 4.55944984279
0.0055 0.0035 4.57182327069
0.0055 0.0045 4.59510060072
0.0055 0.0055 4.62671644662
0.0055 0.0065 4.65870240743
0.0055 0.0075 4.68062050541
0.0055 0.0085 4.68440236616
0.0055 0.0095 4.66971430914
0.0055 0.0105 4.64238325848
0.0055 0.0115 4.60412199353
0.0055 0.0125 4.54881942288
0.0055 0.0135 4.47229564642
0.0055 0.0145 4.3765721587
0.0055 0.0155 4.25945141147
0.0055 0.0165 4.11853698602
0.0055 0.0175 3.96788257391
0.0055 0.0185 3.82883267057
0.0055 0.0195 3.71103787226
0.0055 0.0205 3.61130105934
0.0055 0.0215 3.5219211158
0.0055 0.0225 3.43639076803
0.0055 0.0235 3.3510687791
0.0055 0.0245 3.26537403713
0.0055 0.0255 3.18014171064
0.0055 0.0265 3.09662868795
0.0055 0.0275 3.01639789254
0.0055 0.0285 2.94183458282
0.0055 0.0295 2.87680348687
0.0055 0.0305 2.82698112364
0.0055 0.0315 2.79939501264
0.0065 -0.0315 4.80977611893
0.0065 -0.0305 4.81773555197
0.0065 -0.0295 4.83646994515
0.0065 -0.0285 4.86320039547
0.0065 -0.0275 4.89383009785
0.0065 -0.0265 4.92351519831
0.0065 -0.0255 4.94772700496
0.0065 -0.0245 4.96747519788
0.0065 -0.0235 4.99396458901
0.0065 -0.0225 5.04528624386
0.0065 -0.0215 5.136519905
0.0065 -0.0205 5.26847657031
0.0065 -0.0195 5.41421427218
0.0065 -0.0185 5.52289986973
0.0065 -0.0175 5.55607054253
0.0065 -0.0165 5.51013045809
0.0065 -0.0155 5.4079976033
0.0065 -0.0145 5.27793744552
0.0065 -0.0135 5.14114648238
0.0065 -0.0125 5.01300083783
0.0065 -0.0115 4.89885591665
0.0065 -0.0105 4.79553028851
0.0065 -0.0095 4.7031049371
0.0065 -0.0085 4.63043438485
0.0065 -0.0075 4.58523365931
0.0065 -0.0065 4.56544950666
0.0065 -0.0055 4.56207317503
0.0065 -0.0045 4.5654264814
0.0065 -0.0035 4.56845829083
0.0065 -0.0025 4.56755555496
0.0065 -0.0015 4.56262000661
0.0065 -0.0005 4.55589917881
0.0065 0.0005 4.54944196353
0.0065 0.0015 4.54400284843
0.0065 0.0025 4.54046539716
0.0065 0.0035 4.54170149647
0.0065 0.0045 4.55293059831
0.0065 0.0055 4.57799213076
0.0065 0.0065 4.6130228583
0.0065 0.0075 4.64579491623
0.0065 0.0085 4.66369059456
0.0065 0.0095 4.66070221949
0.0065 0.0105 4.63827415918
0.0065 0.0115 4.59865202882
0.0065 0.0125 4.53821373482
0.0065 0.0135 4.45255546811
0.0065 0.0145 4.34224236603
0.0065 0.0155 4.20769170936
0.0065 0.0165 4.05120261346
0.0065 0.0175 3.89163930883
0.0065 0.0185 3.75298924631
0.0065 0.0195 3.64146358282
0.0065 0.0205 3.54640762493
0.0065 0.0215 3.45578726946
0.0065 0.0225 3.3647829374
0.0065 0.0235 3.27307204078
0.0065 0.0245 3.18263247893
0.0065 0.0255 3.09550853747
0.0065 0.0265 3.01277584698
0.0065 0.0275 2.9349551794
0.0065 0.0285 2.86328906214
0.0065 0.0295 2.80080493502
0.0065 0.0305 2.75275806885
0.0065 0.0315 2.72607211551
0.0075 -0.0315 4.78927007304
0.0075 -0.0305 4.7950465791
0.0075 -0.0295 4.81016228093
0.0075 -0.0285 4.83230896054
0.0075 -0.0275 4.85670318493
0.0075 -0.0265 4.87794736149
0.0075 -0.0255 4.89371943499
0.0075 -0.0245 4.91039656402
0.0075 -0.0235 4.94128453567
0.0075 -0.0225 4.99951431791
0.0075 -0.0215 5.09604268139
0.0075 -0.0205 5.23150898952
0.0075 -0.0195 5.37728195778
0.0075 -0.0185 5.48412990375
0.0075 -0.0175 5.51979693812
0.0075 -0.0165 5.48727430409
0.0075 -0.0155 5.40823204778
0.0075 -0.0145 5.29972424794
0.0075 -0.0135 5.17484789483
0.0075 -0.0125 5.04829757072
0.0075 -0.0115 4.92987669826
0.0075 -0.0105 4.82050620817
0.0075 -0.0095 4.71908267499
0.0075 -0.0085 4.63384375247
0.0075 -0.0075 4.57696771461
0.0075 -0.0065 4.54967600502
0.0075 -0.0055 4.54247446483
0.0075 -0.0045 4.54531371731
0.0075 -0.0035 4.55134955344
0.0075 -0.0025 4.55487178238
0.0075 -0.0015 4.55355396504
0.0075 -0.0005 4.54934935491
0.0075 0.0005 4.54420106024
0.0075 0.0015 4.53854654715
0.0075 0.0025 4.53280923384
0.0075 0.0035 4.52862090084
0.0075 0.0045 4.53008321655
0.0075 0.0055 4.54413598003
0.0075 0.0065 4.575343455
0.0075 0.0075 4.61727125694
0.0075 0.0085 4.65396006286
0.0075 0.0095 4.67114792199
0.0075 0.0105 4.66068634961
0.0075 0.0115 4.6171860395
0.0075 0.0125 4.53728605308
0.0075 0.0135 4.42513710905
0.0075 0.0145 4.28995453878
0.0075 0.0155 4.13613659879
0.0075 0.0165 3.97050934605
0.0075 0.0175 3.8130600033
0.0075 0.0185 3.68242226676
0.0075 0.0195 3.57851097856
0.0075 0.0205 3.48625556701
0.0075 0.0215 3.39204794993
0.0075 0.0225 3.29369124701
0.0075 0.0235 3.19532262178
0.0075 0.0245 3.10156938929
0.0075 0.0255 3.01485482962
0.0075 0.0265 2.9344800368
0.0075 0.0275 2.85896931035
0.0075 0.0285 2.78851516822
0.0075 0.0295 2.72612068463
0.0075 0.0305 2.67763637341
0.0075 0.0315 2.65058229711
0.0085 -0.0315 4.77619658277
0.0085 -0.0305 4.77954294315
0.0085 -0.0295 4.78893066876
0.0085 -0.0285 4.80242573928
0.0085 -0.0275 4.81592820271
0.0085 -0.0265 4.82641476035
0.0085 -0.0255 4.83686716585
0.0085 -0.0245 4.85658633684
0.0085 -0.0235 4.89375808934
0.0085 -0.0225 4.95402295045
0.0085 -0.0215 5.04580717663
0.0085 -0.0205 5.17160932176
0.0085 -0.0195 5.30634208034
0.0085 -0.0185 5.4078315252
0.0085 -0.0175 5.44885473278
0.0085 -0.0165 5.43078931092
0.0085 -0.0155 5.36950313531
0.0085 -0.0145 5.27729029423
0.0085 -0.0135 5.16543851114
0.0085 -0.0125 5.04658196015
0.0085 -0.0115 4.93031337545
0.0085 -0.0105 4.81875664653
0.0085 -0.0095 4.70910787809
0.0085 -0.0085 4.60945701983
0.0085 -0.0075 4.53753628278
0.0085 -0.0065 4.49893222737
0.0085 -0.0055 4.48541907933
0.0085 -0.0045 4.48759728223
0.0085 -0.0035 4.49883525817
0.0085 -0.0025 4.51303666
0.0085 -0.0015 4.52512238867
0.0085 -0.0005 4.53226833276
0.0085 0.0005 4.53396804346
0.0085 0.0015 4.53133782486
0.0085 0.0025 4.52641961354
0.0085 0.0035 4.52142891817
0.0085 0.0045 4.51888957466
0.0085 0.0055 4.52491027158
0.0085 0.0065 4.54921404485
0.0085 0.0075 4.59491351342
0.0085 0.0085 4.64918424541
0.0085 0.0095 4.69112788022
0.0085 0.0105 4.69991916509
0.0085 0.0115 4.65502772251
0.0085 0.0125 4.5458324796
0.0085 0.0135 4.38963027758
0.0085 0.0145 4.22010974073
0.0085 0.0155 4.0525907332
0.0085 0.0165 3.89006530194
0.0085 0.0175 3.74354784432
0.0085 0.0185 3.62207357085
0.0085 0.0195 3.5203894766
0.0085 0.0205 3.42502941788
0.0085 0.0215 3.3256058952
0.0085 0.0225 3.22100889773
0.0085 0.0235 3.11898893785
0.0085 0.0245 3.02625417733
0.0085 0.0255 2.94258475605
0.0085 0.0265 2.86443831331
0.0085 0.0275 2.78881749735
0.0085 0.0285 2.71609728658
0.0085 0.0295 2.65090307817
0.0085 0.0305 2.60040346169
0.0085 0.0315 2.57243376457
0.0095 -0.0315 4.76802153198
0.0095 -0.0305 4.76915932914
0.0095 -0.0295 4.77172821263
0.0095 -0.0285 4.77403342911
0.0095 -0.0275 4.77545620266
0.0095 -0.0265 4.77844404964
0.0095 -0.0255 4.78981208364
0.0095 -0.0245 4.81472095381
0.0095 -0.0235 4.85401679372
0.0095 -0.0225 4.91088754432
0.0095 -0.0215 4.99293010143
0.0095 -0.0205 5.10095739605
0.0095 -0.0195 5.21577336913
0.0095 -0.0185 5.30670739636
0.0095 -0.0175 5.35134118754
0.0095 -0.0165 5.34628589028
0.0095 -0.0155 5.29999358335
0.0095 -0.0145 5.22163208821
0.0095 -0.0135 5.12088234392
0.0095 -0.0125 5.00734165237
0.0095 -0.0115 4.88788539234
0.0095 -0.0105 4.76435456018
0.0095 -0.0095 4.63671030102
0.0095 -0.0085 4.51674195184
0.0095 -0.0075 4.42572893738
0.0095 -0.0065 4.37385368573
0.0095 -0.0055 4.35487320473
0.0095 -0.0045 4.35830296547
0.0095 -0.0035 4.37998865722
0.0095 -0.0025 4.41611974917
0.0095 -0.0015 4.456391437
0.0095 -0.0005 4.48925636288
0.0095 0.0005 4.50930556892
0.0095 0.0015 4.51745270617
0.0095 0.0025 4.51763102145
0.0095 0.0035 4.51455647785
0.0095 0.0045 4.51175297975
0.0095 0.0055 4.51389984334
0.0095 0.0065 4.53190108038
0.0095 0.0075 4.57579290957
0.0095 0.0085 4.63872745539
0.0095 0.0095 4.69744920141
0.0095 0.0105 4.72193111893
0.0095 0.0115 4.68157280507
0.0095 0.0125 4.55502790941
0.0095 0.0135 4.36017312974
0.0095 0.0145 4.15376402971
0.0095 0.0155 3.97193935835
0.0095 0.0165 3.81460683435
0.0095 0.0175 3.67774392253
0.0095 0.0185 3.56071015938
0.0095 0.0195 3.45729767133
0.0095 0.0205 3.35716118892
0.0095 0.0215 3.25309235397
0.0095 0.0225 3.14569156735
0.0095 0.0235 3.04513377903
0.0095 0.0245 2.95847718095
0.0095 0.0255 2.88007956796
0.0095 0.0265 2.8019015112
0.0095 0.0275 2.721447103
0.0095 0.0285 2.64226074352
0.0095 0.0295 2.5721188536
0.0095 0.0305 2.51940840265
0.0095 0.0315 2.49116874051
0.0105 -0.0315 4.76129532484
0.0105 -0.0305 4.75974734779
0.0105 -0.0295 4.75460370428
0.0105 -0.0285 4.74572638729
0.0105 -0.0275 4.73793180789
0.0105 -0.0265 4.73856983527
0.0105 -0.0255 4.75209242789
0.0105 -0.0245 4.77752639787
0.0105 -0.0235 4.81398106371
0.0105 -0.0225 4.86433324388
0.0105 -0.0215 4.93248605088
0.0105 -0.0205 5.01570020007
0.0105 -0.0195 5.10153260149
0.0105 -0.0185 5.17199000507
0.0105 -0.0175 5.21139886992
0.0105 -0.0165 5.21299522224
0.0105 -0.0155 5.17774026786
0.0105 -0.0145 5.11034004701
0.0105 -0.0135 5.01726477427
0.0105 -0.0125 4.90456163967
0.0105 -0.0115 4.77605638163
0.0105 -0.0105 4.63386997192
0.0105 -0.0095 4.48336894961
0.0105 -0.0085 4.34022287686
0.0105 -0.0075 4.22760845367
0.0105 -0.0065 4.16248395139
0.0105 -0.0055 4.14044297879
0.0105 -0.0045 4.14859139493
0.0105 -0.0035 4.18820093583
0.0105 -0.0025 4.25712803821
0.0105 -0.0015 4.3373371037
0.0105 -0.0005 4.40925869893
0.0105 0.0005 4.46143494212
0.0105 0.0015 4.49154817015
0.0105 0.0025 4.50375177355
0.0105 0.0035 4.50591546372
0.0105 0.0045 4.50504016031
0.0105 0.0055 4.5063274135
0.0105 0.0065 4.51941678733
0.0105 0.0075 4.5566979031
0.0105 0.0085 4.61614205747
0.0105 0.0095 4.6751163801
0.0105 0.0105 4.70273953638
0.0105 0.0115 4.67130904721
0.0105 0.0125 4.55061739112
0.0105 0.0135 4.34215926108
0.0105 0.0145 4.10720174393
0.0105 0.0155 3.90553421666
0.0105 0.0165 3.74610983681
0.0105 0.0175 3.61116829953
0.0105 0.0185 3.49156741615
0.0105 0.0195 3.38454638821
0.0105 0.0205 3.28224491254
0.0105 0.0215 3.17752433922
0.0105 0.0225 3.0732311618
0.0105 0.0235 2.97926838023
0.0105 0.0245 2.89949095051
0.0105 0.0255 2.82396244072
0.0105 0.0265 2.74084850103
0.0105 0.0275 2.65045967317
0.0105 0.0285 2.56205754566
0.0105 0.0295 2.48665134389
0.0105 0.0305 2.43333667302
0.0105 0.0315 2.40649334222
0.0115 -0.0315 4.75204605328
0.0115 -0.0305 4.74675375934
0.0115 -0.0295 4.73376365838
0.0115 -0.0285 4.71602878606
0.0115 -0.0275 4.70380102894
0.0115 -0.0265 4.70513884713
0.0115 -0.0255 4.71880161409
0.0115 -0.0245 4.74066187077
0.0115 -0.0235 4.77025754973
0.0115 -0.0225 4.80832591465
0.0115 -0.0215 4.85432288301
0.0115 -0.0205 4.90544508813
0.0115 -0.0195 4.95583418604
0.0115 -0.0185 4.99739043382
0.0115 -0.0175 5.02125280303
0.0115 -0.0165 5.01979697423
0.0115 -0.0155 4.98881575912
0.0115 -0.0145 4.92804158319
0.0115 -0.0135 4.83941442943
0.0115 -0.0125 4.72516372177
0.0115 -0.0115 4.58735262815
0.0115 -0.0105 4.42994990658
0.0115 -0.0095 4.26288323251
0.0115 -0.0085 4.10455052339
0.0115 -0.0075 3.97993128551
0.0115 -0.0065 3.90980751346
0.0115 -0.0055 3.888632719
0.0115 -0.0045 3.90189095832
0.0115 -0.0035 3.95756273825
0.0115 -0.0025 4.05717937229
0.0115 -0.0015 4.17845542856
0.0115 -0.0005 4.29558846911
0.0115 0.0005 4.38967402054
0.0115 0.0015 4.45161671093
0.0115 0.0025 4.48306168007
0.0115 0.0035 4.49416892439
0.0115 0.0045 4.49682886281
0.0115 0.0055 4.4989354032
0.0115 0.0065 4.50841645343
0.0115 0.0075 4.53627040482
0.0115 0.0085 4.58254805282
0.0115 0.0095 4.62829977837
0.0115 0.0105 4.64975100298
0.0115 0.0115 4.62780544006
0.0115 0.0125 4.52749399277
0.0115 0.0135 4.33157296032
0.0115 0.0145 4.087063645
0.0115 0.0155 3.8628732404
0.0115 0.0165 3.68751245268
0.0115 0.0175 3.54491086081
0.0115 0.0185 3.41971626996
0.0115 0.0195 3.30925671794
0.0115 0.0205 3.20731749803
0.0115 0.0215 3.1067372433
0.0115 0.0225 3.00976745696
0.0115 0.0235 2.92298721735
0.0115 0.0245 2.84525568495
0.0115 0.0255 2.76588272487
0.0115 0.0265 2.67275645145
0.0115 0.0275 2.56952550615
0.0115 0.0285 2.47194321857
0.0115 0.0295 2.39354162225
0.0115 0.0305 2.34250313419
0.0115 0.0315 2.31901219592
0.0125 -0.0315 4.73661981375
0.0125 -0.0305 4.72729207856
0.0125 -0.0295 4.70791202113
0.0125 -0.0285 4.68561110808
0.0125 -0.0275 4.67292185359
0.0125 -0.0265 4.67517657535
0.0125 -0.0255 4.68710274118
0.0125 -0.0245 4.70288377531
0.0125 -0.0235 4.71996357926
0.0125 -0.0225 4.73636987176
0.0125 -0.0215 4.75081181637
0.0125 -0.0205 4.7637323718
0.0125 -0.0195 4.77517941122
0.0125 -0.0185 4.78344603635
0.0125 -0.0175 4.78412959411
0.0125 -0.0165 4.77086450045
0.0125 -0.0155 4.73733653462
0.0125 -0.0145 4.67894269303
0.0125 -0.0135 4.59309576289
0.0125 -0.0125 4.47893551796
0.0125 -0.0115 4.33799172973
0.0125 -0.0105 4.17633672425
0.0125 -0.0095 4.00729291893
0.0125 -0.0085 3.85234845769
0.0125 -0.0075 3.73654665752
0.0125 -0.0065 3.67560140547
0.0125 -0.0055 3.65928266908
0.0125 -0.0045 3.67402198589
0.0125 -0.0035 3.73359574267
0.0125 -0.0025 3.84830372088
0.0125 -0.0015 4.00077363757
0.0125 -0.0005 4.16109609692
0.0125 0.0005 4.30062257599
0.0125 0.0015 4.40017868496
0.0125 0.0025 4.45586919538
0.0125 0.0035 4.4785981385
0.0125 0.0045 4.48560667571
0.0125 0.0055 4.48917340789
0.0125 0.0065 4.49606086941
0.0125 0.0075 4.51377635064
0.0125 0.0085 4.5431828194
0.0125 0.0095 4.5717003596
0.0125 0.0105 4.58523023674
0.0125 0.0115 4.57035688081
0.0125 0.0125 4.49215873497
0.0125 0.0135 4.32379131059
0.0125 0.0145 4.0909651382
0.0125 0.0155 3.85130028431
0.0125 0.0165 3.6473488083
0.0125 0.0175 3.4835504965
0.0125 0.0185 3.34996137136
0.0125 0.0195 3.23890423794
0.0125 0.0205 3.13978263195
0.0125 0.0215 3.0438451466
0.0125 0.0225 2.95093532845
0.0125 0.0235 2.86488129495
0.0125 0.0245 2.78246257896
0.0125 0.0255 2.69313409516
0.0125 0.0265 2.5883904694
0.0125 0.0275 2.47551433521
0.0125 0.0285 2.37359379106
0.0125 0.0295 2.29652414166
0.0125 0.0305 2.25020108209
0.0125 0.0315 2.23179092943
0.0135 -0.0315 4.71382193811
0.0135 -0.0305 4.70189092953
0.0135 -0.0295 4.67914899567
0.0135 -0.0285 4.6562964298
0.0135 -0.0275 4.6452020589
0.0135 -0.0265 4.64709407025
0.0135 -0.0255 4.65500364354
0.0135 -0.0245 4.66134103005
0.0135 -0.0235 4.65905500194
0.0135 -0.0225 4.64436774066
0.0135 -0.0215 4.6194209068
0.0135 -0.0205 4.58996010938
0.0135 -0.0195 4.56140433918
0.0135 -0.0185 4.53612804395
0.0135 -0.0175 4.51222045487
0.0135 -0.0165 4.4840727099
0.0135 -0.0155 4.44409429001
0.0135 -0.0145 4.3849803682
0.0135 -0.0135 4.30164095837
0.0135 -0.0125 4.19150846417
0.0135 -0.0115 4.05582470407
0.0135 -0.0105 3.90230216813
0.0135 -0.0095 3.74674355657
0.0135 -0.0085 3.61222080091
0.0135 -0.0075 3.51977159663
0.0135 -0.0065 3.47533330996
0.0135 -0.0055 3.46489611088
0.0135 -0.0045 3.47814541676
0.0135 -0.0035 3.53288631091
0.0135 -0.0025 3.64959298649
0.0135 -0.0015 3.82192031596
0.0135 -0.0005 4.01936246841
0.0135 0.0005 4.20298351158
0.0135 0.0015 4.34158782941
0.0135 0.0025 4.42352017305
0.0135 0.0035 4.45893124544
0.0135 0.0045 4.4703566093
0.0135 0.0055 4.47529601011
0.0135 0.0065 4.4800533637
0.0135 0.0075 4.48864116729
0.0135 0.0085 4.50265561963
0.0135 0.0095 4.51677874755
0.0135 0.0105 4.52436350667
0.0135 0.0115 4.51394218666
0.0135 0.0125 4.45359276507
0.0135 0.0135 4.31418603185
0.0135 0.0145 4.10379027564
0.0135 0.0155 3.8626534499
0.0135 0.0165 3.63408947299
0.0135 0.0175 3.44184725713
0.0135 0.0185 3.29122857667
0.0135 0.0195 3.17505818664
0.0135 0.0205 3.07770752182
0.0135 0.0215 2.98406590758
0.0135 0.0225 2.88866580337
0.0135 0.0235 2.79467491346
0.0135 0.0245 2.70104761621
0.0135 0.0255 2.59929113668
0.0135 0.0265 2.48640758782
0.0135 0.0275 2.37208707475
0.0135 0.0285 2.27393639502
0.0135 0.0295 2.20320317861
0.0135 0.0305 2.16326207648
0.0135 0.0315 2.15017329792
0.0145 -0.0315 4.68590417241
0.0145 -0.0305 4.6735073912
0.0145 -0.0295 4.65101043026
0.0145 -0.0285 4.63001097489
0.0145 -0.0275 4.62052236296
0.0145 -0.0265 4.62077355014
0.0145 -0.0255 4.62226059724
0.0145 -0.0245 4.61399110921
0.0145 -0.0235 4.58490520056
0.0145 -0.0225 4.53180160059
0.0145 -0.0215 4.46230897171
0.0145 -0.0205 4.38901992331
0.0145 -0.0195 4.32237304902
0.0145 -0.0185 4.26700372023
0.0145 -0.0175 4.22149849321
0.0145 -0.0165 4.17974314583
0.0145 -0.0155 4.13299636302
0.0145 -0.0145 4.07241781634
0.0145 -0.0135 3.99214974609
0.0145 -0.0125 3.88934497254
0.0145 -0.0115 3.76554536796
0.0145 -0.0105 3.6297155978
0.0145 -0.0095 3.49809145809
0.0145 -0.0085 3.39103225504
0.0145 -0.0075 3.32272861414
0.0145 -0.0065 3.29249590163
0.0145 -0.0055 3.28625562225
0.0145 -0.0045 3.29723330446
0.0145 -0.0035 3.34655819179
0.0145 -0.0025 3.46262134255
0.0145 -0.0015 3.64904264809
0.0145 -0.0005 3.87774850001
0.0145 0.0005 4.10216613446
0.0145 0.0015 4.27888046422
0.0145 0.0025 4.3871247635
0.0145 0.0035 4.43521377513
0.0145 0.0045 4.45069733901
0.0145 0.0055 4.45651178347
0.0145 0.0065 4.45929420396
0.0145 0.0075 4.46080081203
0.0145 0.0085 4.46360531222
0.0145 0.0095 4.46823911805
0.0145 0.0105 4.47210429533
0.0145 0.0115 4.46419838966
0.0145 0.0125 4.41660238517
0.0145 0.0135 4.30112531375
0.0145 0.0145 4.11458757624
0.0145 0.0155 3.88268182093
0.0145 0.0165 3.64341276254
0.0145 0.0175 3.42838236291
0.0145 0.0185 3.25457045949
0.0145 0.0195 3.12214919814
0.0145 0.0205 3.01727999408
0.0145 0.0215 2.92007385389
0.0145 0.0225 2.819189988
0.0145 0.0235 2.71372589246
0.0145 0.0245 2.60449143977
0.0145 0.0255 2.49187311705
0.0145 0.0265 2.37841187317
0.0145 0.0275 2.27247627748
0.0145 0.0285 2.18549321475
0.0145 0.0295 2.12343705649
0.0145 0.0305 2.08900945434
0.0145 0.0315 2.07975278153
0.0155 -0.0315 4.6571571006
0.0155 -0.0305 4.64594434777
0.0155 -0.0295 4.62614528523
0.0155 -0.0285 4.60803840943
0.0155 -0.0275 4.59920162857
0.0155 -0.0265 4.59672675309
0.0155 -0.0255 4.59000987019
0.0155 -0.0245 4.56226270596
0.0155 -0.0235 4.49926893211
0.0155 -0.0225 4.4020500784
0.0155 -0.0215 4.28627183909
0.0155 -0.0205 4.1717572682
0.0155 -0.0195 4.07228051563
0.0155 -0.0185 3.9927564305
0.0155 -0.0175 3.93048938577
0.0155 -0.0165 3.87781981398
0.0155 -0.0155 3.82504147016
0.0155 -0.0145 3.76307286775
0.0155 -0.0135 3.68617931928
0.0155 -0.0125 3.5922478085
0.0155 -0.0115 3.48392613131
0.0155 -0.0105 3.37047983617
0.0155 -0.0095 3.26611774762
0.0155 -0.0085 3.18569184414
0.0155 -0.0075 3.13680826954
0.0155 -0.0065 3.11576148981
0.0155 -0.0055 3.11107583876
0.0155 -0.0045 3.11969465537
0.0155 -0.0035 3.16506594715
0.0155 -0.0025 3.28161715746
0.0155 -0.0015 3.48089011426
0.0155 -0.0005 3.73752660134
0.0155 0.0005 3.99972284575
0.0155 0.0015 4.21306720178
0.0155 0.0025 4.34716213876
0.0155 0.0035 4.40770986932
0.0155 0.0045 4.42689300044
0.0155 0.0055 4.43315345145
0.0155 0.0065 4.43421924665
0.0155 0.0075 4.43099064859
0.0155 0.0085 4.42722117059
0.0155 0.0095 4.42671916639
0.0155 0.0105 4.42828382419
0.0155 0.0115 4.4215637247
0.0155 0.0125 4.38243581172
0.0155 0.0135 4.28452689495
0.0155 0.0145 4.11889079716
0.0155 0.0155 3.9011837814
0.0155 0.0165 3.6628937973
0.0155 0.0175 3.43527866905
0.0155 0.0185 3.23971584365
0.0155 0.0195 3.08299115005
0.0155 0.0205 2.95764276381
0.0155 0.0215 2.84714821047
0.0155 0.0225 2.73808600065
0.0155 0.0235 2.62256340199
0.0155 0.0245 2.50054243294
0.0155 0.0255 2.38215674884
0.0155 0.0265 2.27579383873
0.0155 0.0275 2.1860826371
0.0155 0.0285 2.11534136259
0.0155 0.0295 2.0643096201
0.0155 0.0305 2.03560302255
0.0155 0.0315 2.02824500863
0.0165 -0.0315 4.63144572134
0.0165 -0.0305 4.62258644172
0.0165 -0.0295 4.60648817304
0.0165 -0.0285 4.59104978051
0.0165 -0.0275 4.58181012804
0.0165 -0.0265 4.57563544648
0.0165 -0.0255 4.55921469176
0.0165 -0.0245 4.50821525237
0.0165 -0.0235 4.40629141878
0.0165 -0.0225 4.26306207223
0.0165 -0.0215 4.10458650685
0.0165 -0.0205 3.95627944096
0.0165 -0.0195 3.83210095574
0.0165 -0.0185 3.7349965613
0.0165 -0.0175 3.65985254707
0.0165 -0.0165 3.59740335231
0.0165 -0.0155 3.53795115649
0.0165 -0.0145 3.47341915099
0.0165 -0.0135 3.39887958961