% Model:              Benchmark260518.mph
% Version:            COMSOL 6.2.0.339
% Date:               May 21 2026, 17:06
% Dimension:          2
% Nodes:              4096
% Expressions:        1
% Description:        压力
% Length unit:        m
% x                       y                        p (Pa)
5.0E-4                    -0.0315                  3.7073901450559377
5.0E-4                    -0.0305                  3.7272429310934614
5.0E-4                    -0.0295                  3.7542446474300384
5.0E-4                    -0.0285                  3.783662005799272
5.0E-4                    -0.0275                  3.8144099821705653
5.0E-4                    -0.0265                  3.846104234508271
5.0E-4                    -0.0255                  3.8785250678866054
5.0E-4                    -0.0245                  3.9115352590597348
5.0E-4                    -0.0235                  3.945056473979595
5.0E-4                    -0.0225                  3.9790536708033493
5.0E-4                    -0.0215                  4.013496290262158
5.0E-4                    -0.0205                  4.048361131598916
5.0E-4                    -0.0195                  4.08362630949235
5.0E-4                    -0.0185                  4.119255528124256
5.0E-4                    -0.0175                  4.155200735537492
5.0E-4                    -0.0165                  4.191411819599856
5.0E-4                    -0.0155                  4.22784487003246
5.0E-4                    -0.0145                  4.26447458886702
5.0E-4                    -0.0135                  4.301304818788908
5.0E-4                    -0.0125                  4.338380881249791
5.0E-4                    -0.0115                  4.375797746441638
5.0E-4                    -0.0105                  4.413705138538086
5.0E-4                    -0.0095                  4.452363413470675
5.0E-4                    -0.0085                  4.4921156186006215
5.0E-4                    -0.0075                  4.53324413933152
5.0E-4                    -0.0065                  4.575301237214846
5.0E-4                    -0.0055                  4.616162470279052
5.0E-4                    -0.0045                  4.652856018239875
5.0E-4                    -0.0035                  4.681045929343368
5.0E-4                    -0.0025                  4.698263856628925
5.0E-4                    -0.0015                  4.706674386967287
5.0E-4                    -5.0E-4                  4.709034583430933
5.0E-4                    5.0E-4                   4.70724063275924
5.0E-4                    0.0015                   4.703056144373421
5.0E-4                    0.0025                   4.698720348369859
5.0E-4                    0.0035                   4.696813428550625
5.0E-4                    0.0045                   4.698893713109014
5.0E-4                    0.0055                   4.704058535395256
5.0E-4                    0.0065                   4.708768134496794
5.0E-4                    0.0075                   4.708522845971913
5.0E-4                    0.0085                   4.700174933761334
5.0E-4                    0.0095                   4.68373236889377
5.0E-4                    0.0105                   4.662638932711866
5.0E-4                    0.0115                   4.641982368917366
5.0E-4                    0.0125                   4.6255953037366
5.0E-4                    0.0135                   4.614084847472716
5.0E-4                    0.0145                   4.605842325281428
5.0E-4                    0.0155                   4.616904629843933
5.0E-4                    0.0165                   4.695681136751553
5.0E-4                    0.0175                   4.823288179430226
5.0E-4                    0.0185                   4.922601471226992
5.0E-4                    0.0195                   4.976337574964643
5.0E-4                    0.0205                   5.002248247827983
5.0E-4                    0.0215                   5.013633647818513
5.0E-4                    0.0225                   5.016928353495388
5.0E-4                    0.0235                   5.014005563807071
5.0E-4                    0.0245                   5.007297367325815
5.0E-4                    0.0255                   5.000810640222907
5.0E-4                    0.0265                   4.99552618957831
5.0E-4                    0.0275                   4.989831642994774
5.0E-4                    0.0285                   4.983571539343123
5.0E-4                    0.0295                   4.977364171484969
5.0E-4                    0.0305                   4.968582126914897
5.0E-4                    0.0315                   4.956948662902812
0.0015                    -0.0315                  3.6873545676778097
0.0015                    -0.0305                  3.707260077070453
0.0015                    -0.0295                  3.7361929628401325
0.0015                    -0.0285                  3.7678739723380485
0.0015                    -0.0275                  3.8005374825581337
0.0015                    -0.0265                  3.8337314760769
0.0015                    -0.0255                  3.867306288333342
0.0015                    -0.0245                  3.901196909972936
0.0015                    -0.0235                  3.9353802128122357
0.0015                    -0.0225                  3.969866999620778
0.0015                    -0.0215                  4.004688183502101
0.0015                    -0.0205                  4.039879399002551
0.0015                    -0.0195                  4.075467783086305
0.0015                    -0.0185                  4.111453865663471
0.0015                    -0.0175                  4.147799277572088
0.0015                    -0.0165                  4.184429945081204
0.0015                    -0.0155                  4.221251516543538
0.0015                    -0.0145                  4.258172368416546
0.0015                    -0.0135                  4.295129477432048
0.0015                    -0.0125                  4.332111345309647
0.0015                    -0.0115                  4.3691794531723405
0.0015                    -0.0105                  4.406499458233258
0.0015                    -0.0095                  4.444375703185979
0.0015                    -0.0085                  4.483268273694445
0.0015                    -0.0075                  4.523624299526118
0.0015                    -0.0065                  4.565318443300396
0.0015                    -0.0055                  4.606784264201644
0.0015                    -0.0045                  4.645406916369988
0.0015                    -0.0035                  4.676179952669152
0.0015                    -0.0025                  4.696012337074733
0.0015                    -0.0015                  4.706662149990195
0.0015                    -5.0E-4                  4.70990043965913
0.0015                    5.0E-4                   4.707254939227728
0.0015                    0.0015                   4.700816129321378
0.0015                    0.0025                   4.693509034557918
0.0015                    0.0035                   4.688740332356141
0.0015                    0.0045                   4.68870076029755
0.0015                    0.0055                   4.692964338679291
0.0015                    0.0065                   4.698213223088198
0.0015                    0.0075                   4.6996836254776015
0.0015                    0.0085                   4.693471231253121
0.0015                    0.0095                   4.678817732270201
0.0015                    0.0105                   4.658757608507219
0.0015                    0.0115                   4.638677344496501
0.0015                    0.0125                   4.623319240910781
0.0015                    0.0135                   4.6138144352527615
0.0015                    0.0145                   4.612114791380677
0.0015                    0.0155                   4.624746814292532
0.0015                    0.0165                   4.710242411963041
0.0015                    0.0175                   4.840049759111026
0.0015                    0.0185                   4.925132703801738
0.0015                    0.0195                   4.967724784595886
0.0015                    0.0205                   4.985976019904533
0.0015                    0.0215                   4.9943052908513685
0.0015                    0.0225                   4.998749914873754
0.0015                    0.0235                   5.000232625726732
0.0015                    0.0245                   4.99710095486294
0.0015                    0.0255                   4.988434214068456
0.0015                    0.0265                   4.975100319003521
0.0015                    0.0275                   4.958506765710769
0.0015                    0.0285                   4.940043735663523
0.0015                    0.0295                   4.9204842212691915
0.0015                    0.0305                   4.901982280726234
0.0015                    0.0315                   4.891868103996379
0.0025                    -0.0315                  3.659780528143589
0.0025                    -0.0305                  3.6779228653900446
0.0025                    -0.0295                  3.706949316827763
0.0025                    -0.0285                  3.740507929585073
0.0025                    -0.0275                  3.775516978529725
0.0025                    -0.0265                  3.8108934122588307
0.0025                    -0.0255                  3.846311771636345
0.0025                    -0.0245                  3.881686404540483
0.0025                    -0.0235                  3.917022988373299
0.0025                    -0.0225                  3.9523810140746463
0.0025                    -0.0215                  3.9878626608879317
0.0025                    -0.0205                  4.023593950855737
0.0025                    -0.0195                  4.0596952493431715
0.0025                    -0.0185                  4.096245958141993
0.0025                    -0.0175                  4.133250209468487
0.0025                    -0.0165                  4.170620220270951
0.0025                    -0.0155                  4.208189489038276
0.0025                    -0.0145                  4.245751557803011
0.0025                    -0.0135                  4.283110718086574
0.0025                    -0.0125                  4.32013124979603
0.0025                    -0.0115                  4.356780914639627
0.0025                    -0.0105                  4.393171164542671
0.0025                    -0.0095                  4.4295923304937075
0.0025                    -0.0085                  4.466511714194815
0.0025                    -0.0075                  4.504452693758166
0.0025                    -0.0065                  4.543657377168744
0.0025                    -0.0055                  4.583500041800433
0.0025                    -0.0045                  4.6223455651974845
0.0025                    -0.0035                  4.65648581992262
0.0025                    -0.0025                  4.682692141981681
0.0025                    -0.0015                  4.6988212836457075
0.0025                    -5.0E-4                  4.7025390678618075
0.0025                    5.0E-4                   4.695149557827917
0.0025                    0.0015                   4.682015366511163
0.0025                    0.0025                   4.669043086033658
0.0025                    0.0035                   4.660497490969597
0.0025                    0.0045                   4.658562384456219
0.0025                    0.0055                   4.662906187074915
0.0025                    0.0065                   4.670782617940929
0.0025                    0.0075                   4.677778991803889
0.0025                    0.0085                   4.679309116132625
0.0025                    0.0095                   4.673154441488769
0.0025                    0.0105                   4.660739312897681
0.0025                    0.0115                   4.6466615169667325
0.0025                    0.0125                   4.637033539415517
0.0025                    0.0135                   4.637941335803824
0.0025                    0.0145                   4.656349287172573
0.0025                    0.0155                   4.709934269186131
0.0025                    0.0165                   4.801067965157189
0.0025                    0.0175                   4.8870678679028705
0.0025                    0.0185                   4.938704101076837
0.0025                    0.0195                   4.963587950666068
0.0025                    0.0205                   4.974241038344389
0.0025                    0.0215                   4.980134526083182
0.0025                    0.0225                   4.98412725601073
0.0025                    0.0235                   4.985864022894731
0.0025                    0.0245                   4.982783978489937
0.0025                    0.0255                   4.971520055124192
0.0025                    0.0265                   4.951133675223073
0.0025                    0.0275                   4.924188608276809
0.0025                    0.0285                   4.894298041189684
0.0025                    0.0295                   4.865317438060006
0.0025                    0.0305                   4.842830700832524
0.0025                    0.0315                   4.831072384847225
0.0035                    -0.0315                  3.6294124113539747
0.0035                    -0.0305                  3.6455024316843128
0.0035                    -0.0295                  3.6729320968379824
0.0035                    -0.0285                  3.7066577892224113
0.0035                    -0.0275                  3.7431388047951675
0.0035                    -0.0265                  3.7804778718369016
0.0035                    -0.0255                  3.817857764595773
0.0035                    -0.0245                  3.854972411173325
0.0035                    -0.0235                  3.8917427703599303
0.0035                    -0.0225                  3.9282161735920385
0.0035                    -0.0215                  3.96453179172958
0.0035                    -0.0205                  4.000895321160051
0.0035                    -0.0195                  4.037539051019019
0.0035                    -0.0185                  4.074664775792371
0.0035                    -0.0175                  4.112378059294628
0.0035                    -0.0165                  4.150633845352074
0.0035                    -0.0155                  4.189222243294597
0.0035                    -0.0145                  4.227808368823468
0.0035                    -0.0135                  4.266010193478355
0.0035                    -0.0125                  4.3034847932718545
0.0035                    -0.0115                  4.339999187622163
0.0035                    -0.0105                  4.375478505631237
0.0035                    -0.0095                  4.410036813932428
0.0035                    -0.0085                  4.443987067235293
0.0035                    -0.0075                  4.477821258267483
0.0035                    -0.0065                  4.5121140605153895
0.0035                    -0.0055                  4.547456492237651
0.0035                    -0.0045                  4.583930548914317
0.0035                    -0.0035                  4.620254128385658
0.0035                    -0.0025                  4.6523526492445
0.0035                    -0.0015                  4.67225665493431
0.0035                    -5.0E-4                  4.673634782789235
0.0035                    5.0E-4                   4.659628760755494
0.0035                    0.0015                   4.6397835039937085
0.0035                    0.0025                   4.622207232680166
0.0035                    0.0035                   4.611715208854786
0.0035                    0.0045                   4.610200829523291
0.0035                    0.0055                   4.616933741767004
0.0035                    0.0065                   4.629742250179365
0.0035                    0.0075                   4.645850431053167
0.0035                    0.0085                   4.661880058434182
0.0035                    0.0095                   4.674486528107696
0.0035                    0.0105                   4.682638320957452
0.0035                    0.0115                   4.689162879622435
0.0035                    0.0125                   4.700152185530609
0.0035                    0.0135                   4.7240717927506495
0.0035                    0.0145                   4.768347450365805
0.0035                    0.0155                   4.8317767568300285
0.0035                    0.0165                   4.8949322885732744
0.0035                    0.0175                   4.935828899638529
0.0035                    0.0185                   4.95373531084801
0.0035                    0.0195                   4.960464286304314
0.0035                    0.0205                   4.964569358761112
0.0035                    0.0215                   4.968503057287659
0.0035                    0.0225                   4.971628235971033
0.0035                    0.0235                   4.971996730986489
0.0035                    0.0245                   4.965756818237778
0.0035                    0.0255                   4.948958993336881
0.0035                    0.0265                   4.920954679076387
0.0035                    0.0275                   4.884967751316479
0.0035                    0.0285                   4.846398303443866
0.0035                    0.0295                   4.81113362677401
0.0035                    0.0305                   4.784413990065193
0.0035                    0.0315                   4.7700928030419165
0.0045                    -0.0315                  3.5975458270378278
0.0045                    -0.0305                  3.611868850431844
0.0045                    -0.0295                  3.6372674978992565
0.0045                    -0.0285                  3.669908576707001
0.0045                    -0.0275                  3.706613335789153
0.0045                    -0.0265                  3.7451300604847466
0.0045                    -0.0255                  3.784126197316842
0.0045                    -0.0245                  3.822921550068121
0.0045                    -0.0235                  3.8612151724210753
0.0045                    -0.0225                  3.898936913878411
0.0045                    -0.0215                  3.9361866595357773
0.0045                    -0.0205                  3.9731999675429224
0.0045                    -0.0195                  4.010303782972425
0.0045                    -0.0185                  4.047846779790551
0.0045                    -0.0175                  4.086104909778157
0.0045                    -0.0165                  4.12517681622222
0.0045                    -0.0155                  4.164904898300179
0.0045                    -0.0145                  4.204870791171676
0.0045                    -0.0135                  4.244478103023949
0.0045                    -0.0125                  4.283077979282385
0.0045                    -0.0115                  4.320085538461235
0.0045                    -0.0105                  4.35506430032876
0.0045                    -0.0095                  4.387796768518256
0.0045                    -0.0085                  4.418381683536166
0.0045                    -0.0075                  4.447363941545897
0.0045                    -0.0065                  4.475922274621945
0.0045                    -0.0055                  4.505778160536872
0.0045                    -0.0045                  4.538429564849835
0.0045                    -0.0035                  4.573511799460672
0.0045                    -0.0025                  4.605769350759832
0.0045                    -0.0015                  4.624202739140721
0.0045                    -5.0E-4                  4.622021566289123
0.0045                    5.0E-4                   4.604593047926955
0.0045                    0.0015                   4.5835035710734955
0.0045                    0.0025                   4.568137348441422
0.0045                    0.0035                   4.562361123761331
0.0045                    0.0045                   4.565978568661376
0.0045                    0.0055                   4.577431117053791
0.0045                    0.0065                   4.595548280305234
0.0045                    0.0075                   4.61996743829195
0.0045                    0.0085                   4.650304282000404
0.0045                    0.0095                   4.685156935447687
0.0045                    0.0105                   4.7227065489397155
0.0045                    0.0115                   4.762525193628016
0.0045                    0.0125                   4.806159129681998
0.0045                    0.0135                   4.856038478944308
0.0045                    0.0145                   4.910269399856941
0.0045                    0.0155                   4.956632362719042
0.0045                    0.0165                   4.979274152559766
0.0045                    0.0175                   4.976964834501096
0.0045                    0.0185                   4.964881456771673
0.0045                    0.0195                   4.956997526464768
0.0045                    0.0205                   4.955906254257542
0.0045                    0.0215                   4.957618256932096
0.0045                    0.0225                   4.958665072394032
0.0045                    0.0235                   4.955542395483608
0.0045                    0.0245                   4.943314243297096
0.0045                    0.0255                   4.9187951838502
0.0045                    0.0265                   4.882913716235398
0.0045                    0.0275                   4.839797242368266
0.0045                    0.0285                   4.795250537327296
0.0045                    0.0295                   4.755127784641851
0.0045                    0.0305                   4.724585400060882
0.0045                    0.0315                   4.708067267069122
0.0055                    -0.0315                  3.564670357618733
0.0055                    -0.0305                  3.5775907054690994
0.0055                    -0.0295                  3.6010665981329617
0.0055                    -0.0285                  3.632134002382947
0.0055                    -0.0275                  3.668143865221559
0.0055                    -0.0265                  3.7069373612817347
0.0055                    -0.0255                  3.7469317447947463
0.0055                    -0.0245                  3.7870991000599536
0.0055                    -0.0235                  3.8268385974984027
0.0055                    -0.0225                  3.865857493585299
0.0055                    -0.0215                  3.9041121666779444
0.0055                    -0.0205                  3.941780539876059
0.0055                    -0.0195                  3.97922588372972
0.0055                    -0.0185                  4.016929973863201
0.0055                    -0.0175                  4.055386377494194
0.0055                    -0.0165                  4.094956628625643
0.0055                    -0.0155                  4.135706175697238
0.0055                    -0.0145                  4.177279086512952
0.0055                    -0.0135                  4.218901146161532
0.0055                    -0.0125                  4.2595218759992886
0.0055                    -0.0115                  4.298007649754586
0.0055                    -0.0105                  4.333342943332418
0.0055                    -0.0095                  4.364849575606229
0.0055                    -0.0085                  4.392474602151578
0.0055                    -0.0075                  4.417151860564754
0.0055                    -0.0065                  4.440937433731021
0.0055                    -0.0055                  4.4661184128194105
0.0055                    -0.0045                  4.494334498778189
0.0055                    -0.0035                  4.5245559641606
0.0055                    -0.0025                  4.551559647880233
0.0055                    -0.0015                  4.565664709640796
0.0055                    -5.0E-4                  4.561773453726215
0.0055                    5.0E-4                   4.547280271331883
0.0055                    0.0015                   4.5340959052188765
0.0055                    0.0025                   4.5292854051996985
0.0055                    0.0035                   4.533273287714597
0.0055                    0.0045                   4.543928753846243
0.0055                    0.0055                   4.560082399670897
0.0055                    0.0065                   4.582088581358955
0.0055                    0.0075                   4.6114074887687515
0.0055                    0.0085                   4.650099846536094
0.0055                    0.0095                   4.70023420968411
0.0055                    0.0105                   4.761836807036136
0.0055                    0.0115                   4.831557069163829
0.0055                    0.0125                   4.9033794109042645
0.0055                    0.0135                   4.970283847399157
0.0055                    0.0145                   5.023221371977474
0.0055                    0.0155                   5.048853069010865
0.0055                    0.0165                   5.039325807395031
0.0055                    0.0175                   5.005544919320013
0.0055                    0.0185                   4.971534369372946
0.0055                    0.0195                   4.9526965320614895
0.0055                    0.0205                   4.946551018100718
0.0055                    0.0215                   4.944449749161718
0.0055                    0.0225                   4.94087779806466
0.0055                    0.0235                   4.931168269151832
0.0055                    0.0245                   4.910869924764526
0.0055                    0.0255                   4.8785540651626675
0.0055                    0.0265                   4.836145727162648
0.0055                    0.0275                   4.787974458394427
0.0055                    0.0285                   4.739398618368274
0.0055                    0.0295                   4.69588773130723
0.0055                    0.0305                   4.6627378718847705
0.0055                    0.0315                   4.644792004488268
0.0065                    -0.0315                  3.5310240845527203
0.0065                    -0.0305                  3.5428647697435127
0.0065                    -0.0295                  3.5647023037521377
0.0065                    -0.0285                  3.594145202498771
0.0065                    -0.0275                  3.628999824105782
0.0065                    -0.0265                  3.667369411733397
0.0065                    -0.0255                  3.7076915714294394
0.0065                    -0.0245                  3.7487674787235816
0.0065                    -0.0235                  3.7897387043529647
0.0065                    -0.0225                  3.8300401396775774
0.0065                    -0.0215                  3.8693832247074678
0.0065                    -0.0205                  3.9077711530731007
0.0065                    -0.0195                  3.945501228898911
0.0065                    -0.0185                  3.9831230032879716
0.0065                    -0.0175                  4.021344029855554
0.0065                    -0.0165                  4.0608739771975015
0.0065                    -0.0155                  4.102203849550553
0.0065                    -0.0145                  4.145321860560934
0.0065                    -0.0135                  4.189472636712995
0.0065                    -0.0125                  4.233164279745039
0.0065                    -0.0115                  4.27446905827566
0.0065                    -0.0105                  4.3114720980318175
0.0065                    -0.0095                  4.342864168973358
0.0065                    -0.0085                  4.368593977843901
0.0065                    -0.0075                  4.390317003779776
0.0065                    -0.0065                  4.41070316915434
0.0065                    -0.0055                  4.432153061923467
0.0065                    -0.0045                  4.455577960821659
0.0065                    -0.0035                  4.479778062860204
0.0065                    -0.0025                  4.500731529354278
0.0065                    -0.0015                  4.5110858673199115
0.0065                    -5.0E-4                  4.5092681984202585
0.0065                    5.0E-4                   4.5041833588833935
0.0065                    0.0015                   4.504120549728346
0.0065                    0.0025                   4.510441806504527
0.0065                    0.0035                   4.521576856375773
0.0065                    0.0045                   4.536811594393861
0.0065                    0.0055                   4.556566602663526
0.0065                    0.0065                   4.582038272476895
0.0065                    0.0075                   4.6152551488388305
0.0065                    0.0085                   4.659096261561165
0.0065                    0.0095                   4.716754180914523
0.0065                    0.0105                   4.7895627156989224
0.0065                    0.0115                   4.873194572436409
0.0065                    0.0125                   4.956545204582008