% Model:              Benchmark260518细网格.mph
% Version:            COMSOL 6.2.0.339
% Date:               May 25 2026, 19:27
% Dimension:          2
% Nodes:              4096
% Expressions:        1
% Description:        压力
% Length unit:        m
% x                       y                        p (Pa)
5.0E-4                    -0.0315                  3.3033358219983247
5.0E-4                    -0.0305                  3.3206632689590525
5.0E-4                    -0.0295                  3.3419133924471036
5.0E-4                    -0.0285                  3.3650150461615804
5.0E-4                    -0.0275                  3.3892376199987675
5.0E-4                    -0.0265                  3.4145128749733336
5.0E-4                    -0.0255                  3.4405286135050566
5.0E-4                    -0.0245                  3.4672635658998834
5.0E-4                    -0.0235                  3.4947087558446888
5.0E-4                    -0.0225                  3.5228792753997347
5.0E-4                    -0.0215                  3.551883559555847
5.0E-4                    -0.0205                  3.5816771175226645
5.0E-4                    -0.0195                  3.6124998883941375
5.0E-4                    -0.0185                  3.6442800308410304
5.0E-4                    -0.0175                  3.677247341230492
5.0E-4                    -0.0165                  3.7114280715382293
5.0E-4                    -0.0155                  3.7469025715100432
5.0E-4                    -0.0145                  3.7837489459275595
5.0E-4                    -0.0135                  3.8217915560612497
5.0E-4                    -0.0125                  3.8610308652165246
5.0E-4                    -0.0115                  3.901052919554157
5.0E-4                    -0.0105                  3.9416251428769695
5.0E-4                    -0.0095                  3.982307337396821
5.0E-4                    -0.0085                  4.022676031399883
5.0E-4                    -0.0075                  4.062182427811525
5.0E-4                    -0.0065                  4.100337543274479
5.0E-4                    -0.0055                  4.136048815200693
5.0E-4                    -0.0045                  4.1685819144363805
5.0E-4                    -0.0035                  4.195891698162499
5.0E-4                    -0.0025                  4.217051172235113
5.0E-4                    -0.0015                  4.229536490951373
5.0E-4                    -5.0E-4                  4.230998470447137
5.0E-4                    5.0E-4                   4.218931876713011
5.0E-4                    0.0015                   4.189440588804912
5.0E-4                    0.0025                   4.143902171431485
5.0E-4                    0.0035                   4.081215073836253
5.0E-4                    0.0045                   4.00895855279346
5.0E-4                    0.0055                   3.9391012401601793
5.0E-4                    0.0065                   3.893133956418416
5.0E-4                    0.0075                   3.8739825612019683
5.0E-4                    0.0085                   3.862944031424585
5.0E-4                    0.0095                   3.8533083031078705
5.0E-4                    0.0105                   3.846005911989842
5.0E-4                    0.0115                   3.8405847427483093
5.0E-4                    0.0125                   3.835464706511019
5.0E-4                    0.0135                   3.8322218470100013
5.0E-4                    0.0145                   3.891582956428204
5.0E-4                    0.0155                   4.338460548100519
5.0E-4                    0.0165                   4.737001935637798
5.0E-4                    0.0175                   4.885834666584217
5.0E-4                    0.0185                   4.9018969852734795
5.0E-4                    0.0195                   4.914187345922777
5.0E-4                    0.0205                   4.917744388826119
5.0E-4                    0.0215                   4.91716540145692
5.0E-4                    0.0225                   4.91217073277172
5.0E-4                    0.0235                   4.9039888192153525
5.0E-4                    0.0245                   4.894638619217609
5.0E-4                    0.0255                   4.884645539033369
5.0E-4                    0.0265                   4.874256641917015
5.0E-4                    0.0275                   4.8636263758441185
5.0E-4                    0.0285                   4.852927445052575
5.0E-4                    0.0295                   4.842403042539057
5.0E-4                    0.0305                   4.832522520207225
5.0E-4                    0.0315                   4.824421903576584
0.0015                    -0.0315                  3.2859754233306675
0.0015                    -0.0305                  3.303292082561989
0.0015                    -0.0295                  3.326506233931065
0.0015                    -0.0285                  3.351284134371547
0.0015                    -0.0275                  3.3766989114827273
0.0015                    -0.0265                  3.4026895864106272
0.0015                    -0.0255                  3.4291309202222315
0.0015                    -0.0245                  3.456042769031225
0.0015                    -0.0235                  3.483430062904018
0.0015                    -0.0225                  3.5113211407634437
0.0015                    -0.0215                  3.539819155870314
0.0015                    -0.0205                  3.568914195491595
0.0015                    -0.0195                  3.598835798388396
0.0015                    -0.0185                  3.629601618941446
0.0015                    -0.0175                  3.6615240732180268
0.0015                    -0.0165                  3.6948069271082273
0.0015                    -0.0155                  3.7297424680081237
0.0015                    -0.0145                  3.7667150764975466
0.0015                    -0.0135                  3.8057115135839688
0.0015                    -0.0125                  3.8470981029430398
0.0015                    -0.0115                  3.8903662818538054
0.0015                    -0.0105                  3.9354621907517684
0.0015                    -0.0095                  3.981798599061134
0.0015                    -0.0085                  4.029019746367419
0.0015                    -0.0075                  4.076644375327435
0.0015                    -0.0065                  4.1241208283838
0.0015                    -0.0055                  4.170403494407087
0.0015                    -0.0045                  4.214444620346367
0.0015                    -0.0035                  4.254007717569843
0.0015                    -0.0025                  4.287442443496261
0.0015                    -0.0015                  4.311258923361718
0.0015                    -5.0E-4                  4.321555605765576
0.0015                    5.0E-4                   4.314350089496525
0.0015                    0.0015                   4.2823215007019755
0.0015                    0.0025                   4.225903970637905
0.0015                    0.0035                   4.144579522260616
0.0015                    0.0045                   4.052034886485333
0.0015                    0.0055                   3.966240577132026
0.0015                    0.0065                   3.910108900981811
0.0015                    0.0075                   3.8821565468472463
0.0015                    0.0085                   3.863428175210591
0.0015                    0.0095                   3.851291352783822
0.0015                    0.0105                   3.8451682133099077
0.0015                    0.0115                   3.8410634046509555
0.0015                    0.0125                   3.836970158412304
0.0015                    0.0135                   3.8359779273356835
0.0015                    0.0145                   3.924489672008187
0.0015                    0.0155                   4.37049895607229
0.0015                    0.0165                   4.779859703950116
0.0015                    0.0175                   4.91292604182471
0.0015                    0.0185                   4.914940270525993
0.0015                    0.0195                   4.920848052796392
0.0015                    0.0205                   4.923468468133642
0.0015                    0.0215                   4.923462728064838
0.0015                    0.0225                   4.919597032684445
0.0015                    0.0235                   4.911479168554288
0.0015                    0.0245                   4.90141878665028
0.0015                    0.0255                   4.890127496934912
0.0015                    0.0265                   4.877913900549431
0.0015                    0.0275                   4.865014449440606
0.0015                    0.0285                   4.8516639186700665
0.0015                    0.0295                   4.838308136848211
0.0015                    0.0305                   4.8257930315708055
0.0015                    0.0315                   4.8166051115619295
0.0025                    -0.0315                  3.264646785925772
0.0025                    -0.0305                  3.2799210229870925
0.0025                    -0.0295                  3.303062833704419
0.0025                    -0.0285                  3.3291705927491626
0.0025                    -0.0275                  3.355916347366585
0.0025                    -0.0265                  3.3828541427840615
0.0025                    -0.0255                  3.409875572777443
0.0025                    -0.0245                  3.4369988866843717
0.0025                    -0.0235                  3.464252998208818
0.0025                    -0.0225                  3.491670676450391
0.0025                    -0.0215                  3.519327692843106
0.0025                    -0.0205                  3.5472651795751484
0.0025                    -0.0195                  3.5756837137550317
0.0025                    -0.0185                  3.6047261894559317
0.0025                    -0.0175                  3.634812062427007
0.0025                    -0.0165                  3.6664049712467364
0.0025                    -0.0155                  3.700111841987998
0.0025                    -0.0145                  3.7368367557764044
0.0025                    -0.0135                  3.7768877607155007
0.0025                    -0.0125                  3.821353636412365
0.0025                    -0.0115                  3.86967222378258
0.0025                    -0.0105                  3.9221517390301024
0.0025                    -0.0095                  3.9779357207154504
0.0025                    -0.0085                  4.036630260516594
0.0025                    -0.0075                  4.097690259542633
0.0025                    -0.0065                  4.16037594986411
0.0025                    -0.0055                  4.2236724462814035
0.0025                    -0.0045                  4.285810431154326
0.0025                    -0.0035                  4.343599794059795
0.0025                    -0.0025                  4.393787749764902
0.0025                    -0.0015                  4.430866554971414
0.0025                    -5.0E-4                  4.448188959471272
0.0025                    5.0E-4                   4.440885090396073
0.0025                    0.0015                   4.401771724802082
0.0025                    0.0025                   4.33106731203984
0.0025                    0.0035                   4.2273610312082806
0.0025                    0.0045                   4.11674451487542
0.0025                    0.0055                   4.0250325372597615
0.0025                    0.0065                   3.9600081809729186
0.0025                    0.0075                   3.909283681093325
0.0025                    0.0085                   3.869449945569049
0.0025                    0.0095                   3.8496250940366252
0.0025                    0.0105                   3.8442803280373754
0.0025                    0.0115                   3.8419969425453355
0.0025                    0.0125                   3.8393312654552365
0.0025                    0.0135                   3.843655210525526
0.0025                    0.0145                   3.9733284941594404
0.0025                    0.0155                   4.455999608829333
0.0025                    0.0165                   4.839607619922072
0.0025                    0.0175                   4.936141294370455
0.0025                    0.0185                   4.936294737168597
0.0025                    0.0195                   4.93685873520608
0.0025                    0.0205                   4.936110021553522
0.0025                    0.0215                   4.934757034277851
0.0025                    0.0225                   4.931463503402389
0.0025                    0.0235                   4.924083339930444
0.0025                    0.0245                   4.913363726067489
0.0025                    0.0255                   4.899984596178779
0.0025                    0.0265                   4.884610038908656
0.0025                    0.0275                   4.867808298138444
0.0025                    0.0285                   4.850112494914506
0.0025                    0.0295                   4.832528038094379
0.0025                    0.0305                   4.817058585827304
0.0025                    0.0315                   4.806964115478433
0.0035                    -0.0315                  3.241442871753278
0.0035                    -0.0305                  3.254915189518737
0.0035                    -0.0295                  3.2765118448500785
0.0035                    -0.0285                  3.30247967682866
0.0035                    -0.0275                  3.3298158865262595
0.0035                    -0.0265                  3.3574640598566403
0.0035                    -0.0255                  3.3849869021265344
0.0035                    -0.0245                  3.4122779739640947
0.0035                    -0.0235                  3.439325649756252
0.0035                    -0.0225                  3.4661529281242416
0.0035                    -0.0215                  3.4927793915904517
0.0035                    -0.0205                  3.519295679877787
0.0035                    -0.0195                  3.545844995828698
0.0035                    -0.0185                  3.57268797090793
0.0035                    -0.0175                  3.6003164913416628
0.0035                    -0.0165                  3.6294391690246295
0.0035                    -0.0155                  3.660980512294922
0.0035                    -0.0145                  3.69644940968451
0.0035                    -0.0135                  3.7366371732228827
0.0035                    -0.0125                  3.783734622729737
0.0035                    -0.0115                  3.837373756790243
0.0035                    -0.0105                  3.8985615168745125
0.0035                    -0.0095                  3.9661144366250287
0.0035                    -0.0085                  4.039366820568152
0.0035                    -0.0075                  4.117312504418001
0.0035                    -0.0065                  4.198641070832199
0.0035                    -0.0055                  4.282026142478512
0.0035                    -0.0045                  4.36455660704314
0.0035                    -0.0035                  4.440861768693462
0.0035                    -0.0025                  4.504555372482102
0.0035                    -0.0015                  4.546611864461163
0.0035                    -5.0E-4                  4.559015606692674
0.0035                    5.0E-4                   4.538984318900321
0.0035                    0.0015                   4.486223731212071
0.0035                    0.0025                   4.406796851346527
0.0035                    0.0035                   4.292065312414939
0.0035                    0.0045                   4.169762219115835
0.0035                    0.0055                   4.077623470248386
0.0035                    0.0065                   4.023201764623655
0.0035                    0.0075                   3.9684007218951995
0.0035                    0.0085                   3.8949337686276637
0.0035                    0.0095                   3.8524578972576693
0.0035                    0.0105                   3.8447200906551777
0.0035                    0.0115                   3.843848852595909
0.0035                    0.0125                   3.8424295263056965
0.0035                    0.0135                   3.857673952341139
0.0035                    0.0145                   4.082672445324312
0.0035                    0.0155                   4.5775606805186335
0.0035                    0.0165                   4.910780001607967
0.0035                    0.0175                   4.968869582323254
0.0035                    0.0185                   4.965682867376995
0.0035                    0.0195                   4.960897622539186
0.0035                    0.0205                   4.956138485307177
0.0035                    0.0215                   4.95334118314042
0.0035                    0.0225                   4.949934025698055
0.0035                    0.0235                   4.942507833224513
0.0035                    0.0245                   4.930480551550447
0.0035                    0.0255                   4.914081327593471
0.0035                    0.0265                   4.894301600582278
0.0035                    0.0275                   4.872251466851567
0.0035                    0.0285                   4.849090758158291
0.0035                    0.0295                   4.826640085443157
0.0035                    0.0305                   4.807903780017801
0.0035                    0.0315                   4.7962235397068875
0.0045                    -0.0315                  3.2170978152385796
0.0045                    -0.0305                  3.2292174012294925
0.0045                    -0.0295                  3.2492042209442573
0.0045                    -0.0285                  3.2742354933904814
0.0045                    -0.0275                  3.301375870707378
0.0045                    -0.0265                  3.3292868951137597
0.0045                    -0.0255                  3.3570839620562944
0.0045                    -0.0245                  3.3844421330155217
0.0045                    -0.0235                  3.41122614101479
0.0045                    -0.0225                  3.4374193015314
0.0045                    -0.0215                  3.462959317769534
0.0045                    -0.0205                  3.487974668015083
0.0045                    -0.0195                  3.512525373880666
0.0045                    -0.0185                  3.5369589158106405
0.0045                    -0.0175                  3.561780007091004
0.0045                    -0.0165                  3.587866208243887
0.0045                    -0.0155                  3.616381851270725
0.0045                    -0.0145                  3.6493768408799627
0.0045                    -0.0135                  3.688200246896849
0.0045                    -0.0125                  3.7363760744320977
0.0045                    -0.0115                  3.7941141011443213
0.0045                    -0.0105                  3.8635864142981795
0.0045                    -0.0095                  3.943473076583587
0.0045                    -0.0085                  4.032658348748964
0.0045                    -0.0075                  4.129121827919457
0.0045                    -0.0065                  4.230238963013491
0.0045                    -0.0055                  4.3335388716139995
0.0045                    -0.0045                  4.434681520467731
0.0045                    -0.0035                  4.525296970664647
0.0045                    -0.0025                  4.595428294716298
0.0045                    -0.0015                  4.632579824513778
0.0045                    -5.0E-4                  4.631401437659869
0.0045                    5.0E-4                   4.599472830887297
0.0045                    0.0015                   4.53772945116847
0.0045                    0.0025                   4.4521632685553225
0.0045                    0.0035                   4.3349587531326375
0.0045                    0.0045                   4.206722491815728
0.0045                    0.0055                   4.1088665396373365
0.0045                    0.0065                   4.0570043663628015
0.0045                    0.0075                   4.001359008118973
0.0045                    0.0085                   3.917515194888602
0.0045                    0.0095                   3.8596124390149256
0.0045                    0.0105                   3.847717107865904
0.0045                    0.0115                   3.8489722261010444
0.0045                    0.0125                   3.851991928926517
0.0045                    0.0135                   3.895011129530552
0.0045                    0.0145                   4.269065722565674
0.0045                    0.0155                   4.728443988529409
0.0045                    0.0165                   4.9824304649714115
0.0045                    0.0175                   5.007139939464382
0.0045                    0.0185                   4.99980587874837
0.0045                    0.0195                   4.99097049783192
0.0045                    0.0205                   4.983418455149254
0.0045                    0.0215                   4.979929142276344
0.0045                    0.0225                   4.9760607511986
0.0045                    0.0235                   4.967069958132904
0.0045                    0.0245                   4.952281272515238
0.0045                    0.0255                   4.931639840207704
0.0045                    0.0265                   4.906325428065899
0.0045                    0.0275                   4.878029148295797
0.0045                    0.0285                   4.848698156868056
0.0045                    0.0295                   4.820881641157493
0.0045                    0.0305                   4.798321845503221
0.0045                    0.0315                   4.784536549689659
0.0055                    -0.0315                  3.191653094259415
0.0055                    -0.0305                  3.2028643440607416
0.0055                    -0.0295                  3.221584892582065
0.0055                    -0.0285                  3.2455116103607224
0.0055                    -0.0275                  3.2719522857254586
0.0055                    -0.0265                  3.2996246457066865
0.0055                    -0.0255                  3.3273668605464666
0.0055                    -0.0245                  3.354630760481497
0.0055                    -0.0235                  3.3810925663252194
0.0055                    -0.0225                  3.406653827242139
0.0055                    -0.0215                  3.4311399455413008
0.0055                    -0.0205                  3.454695011523874
0.0055                    -0.0195                  3.477269329827779
0.0055                    -0.0185                  3.4992497147904262
0.0055                    -0.0175                  3.52107533423973
0.0055                    -0.0165                  3.5436634321235982
0.0055                    -0.0155                  3.5682606731649402
0.0055                    -0.0145                  3.597209809053369
0.0055                    -0.0135                  3.6323579661909156
0.0055                    -0.0125                  3.678514107517751
0.0055                    -0.0115                  3.7369919879196107
0.0055                    -0.0105                  3.8118618855169113
0.0055                    -0.0095                  3.90250522085503
0.0055                    -0.0085                  4.007545766587542
0.0055                    -0.0075                  4.123261045098413
0.0055                    -0.0065                  4.244299144974947
0.0055                    -0.0055                  4.364823613194445
0.0055                    -0.0045                  4.478413997948751
0.0055                    -0.0035                  4.574273198925156
0.0055                    -0.0025                  4.64325730791166
0.0055                    -0.0015                  4.675753576724138
0.0055                    -5.0E-4                  4.67215325271205
0.0055                    5.0E-4                   4.639292984578563
0.0055                    0.0015                   4.573067527318298
0.0055                    0.0025                   4.481046936911653
0.0055                    0.0035                   4.359937092792314
0.0055                    0.0045                   4.223819783349209
0.0055                    0.0055                   4.107247055802985
0.0055                    0.0065                   4.037504658492919
0.0055                    0.0075                   3.9862031693735496
0.0055                    0.0085                   3.920237669397183
0.0055                    0.0095                   3.865573579944373
0.0055                    0.0105                   3.850104639174877
0.0055                    0.0115                   3.8522319016687643
0.0055                    0.0125                   3.869633854443535
0.0055                    0.0135                   4.057915528650254
0.0055                    0.0145                   4.576742290592769
0.0055                    0.0155                   4.91339235082923
0.0055                    0.0165                   5.042382760963919
0.0055                    0.0175                   5.0449547480872905
0.0055                    0.0185                   5.037032125974683
0.0055                    0.0195                   5.027676240421394
0.0055                    0.0205                   5.021441059762639
0.0055                    0.0215                   5.018241381505057
0.0055                    0.0225                   5.012248955639818
0.0055                    0.0235                   4.999585208424933
0.0055                    0.0245                   4.979851250331412
0.0055                    0.0255                   4.952986182145358
0.0055                    0.0265                   4.920528782062018
0.0055                    0.0275                   4.884781989716239
0.0055                    0.0285                   4.84848612046525
0.0055                    0.0295                   4.814699734634796
0.0055                    0.0305                   4.787807286552555
0.0055                    0.0315                   4.771568603034407
0.0065                    -0.0315                  3.1653746503331464
0.0065                    -0.0305                  3.1759730065882112
0.0065                    -0.0295                  3.1937801878583003
0.0065                    -0.0285                  3.216787410187095
0.0065                    -0.0275                  3.2424930070637736
0.0065                    -0.0265                  3.2697273264992384
0.0065                    -0.0255                  3.2972202581904586
0.0065                    -0.0245                  3.324275429494687
0.0065                    -0.0235                  3.3503872068004488
0.0065                    -0.0225                  3.375356633565043
0.0065                    -0.0215                  3.398877401318124
0.0065                    -0.0205                  3.4210878153710733
0.0065                    -0.0195                  3.4418132395703527
0.0065                    -0.0185                  3.461440097699033
0.0065                    -0.0175                  3.4802896137189894
0.0065                    -0.0165                  3.4992086199901675
0.0065                    -0.0155                  3.519380413476705
0.0065                    -0.0145                  3.5431298934332878
0.0065                    -0.0135                  3.5726096015755844
0.0065                    -0.0125                  3.6134357019765844
0.0065                    -0.0115                  3.6683120667495777
0.0065                    -0.0105                  3.7436453217798475
0.0065                    -0.0095                  3.8408675758478146
0.0065                    -0.0085                  3.9594134087452444
0.0065                    -0.0075                  4.093893706604232
0.0065                    -0.0065                  4.234658197234098
0.0065                    -0.0055                  4.369763536986368
0.0065                    -0.0045                  4.489025071218415
0.0065                    -0.0035                  4.582073854993885
0.0065                    -0.0025                  4.6494321202107995
0.0065                    -0.0015                  4.689964148299671
0.0065                    -5.0E-4                  4.700804182839594
0.0065                    5.0E-4                   4.672767613749388
0.0065                    0.0015                   4.594251271346409
0.0065                    0.0025                   4.482211160494446
0.0065                    0.0035                   4.346343451507371
0.0065                    0.0045                   4.206374886859223
0.0065                    0.0055                   4.091664020945135
0.0065                    0.0065                   4.022562626600695
0.0065                    0.0075                   3.974861031753981
0.0065                    0.0085                   3.9164081597557754
0.0065                    0.0095                   3.8619637169187997
0.0065                    0.0105                   3.842461716630786
0.0065                    0.0115                   3.8639525889884356