% Model:              Benchmark260518.mph
% Version:            COMSOL 6.2.0.339
% Date:               May 19 2026, 22:22
% Dimension:          2
% Nodes:              4096
% Expressions:        1
% Description:        压力
% Length unit:        m
% x                       y                        p (Pa)
5.0E-4                    -0.0315                  3.593207870753526
5.0E-4                    -0.0305                  3.612138171815136
5.0E-4                    -0.0295                  3.6378778637736637
5.0E-4                    -0.0285                  3.665901333162731
5.0E-4                    -0.0275                  3.695215845218931
5.0E-4                    -0.0265                  3.7254306890124687
5.0E-4                    -0.0255                  3.7562868032358177
5.0E-4                    -0.0245                  3.7876508868790615
5.0E-4                    -0.0235                  3.8194279388183103
5.0E-4                    -0.0225                  3.8515540135326294
5.0E-4                    -0.0215                  3.8839931167764012
5.0E-4                    -0.0205                  3.9167245233953096
5.0E-4                    -0.0195                  3.9497491681410937
5.0E-4                    -0.0185                  3.983086470781128
5.0E-4                    -0.0175                  4.016763137320831
5.0E-4                    -0.0165                  4.05079931250115
5.0E-4                    -0.0155                  4.085204442128755
5.0E-4                    -0.0145                  4.119976414603064
5.0E-4                    -0.0135                  4.155105378481117
5.0E-4                    -0.0125                  4.1905826524099385
5.0E-4                    -0.0115                  4.226409322590301
5.0E-4                    -0.0105                  4.262631018658367
5.0E-4                    -0.0095                  4.299366162691884
5.0E-4                    -0.0085                  4.336831055705904
5.0E-4                    -0.0075                  4.375401751463892
5.0E-4                    -0.0065                  4.4156126349073155
5.0E-4                    -0.0055                  4.458255667761004
5.0E-4                    -0.0045                  4.50380762541706
5.0E-4                    -0.0035                  4.550749540316046
5.0E-4                    -0.0025                  4.595727005748604
5.0E-4                    -0.0015                  4.635222512846731
5.0E-4                    -5.0E-4                  4.66463012668755
5.0E-4                    5.0E-4                   4.681849292800881
5.0E-4                    0.0015                   4.689576047933273
5.0E-4                    0.0025                   4.690848217702658
5.0E-4                    0.0035                   4.6879822426044395
5.0E-4                    0.0045                   4.683443514930406
5.0E-4                    0.0055                   4.6801744262079765
5.0E-4                    0.0065                   4.680824963829194
5.0E-4                    0.0075                   4.6858800597607475
5.0E-4                    0.0085                   4.692683797426218
5.0E-4                    0.0095                   4.696479994694627
5.0E-4                    0.0105                   4.692962534149017
5.0E-4                    0.0115                   4.680509554997052
5.0E-4                    0.0125                   4.661066590419464
5.0E-4                    0.0135                   4.639292106398159
5.0E-4                    0.0145                   4.620098155761626
5.0E-4                    0.0155                   4.6061189618250244
5.0E-4                    0.0165                   4.59682460658934
5.0E-4                    0.0175                   4.589862890774768
5.0E-4                    0.0185                   4.583484279008072
5.0E-4                    0.0195                   4.596626150147104
5.0E-4                    0.0205                   4.681496559283459
5.0E-4                    0.0215                   4.816964599358691
5.0E-4                    0.0225                   4.9205529014523135
5.0E-4                    0.0235                   4.974737257322175
5.0E-4                    0.0245                   4.9991752764064685
5.0E-4                    0.0255                   5.008548087381757
5.0E-4                    0.0265                   5.011105076577133
5.0E-4                    0.0275                   5.00880983626204
5.0E-4                    0.0285                   4.999150708942008
5.0E-4                    0.0295                   4.981781843889878
5.0E-4                    0.0305                   4.960801609265061
5.0E-4                    0.0315                   4.943027921001575
0.0015                    -0.0315                  3.574125639200663
0.0015                    -0.0305                  3.5930724849885016
0.0015                    -0.0295                  3.6206371923583704
0.0015                    -0.0285                  3.650821734794873
0.0015                    -0.0275                  3.681964702156975
0.0015                    -0.0265                  3.7136541841761384
0.0015                    -0.0255                  3.7457267976537443
0.0015                    -0.0245                  3.77808579692768
0.0015                    -0.0235                  3.8106681612020705
0.0015                    -0.0225                  3.8434242705635784
0.0015                    -0.0215                  3.876322515583311
0.0015                    -0.0205                  3.9093538203237745
0.0015                    -0.0195                  3.9425347930077157
0.0015                    -0.0185                  3.9759084259041795
0.0015                    -0.0175                  4.009535445811496
0.0015                    -0.0165                  4.043479332856869
0.0015                    -0.0155                  4.077788229792408
0.0015                    -0.0145                  4.112479091049572
0.0015                    -0.0135                  4.1475278153901485
0.0015                    -0.0125                  4.182872288910787
0.0015                    -0.0115                  4.21843120066314
0.0015                    -0.0105                  4.254134314881413
0.0015                    -0.0095                  4.289963964360606
0.0015                    -0.0085                  4.3260151372532585
0.0015                    -0.0075                  4.362606880160924
0.0015                    -0.0065                  4.400457077476741
0.0015                    -0.0055                  4.440683046737831
0.0015                    -0.0045                  4.484477357229641
0.0015                    -0.0035                  4.531871251099911
0.0015                    -0.0025                  4.580209675314524
0.0015                    -0.0015                  4.625082344659299
0.0015                    -5.0E-4                  4.6593810645738225
0.0015                    5.0E-4                   4.67999344466242
0.0015                    0.0015                   4.68994062189756
0.0015                    0.0025                   4.6914489448295775
0.0015                    0.0035                   4.686769282211117
0.0015                    0.0045                   4.6791269383829635
0.0015                    0.0055                   4.6725130574267855
0.0015                    0.0065                   4.670430916026699
0.0015                    0.0075                   4.67396128090422
0.0015                    0.0085                   4.680775261818226
0.0015                    0.0095                   4.6860157998031555
0.0015                    0.0105                   4.68466865681668
0.0015                    0.0115                   4.674203123157868
0.0015                    0.0125                   4.6560722698998145
0.0015                    0.0135                   4.634988124527521
0.0015                    0.0145                   4.6163718621362255
0.0015                    0.0155                   4.603306955667644
0.0015                    0.0165                   4.5953549112215235
0.0015                    0.0175                   4.590271666525357
0.0015                    0.0185                   4.5893450129742135
0.0015                    0.0195                   4.601062648369811
0.0015                    0.0205                   4.691339309257141
0.0015                    0.0215                   4.831629962716973
0.0015                    0.0225                   4.924817093291617
0.0015                    0.0235                   4.971339125482905
0.0015                    0.0245                   4.990640856936147
0.0015                    0.0255                   4.998279913641613
0.0015                    0.0265                   5.001209204551543
0.0015                    0.0275                   5.000456654502569
0.0015                    0.0285                   4.992924355847938
0.0015                    0.0295                   4.974314442867916
0.0015                    0.0305                   4.946889801493253
0.0015                    0.0315                   4.9235189619092665
0.0025                    -0.0315                  3.547945457758037
0.0025                    -0.0305                  3.5651096975391785
0.0025                    -0.0295                  3.592667592745293
0.0025                    -0.0285                  3.624576218452601
0.0025                    -0.0275                  3.6579339430739015
0.0025                    -0.0265                  3.6917507437786403
0.0025                    -0.0255                  3.7257318842808136
0.0025                    -0.0245                  3.759761451847192
0.0025                    -0.0235                  3.7937647671899293
0.0025                    -0.0225                  3.827681877606449
0.0025                    -0.0215                  3.8614686013952273
0.0025                    -0.0205                  3.8951109570618803
0.0025                    -0.0195                  3.928636331482946
0.0025                    -0.0185                  3.9621170828476684
0.0025                    -0.0175                  3.9956648499969454
0.0025                    -0.0165                  4.029412500185116
0.0025                    -0.0155                  4.06348327414045
0.0025                    -0.0145                  4.097950568675263
0.0025                    -0.0135                  4.132800273085572
0.0025                    -0.0125                  4.167913832265884
0.0025                    -0.0115                  4.203084120116937
0.0025                    -0.0105                  4.238058667328746
0.0025                    -0.0095                  4.272604177706062
0.0025                    -0.0085                  4.306603649401346
0.0025                    -0.0075                  4.340221661187454
0.0025                    -0.0065                  4.374161305260696
0.0025                    -0.0055                  4.409882595013931
0.0025                    -0.0045                  4.449362939907454
0.0025                    -0.0035                  4.494202201604167
0.0025                    -0.0025                  4.543506752037791
0.0025                    -0.0015                  4.593317909602659
0.0025                    -5.0E-4                  4.636020317575078
0.0025                    5.0E-4                   4.665712138013262
0.0025                    0.0015                   4.680648292084594
0.0025                    0.0025                   4.680334728579309
0.0025                    0.0035                   4.669081404280662
0.0025                    0.0045                   4.6544455323766645
0.0025                    0.0055                   4.642730430916499
0.0025                    0.0065                   4.637792615121852
0.0025                    0.0075                   4.640621382777199
0.0025                    0.0085                   4.649164222346505
0.0025                    0.0095                   4.658982399930716
0.0025                    0.0105                   4.664556640670541
0.0025                    0.0115                   4.661950767848634
0.0025                    0.0125                   4.650792411783548
0.0025                    0.0135                   4.634411268154944
0.0025                    0.0145                   4.618374990494409
0.0025                    0.0155                   4.607014090691791
0.0025                    0.0165                   4.602017222710688
0.0025                    0.0175                   4.605067979141646
0.0025                    0.0185                   4.621853867637652
0.0025                    0.0195                   4.674576118880903
0.0025                    0.0205                   4.772347853330674
0.0025                    0.0215                   4.8722853724148845
0.0025                    0.0225                   4.937229234009953
0.0025                    0.0235                   4.969726266520931
0.0025                    0.0245                   4.983286767605977
0.0025                    0.0255                   4.989293057136997
0.0025                    0.0265                   4.992088262682038
0.0025                    0.0275                   4.991159460217125
0.0025                    0.0285                   4.981625897116446
0.0025                    0.0295                   4.957675711613793
0.0025                    0.0305                   4.922310597181498
0.0025                    0.0315                   4.8931523615506185
0.0035                    -0.0315                  3.5192430991380186
0.0035                    -0.0305                  3.5342905076923756
0.0035                    -0.0295                  3.5601202262043543
0.0035                    -0.0285                  3.59200133139244
0.0035                    -0.0275                  3.6266336930634044
0.0035                    -0.0265                  3.662291313861677
0.0035                    -0.0255                  3.6982454163577483
0.0035                    -0.0245                  3.734191251899647
0.0035                    -0.0235                  3.769957502177666
0.0035                    -0.0225                  3.8054133807865904
0.0035                    -0.0215                  3.8404566359764334
0.0035                    -0.0205                  3.875028826494543
0.0035                    -0.0195                  3.9091354333570116
0.0035                    -0.0185                  3.942857069091099
0.0035                    -0.0175                  3.9763468033554252
0.0035                    -0.0165                  4.00981105648073
0.0035                    -0.0155                  4.043471284444205
0.0035                    -0.0145                  4.077505802430658
0.0035                    -0.0135                  4.111978482338854
0.0035                    -0.0125                  4.146778014567022
0.0035                    -0.0115                  4.181603793602392
0.0035                    -0.0105                  4.216015284880534
0.0035                    -0.0095                  4.249530185395131
0.0035                    -0.0085                  4.281760020421964
0.0035                    -0.0075                  4.312590388734938
0.0035                    -0.0065                  4.342439523808361
0.0035                    -0.0055                  4.372646141056583
0.0035                    -0.0045                  4.405666488913772
0.0035                    -0.0035                  4.443967664535978
0.0035                    -0.0025                  4.48902128412897
0.0035                    -0.0015                  4.539538037097086
0.0035                    -5.0E-4                  4.589244615537562
0.0035                    5.0E-4                   4.628284748229637
0.0035                    0.0015                   4.646828686347554
0.0035                    0.0025                   4.642478193418209
0.0035                    0.0035                   4.62417901095432
0.0035                    0.0045                   4.603550176461034
0.0035                    0.0055                   4.588445969528202
0.0035                    0.0065                   4.583003233555688
0.0035                    0.0075                   4.5876952307002
0.0035                    0.0085                   4.600498911334381
0.0035                    0.0095                   4.6181095033361785
0.0035                    0.0105                   4.636124085083392
0.0035                    0.0115                   4.649500873346151
0.0035                    0.0125                   4.655018008607619
0.0035                    0.0135                   4.653038045168915
0.0035                    0.0145                   4.647699125314235
0.0035                    0.0155                   4.645190357171164
0.0035                    0.0165                   4.650982457267469
0.0035                    0.0175                   4.6699559888409885
0.0035                    0.0185                   4.708863720064011
0.0035                    0.0195                   4.772019018693715
0.0035                    0.0205                   4.846629411809569
0.0035                    0.0215                   4.909080327201412
0.0035                    0.0225                   4.94770049604787
0.0035                    0.0235                   4.9666759872278865
0.0035                    0.0245                   4.975535005264251
0.0035                    0.0255                   4.9803919229156035
0.0035                    0.0265                   4.982779060349169
0.0035                    0.0275                   4.9799862906327945
0.0035                    0.0285                   4.964825328066613
0.0035                    0.0295                   4.932080077141308
0.0035                    0.0305                   4.8883826990376695
0.0035                    0.0315                   4.854565169524449
0.0045                    -0.0315                  3.4892224161178174
0.0045                    -0.0305                  3.502396862735118
0.0045                    -0.0295                  3.5259835589487523
0.0045                    -0.0285                  3.5565050325544405
0.0045                    -0.0275                  3.5910686738067543
0.0045                    -0.0265                  3.627666692440801
0.0045                    -0.0255                  3.6651311300825857
0.0045                    -0.0245                  3.702842869891536
0.0045                    -0.0235                  3.74043709632955
0.0045                    -0.0225                  3.7776434902541
0.0045                    -0.0215                  3.8142404936394274
0.0045                    -0.0205                  3.850066833498602
0.0045                    -0.0195                  3.8850506384817565
0.0045                    -0.0185                  3.9192327427144917
0.0045                    -0.0175                  3.9527717134433984
0.0045                    -0.0165                  3.9859272613379213
0.0045                    -0.0155                  4.019021705304256
0.0045                    -0.0145                  4.0523767588828274
0.0045                    -0.0135                  4.086222952944295
0.0045                    -0.0125                  4.120586896411606
0.0045                    -0.0115                  4.155199643628205
0.0045                    -0.0105                  4.189497865183305
0.0045                    -0.0095                  4.222738901217875
0.0045                    -0.0085                  4.254184148251536
0.0045                    -0.0075                  4.28332847271475
0.0045                    -0.0065                  4.310182485650917
0.0045                    -0.0055                  4.335662376867143
0.0045                    -0.0045                  4.36196467568268
0.0045                    -0.0035                  4.392012759938579
0.0045                    -0.0025                  4.429488533230621
0.0045                    -0.0015                  4.475684440437126
0.0045                    -5.0E-4                  4.525249291109266
0.0045                    5.0E-4                   4.566556982333816
0.0045                    0.0015                   4.585613001205563
0.0045                    0.0025                   4.579309956101483
0.0045                    0.0035                   4.559280515109614
0.0045                    0.0045                   4.539465764555128
0.0045                    0.0055                   4.528462895364473
0.0045                    0.0065                   4.528705736479881
0.0045                    0.0075                   4.53898276818788
0.0045                    0.0085                   4.557430040685888
0.0045                    0.0095                   4.582723409740555
0.0045                    0.0105                   4.6130340447655005
0.0045                    0.0115                   4.644442873472898
0.0045                    0.0125                   4.672423802071217
0.0045                    0.0135                   4.694517041887055
0.0045                    0.0145                   4.7124180309459085
0.0045                    0.0155                   4.731430944183582
0.0045                    0.0165                   4.756081756805471
0.0045                    0.0175                   4.788231079312651
0.0045                    0.0185                   4.827259416957581
0.0045                    0.0195                   4.868452782409227
0.0045                    0.0205                   4.905468275103651
0.0045                    0.0215                   4.933463171228781
0.0045                    0.0225                   4.951093926884562
0.0045                    0.0235                   4.961228075912181
0.0045                    0.0245                   4.967407830941019
0.0045                    0.0255                   4.971470288303233
0.0045                    0.0265                   4.972536711692031
0.0045                    0.0275                   4.965309686921209
0.0045                    0.0285                   4.941201052382594
0.0045                    0.0295                   4.89764100488458
0.0045                    0.0305                   4.845716404209087
0.0045                    0.0315                   4.808584655626738
0.0055                    -0.0315                  3.4583379924795183
0.0055                    -0.0305                  3.4699475584200004
0.0055                    -0.0295                  3.4913084361197493
0.0055                    -0.0285                  3.5198651627712225
0.0055                    -0.0275                  3.553311696278833
0.0055                    -0.0265                  3.5897961970625696
0.0055                    -0.0255                  3.6279782278381223
0.0055                    -0.0245                  3.6669746418821574
0.0055                    -0.0235                  3.7061938533202805
0.0055                    -0.0225                  3.7451799360877365
0.0055                    -0.0215                  3.783538852624753
0.0055                    -0.0205                  3.820941253172405
0.0055                    -0.0195                  3.8571644236747136
0.0055                    -0.0185                  3.89213643135713
0.0055                    -0.0175                  3.925959055043793
0.0055                    -0.0165                  3.9589006664035606
0.0055                    -0.0155                  3.9913627793816433
0.0055                    -0.0145                  4.02382394830269
0.0055                    -0.0135                  4.056752238026168
0.0055                    -0.0125                  4.09047177174142
0.0055                    -0.0115                  4.12497196368548
0.0055                    -0.0105                  4.1597443948755055
0.0055                    -0.0095                  4.193803832481103
0.0055                    -0.0085                  4.225933666557254
0.0055                    -0.0075                  4.25505901266952
0.0055                    -0.0065                  4.280718367626104
0.0055                    -0.0055                  4.303516815140825
0.0055                    -0.0045                  4.325282520642429
0.0055                    -0.0035                  4.34900658850222
0.0055                    -0.0025                  4.378867571410915
0.0055                    -0.0015                  4.41672470829206
0.0055                    -5.0E-4                  4.45904087708248
0.0055                    5.0E-4                   4.495985730384781
0.0055                    0.0015                   4.513889979611187
0.0055                    0.0025                   4.509811134492199
0.0055                    0.0035                   4.496310368389369
0.0055                    0.0045                   4.487158996436864
0.0055                    0.0055                   4.487939644749399
0.0055                    0.0065                   4.497803437242568
0.0055                    0.0075                   4.5146824774530545
0.0055                    0.0085                   4.537966068081412
0.0055                    0.0095                   4.56830138070163
0.0055                    0.0105                   4.606112465618825
0.0055                    0.0115                   4.650199191917439
0.0055                    0.0125                   4.697153832726338
0.0055                    0.0135                   4.743393248427232
0.0055                    0.0145                   4.7883427893581345
0.0055                    0.0155                   4.833126578200947
0.0055                    0.0165                   4.875805886386906
0.0055                    0.0175                   4.910470088024832
0.0055                    0.0185                   4.931461518069707
0.0055                    0.0195                   4.938947265212711
0.0055                    0.0205                   4.940543361155123
0.0055                    0.0215                   4.943120922475068
0.0055                    0.0225                   4.948049799855444
0.0055                    0.0235                   4.953836904866179
0.0055                    0.0245                   4.958836016320378
0.0055                    0.0255                   4.9619647030322644
0.0055                    0.0265                   4.959871042250807
0.0055                    0.0275                   4.944649430269957
0.0055                    0.0285                   4.908613287642
0.0055                    0.0295                   4.85381412190309
0.0055                    0.0305                   4.795032251063652
0.0055                    0.0315                   4.755882009606544
0.0065                    -0.0315                  3.426818655249865
0.0065                    -0.0305                  3.437132038639481
0.0065                    -0.0295                  3.4564479601069245
0.0065                    -0.0285                  3.4828590372075734
0.0065                    -0.0275                  3.514578864450139
0.0065                    -0.0265                  3.550076037133428
0.0065                    -0.0255                  3.5880969955794004
0.0065                    -0.0245                  3.6276750108363913
0.0065                    -0.0235                  3.6680687239535725
0.0065                    -0.0225                  3.708656535662108
0.0065                    -0.0215                  3.748858776488348
0.0065                    -0.0205                  3.7881306678165854
0.0065                    -0.0195                  3.8260193192478034
0.0065                    -0.0185                  3.8622443537790385
0.0065                    -0.0175                  3.8967584360207703
0.0065                    -0.0165                  3.929767202685648
0.0065                    -0.0155                  3.9617074613027903
0.0065                    -0.0145                  3.9932017488961415
0.0065                    -0.0135                  4.024990016454171
0.0065                    -0.0125                  4.057804427940731
0.0065                    -0.0115                  4.092143048382969
0.0065                    -0.0105                  4.127882645187463
0.0065                    -0.0095                  4.163941401079161
0.0065                    -0.0085                  4.198420278773344
0.0065                    -0.0075                  4.2293456612564535
0.0065                    -0.0065                  4.255604650080342
0.0065                    -0.0055                  4.277681414011676
0.0065                    -0.0045                  4.297586922522584
0.0065                    -0.0035                  4.317989680211477
0.0065                    -0.0025                  4.341734588292694
0.0065                    -0.0015                  4.370510131982803
0.0065                    -5.0E-4                  4.404074119826559
0.0065                    5.0E-4                   4.4351303253227865
0.0065                    0.0015                   4.451869825880126
0.0065                    0.0025                   4.454188880561379
0.0065                    0.0035                   4.453504989901739
0.0065                    0.0045                   4.4581767586417165
0.0065                    0.0055                   4.469427493026296
0.0065                    0.0065                   4.486156699558788
0.0065                    0.0075                   4.507973263812562
0.0065                    0.0085                   4.535577242274028
0.0065                    0.0095                   4.570313214525134
0.0065                    0.0105                   4.6133051293446785
0.0065                    0.0115                   4.664284541438599
0.0065                    0.0125                   4.720820132107539