% Model:              Benchmark260518.mph
% Version:            COMSOL 6.2.0.339
% Date:               May 21 2026, 17:06
% Dimension:          2
% Nodes:              4096
% Expressions:        1
% Description:        压力
% Length unit:        m
% x                       y                        p (Pa)
% mirrored_by_python_y_to_minus_y, coord_match_decimals=12
0.0005 -0.0315 4.45669617452
0.0005 -0.0305 4.47250452163
0.0005 -0.0295 4.49398288384
0.0005 -0.0285 4.51733280506
0.0005 -0.0275 4.54174660818
0.0005 -0.0265 4.56693354453
0.0005 -0.0255 4.59274989757
0.0005 -0.0245 4.61916183082
0.0005 -0.0235 4.64622124525
0.0005 -0.0225 4.67421193007
0.0005 -0.0215 4.70375509549
0.0005 -0.0205 4.7355095958
0.0005 -0.0195 4.76973326106
0.0005 -0.0185 4.80627580269
0.0005 -0.0175 4.84593660627
0.0005 -0.0165 4.88952292385
0.0005 -0.0155 4.92304567296
0.0005 -0.0145 4.93583942453
0.0005 -0.0135 4.9396998597
0.0005 -0.0125 4.94616067504
0.0005 -0.0115 4.95754212911
0.0005 -0.0105 4.97159505923
0.0005 -0.0095 4.98475041378
0.0005 -0.0085 4.99347891674
0.0005 -0.0075 4.99641043131
0.0005 -0.0065 4.99351659486
0.0005 -0.0055 4.98586590384
0.0005 -0.0045 4.97575708611
0.0005 -0.0035 4.96451755473
0.0005 -0.0025 4.95163721334
0.0005 -0.0015 4.9329764957
0.0005 -0.0005 4.906544697
0.0005 0.0005 4.88317149075
0.0005 0.0015 4.87301293107
0.0005 0.0025 4.86582839095
0.0005 0.0035 4.84888743954
0.0005 0.0045 4.81907942204
0.0005 0.0055 4.77728960983
0.0005 0.0065 4.72727917757
0.0005 0.0075 4.67342991928
0.0005 0.0085 4.6204401731
0.0005 0.0095 4.57036052241
0.0005 0.0105 4.52290735182
0.0005 0.0115 4.47742989154
0.0005 0.0125 4.43343886446
0.0005 0.0135 4.39053066353
0.0005 0.0145 4.34838608388
0.0005 0.0155 4.30684375649
0.0005 0.0165 4.26583553864
0.0005 0.0175 4.22529772149
0.0005 0.0185 4.18521302467
0.0005 0.0195 4.14563602259
0.0005 0.0205 4.10660435389
0.0005 0.0215 4.06809890212
0.0005 0.0225 4.03012417406
0.0005 0.0235 3.99270981764
0.0005 0.0245 3.95587134516
0.0005 0.0255 3.91965667878
0.0005 0.0265 3.88416382629
0.0005 0.0275 3.8495184754
0.0005 0.0285 3.8159766669
0.0005 0.0295 3.78393805345
0.0005 0.0305 3.75446566479
0.0005 0.0315 3.7328624018
0.0015 -0.0315 4.44077069428
0.0015 -0.0305 4.45664623968
0.0015 -0.0295 4.47970897948
0.0015 -0.0285 4.50482351625
0.0015 -0.0275 4.53055110619
0.0015 -0.0265 4.55652665849
0.0015 -0.0255 4.58261855149
0.0015 -0.0245 4.60878263985
0.0015 -0.0235 4.63505246648
0.0015 -0.0225 4.66156581998
0.0015 -0.0215 4.68860479187
0.0015 -0.0205 4.71660926087
0.0015 -0.0195 4.74616833339
0.0015 -0.0185 4.77784098971
0.0015 -0.0175 4.81221664142
0.0015 -0.0165 4.84360432821
0.0015 -0.0155 4.86568082245
0.0015 -0.0145 4.88005881604
0.0015 -0.0135 4.8902515318
0.0015 -0.0125 4.90019439468
0.0015 -0.0115 4.9127406905
0.0015 -0.0105 4.92810258081
0.0015 -0.0095 4.94570471276
0.0015 -0.0085 4.96162210963
0.0015 -0.0075 4.96994638158
0.0015 -0.0065 4.96929270754
0.0015 -0.0055 4.96270912441
0.0015 -0.0045 4.95371145633
0.0015 -0.0035 4.9438496169
0.0015 -0.0025 4.93250340488
0.0015 -0.0015 4.91688160331
0.0015 -0.0005 4.89577785268
0.0015 0.0005 4.88228582827
0.0015 0.0015 4.87653446145
0.0015 0.0025 4.8654864112
0.0015 0.0035 4.84599904854
0.0015 0.0045 4.81209906057
0.0015 0.0055 4.76331694092
0.0015 0.0065 4.70634059914
0.0015 0.0075 4.64844809519
0.0015 0.0085 4.59470377131
0.0015 0.0095 4.54600338845
0.0015 0.0105 4.50109308808
0.0015 0.0115 4.45846638658
0.0015 0.0125 4.41700181553
0.0015 0.0135 4.37601579678
0.0015 0.0145 4.33519068542
0.0015 0.0155 4.29446887443
0.0015 0.0165 4.25392077734
0.0015 0.0175 4.21365233278
0.0015 0.0185 4.17376757611
0.0015 0.0195 4.13434121836
0.0015 0.0205 4.09539272275
0.0015 0.0215 4.0569008726
0.0015 0.0225 4.01883458571
0.0015 0.0235 3.98116275255
0.0015 0.0245 3.94386524147
0.0015 0.0255 3.90694230742
0.0015 0.0265 3.8704136951
0.0015 0.0275 3.83433618877
0.0015 0.0285 3.79884294357
0.0015 0.0295 3.76434556437
0.0015 0.0305 3.73275713958
0.0015 0.0315 3.71112568979
0.0025 -0.0315 4.41898076732
0.0025 -0.0305 4.43339269127
0.0025 -0.0295 4.45650682302
0.0025 -0.0285 4.48299637408
0.0025 -0.0275 4.51023198173
0.0025 -0.0265 4.53724509634
0.0025 -0.0255 4.56368324801
0.0025 -0.0245 4.58939149717
0.0025 -0.0235 4.61430469158
0.0025 -0.0225 4.63839948033
0.0025 -0.0215 4.66168322173
0.0025 -0.0205 4.68435205072
0.0025 -0.0195 4.70706821291
0.0025 -0.0185 4.73128405556
0.0025 -0.0175 4.75758370554
0.0025 -0.0165 4.78324389282
0.0025 -0.0155 4.80545158852
0.0025 -0.0145 4.82524932646
0.0025 -0.0135 4.84257428535
0.0025 -0.0125 4.85694716198
0.0025 -0.0115 4.87166806488
0.0025 -0.0105 4.88933553991
0.0025 -0.0095 4.90972369541
0.0025 -0.0085 4.92987171914
0.0025 -0.0075 4.94416278361
0.0025 -0.0065 4.94847318607
0.0025 -0.0055 4.94439157834
0.0025 -0.0045 4.93638253098
0.0025 -0.0035 4.92687825862
0.0025 -0.0025 4.91581901904
0.0025 -0.0015 4.90297149506
0.0025 -0.0005 4.89007862779
0.0025 0.0005 4.88081876043
0.0025 0.0015 4.87141609597
0.0025 0.0025 4.85399884334
0.0025 0.0035 4.82564454382
0.0025 0.0045 4.78117086823
0.0025 0.0055 4.72170573314
0.0025 0.0065 4.65765833062
0.0025 0.0075 4.59767497309
0.0025 0.0085 4.54576610478
0.0025 0.0095 4.50119426313
0.0025 0.0105 4.46133479511
0.0025 0.0115 4.42362168783
0.0025 0.0125 4.38625820019
0.0025 0.0135 4.34831649045
0.0025 0.0145 4.30955928761
0.0025 0.0155 4.27016180131
0.0025 0.0165 4.23046442023
0.0025 0.0175 4.19080020931
0.0025 0.0185 4.15139833316
0.0025 0.0195 4.11235859765
0.0025 0.0205 4.07367892709
0.0025 0.0215 4.03529513861
0.0025 0.0225 3.99711248408
0.0025 0.0235 3.95903661956
0.0025 0.0245 3.92099167141
0.0025 0.0255 3.88292306296
0.0025 0.0265 3.84480894857
0.0025 0.0275 3.80669944933
0.0025 0.0285 3.76887355832
0.0025 0.0295 3.73245262876
0.0025 0.0305 3.70088915102
0.0025 0.0315 3.68136867084
0.0035 -0.0315 4.39518472844
0.0035 -0.0305 4.40784440383
0.0035 -0.0295 4.42954022717
0.0035 -0.0285 4.45590915815
0.0035 -0.0275 4.48381291225
0.0035 -0.0265 4.51150168822
0.0035 -0.0255 4.53811166182
0.0035 -0.0245 4.56319747335
0.0035 -0.0235 4.58650181288
0.0035 -0.0225 4.60788486223
0.0035 -0.0215 4.62732421654
0.0035 -0.0205 4.64505855371
0.0035 -0.0195 4.66226671743
0.0035 -0.0185 4.68081887648
0.0035 -0.0175 4.7020007629
0.0035 -0.0165 4.725052532
0.0035 -0.0155 4.74900391209
0.0035 -0.0145 4.77361274425
0.0035 -0.0135 4.79540900279
0.0035 -0.0125 4.81271279268
0.0035 -0.0115 4.82937377444
0.0035 -0.0105 4.84949605626
0.0035 -0.0095 4.87324676449
0.0035 -0.0085 4.89746872715
0.0035 -0.0075 4.91716489908
0.0035 -0.0065 4.92697468798
0.0035 -0.0055 4.92636989298
0.0035 -0.0045 4.91930984494
0.0035 -0.0035 4.90922949693
0.0035 -0.0025 4.89716062196
0.0035 -0.0015 4.88341927701
0.0035 -0.0005 4.86929987303
0.0035 0.0005 4.85706064816
0.0035 0.0015 4.84268672212
0.0035 0.0025 4.81640188819
0.0035 0.0035 4.77339490455
0.0035 0.0045 4.71387330864
0.0035 0.0055 4.64560325886
0.0035 0.0065 4.58061734768
0.0035 0.0075 4.52526219652
0.0035 0.0085 4.48028457758
0.0035 0.0095 4.44304138924
0.0035 0.0105 4.40993566515
0.0035 0.0115 4.37786271079
0.0035 0.0125 4.34481006189
0.0035 0.0135 4.3099434704
0.0035 0.0145 4.27331139161
0.0035 0.0155 4.2354240023
0.0035 0.0165 4.19689590547
0.0035 0.0175 4.15822140655
0.0035 0.0185 4.1196840337
0.0035 0.0195 4.08136761166
0.0035 0.0205 4.04321621186
0.0035 0.0215 4.00509844658
0.0035 0.0225 3.96686044343
0.0035 0.0235 3.92836292792
0.0035 0.0245 3.88950214612
0.0035 0.0255 3.85022822133
0.0035 0.0265 3.81058554128
0.0035 0.0275 3.77083383156
0.0035 0.0285 3.73179086788
0.0035 0.0295 3.69550974283
0.0035 0.0305 3.66602124071
0.0035 0.0315 3.64904489376
0.0045 -0.0315 4.37025072663
0.0045 -0.0305 4.38141526345
0.0045 -0.0295 4.40126740559
0.0045 -0.0285 4.42640012133
0.0045 -0.0275 4.45386196789
0.0045 -0.0265 4.48150329764
0.0045 -0.0255 4.50793101217
0.0045 -0.0245 4.5322854988
0.0045 -0.0235 4.55404709999
0.0045 -0.0225 4.57299559878
0.0045 -0.0215 4.58935522926
0.0045 -0.0205 4.60398473211
0.0045 -0.0195 4.6190172025
0.0045 -0.0185 4.63596331131
0.0045 -0.0175 4.655095522
0.0045 -0.0165 4.67599436484
0.0045 -0.0155 4.6994703994
0.0045 -0.0145 4.72513150349
0.0045 -0.0135 4.74831651341
0.0045 -0.0125 4.76800944305
0.0045 -0.0115 4.78735253733
0.0045 -0.0105 4.80960459525
0.0045 -0.0095 4.8356278331
0.0045 -0.0085 4.86300747468
0.0045 -0.0075 4.88704781856
0.0045 -0.0065 4.90211246661
0.0045 -0.0055 4.90582758414
0.0045 -0.0045 4.90017825244
0.0045 -0.0035 4.88888667027
0.0045 -0.0025 4.87416478911
0.0045 -0.0015 4.85623952078
0.0045 -0.0005 4.83471683447
0.0045 0.0005 4.81033777023
0.0045 0.0015 4.78177851932
0.0045 0.0025 4.74069462306
0.0045 0.0035 4.68066825518
0.0045 0.0045 4.61008437735
0.0045 0.0055 4.54237657904
0.0045 0.0065 4.48524164439
0.0045 0.0075 4.44093629705
0.0045 0.0085 4.40677594923
0.0045 0.0095 4.37862578108
0.0045 0.0105 4.35249805129
0.0045 0.0115 4.32535652564
0.0045 0.0125 4.29562880706
0.0045 0.0135 4.2630535367
0.0045 0.0145 4.22817847105
0.0045 0.0155 4.19184299328
0.0045 0.0165 4.15480710224
0.0045 0.0175 4.11757201373
0.0045 0.0185 4.08035458763
0.0045 0.0195 4.04314834714
0.0045 0.0205 4.0058122476
0.0045 0.0215 3.96815250517
0.0045 0.0225 3.92998280228
0.0045 0.0235 3.8911626332
0.0045 0.0245 3.85162595382
0.0045 0.0255 3.81142084891
0.0045 0.0265 3.77079799753
0.0045 0.0275 3.7304111406
0.0045 0.0285 3.69165822902
0.0045 0.0295 3.6570213814
0.0045 0.0305 3.63015925466
0.0045 0.0315 3.61532591548
0.0055 -0.0315 4.34447992621
0.0055 -0.0305 4.35442037271
0.0055 -0.0295 4.37246288618
0.0055 -0.0285 4.39587648196
0.0055 -0.0275 4.42209206103
0.0055 -0.0265 4.44895822185
0.0055 -0.0255 4.47480038723
0.0055 -0.0245 4.49840271709
0.0055 -0.0235 4.51897639338
0.0055 -0.0225 4.5362615412
0.0055 -0.0215 4.55076837066
0.0055 -0.0205 4.56434997496
0.0055 -0.0195 4.57936089807
0.0055 -0.0185 4.59636207227
0.0055 -0.0175 4.61447610934
0.0055 -0.0165 4.6332649647
0.0055 -0.0155 4.65457694746
0.0055 -0.0145 4.67838382349
0.0055 -0.0135 4.70121390605
0.0055 -0.0125 4.72268775968
0.0055 -0.0115 4.74484998632
0.0055 -0.0105 4.76915895212
0.0055 -0.0095 4.7964641015
0.0055 -0.0085 4.82556187912
0.0055 -0.0075 4.85211974846
0.0055 -0.0065 4.87090232161
0.0055 -0.0055 4.87866674578
0.0055 -0.0045 4.87523800719
0.0055 -0.0035 4.86307495998
0.0055 -0.0025 4.84455914004
0.0055 -0.0015 4.8194827033
0.0055 -0.0005 4.7859990623
0.0055 0.0005 4.74384906359
0.0055 0.0015 4.69361401791
0.0055 0.0025 4.63292031032
0.0055 0.0035 4.56083606739
0.0055 0.0045 4.49028606998
0.0055 0.0055 4.43295024381
0.0055 0.0065 4.38924696829
0.0055 0.0075 4.35763287258
0.0055 0.0085 4.3340979483
0.0055 0.0095 4.31398908788
0.0055 0.0105 4.29301014449
0.0055 0.0115 4.26870543884
0.0055 0.0125 4.24051925016
0.0055 0.0135 4.20910600336
0.0055 0.0145 4.17555854306
0.0055 0.0155 4.14087891761
0.0055 0.0165 4.10573929003
0.0055 0.0175 4.07044680725
0.0055 0.0185 4.03501920606
0.0055 0.0195 3.99929667993
0.0055 0.0205 3.96304577066
0.0055 0.0215 3.92603816219
0.0055 0.0225 3.88810316547
0.0055 0.0235 3.84916256139
0.0055 0.0245 3.80926512761
0.0055 0.0255 3.76864747696
0.0055 0.0265 3.72785305784
0.0055 0.0275 3.68791596594
0.0055 0.0285 3.65053669469
0.0055 0.0295 3.61812573739
0.0055 0.0305 3.59372872838
0.0055 0.0315 3.58057606127
0.0065 -0.0315 4.31805330486
0.0065 -0.0305 4.32693934798
0.0065 -0.0295 4.343288092
0.0065 -0.0285 4.36484941481
0.0065 -0.0275 4.38941988105
0.0065 -0.0265 4.41502676288
0.0065 -0.0255 4.43997289885
0.0065 -0.0245 4.46289485545
0.0065 -0.0235 4.48282191414
0.0065 -0.0225 4.49944048937
0.0065 -0.0215 4.513522289
0.0065 -0.0205 4.52741036071
0.0065 -0.0195 4.54266157242
0.0065 -0.0185 4.55920992098
0.0065 -0.0175 4.57610497328
0.0065 -0.0165 4.59291614356
0.0065 -0.0155 4.6114191342
0.0065 -0.0145 4.63220557408
0.0065 -0.0135 4.65424660562
0.0065 -0.0125 4.67697166747
0.0065 -0.0115 4.70098627324
0.0065 -0.0105 4.72691420957
0.0065 -0.0095 4.75508888676
0.0065 -0.0085 4.7845037146
0.0065 -0.0075 4.81138477568
0.0065 -0.0065 4.83140185484
0.0065 -0.0055 4.84123801187
0.0065 -0.0045 4.83941946814
0.0065 -0.0035 4.82641859575
0.0065 -0.0025 4.80322991504
0.0065 -0.0015 4.76817726106
0.0065 -0.0005 4.71991892792
0.0065 0.0005 4.66085037773
0.0065 0.0015 4.59322032925
0.0065 0.0025 4.52021016171
0.0065 0.0035 4.44884221488
0.0065 0.0045 4.38801363976
0.0065 0.0055 4.341787521
0.0065 0.0065 4.30897613305
0.0065 0.0075 4.28645741136
0.0065 0.0085 4.26953261522
0.0065 0.0095 4.2532654209
0.0065 0.0105 4.2335660367
0.0065 0.0115 4.20901359242
0.0065 0.0125 4.1803529102
0.0065 0.0135 4.14915533935
0.0065 0.0145 4.11679161111
0.0065 0.0155 4.08408659237
0.0065 0.0165 4.05134045156
0.0065 0.0175 4.01848281252
0.0065 0.0185 3.98524399914
0.0065 0.0195 3.95129223816
0.0065 0.0205 3.91632681251
0.0065 0.0215 3.88013489323
0.0065 0.0225 3.84262341985
0.0065 0.0235 3.8038414139
0.0065 0.0245 3.76401372724
0.0065 0.0255 3.7236070455
0.0065 0.0265 3.68343099291
0.0065 0.0275 3.64473638641
0.0065 0.0285 3.6092455809
0.0065 0.0295 3.57910129759
0.0065 0.0305 3.55682439121
0.0065 0.0315 3.5449799174
0.0075 -0.0315 4.29108522468
0.0075 -0.0305 4.29900133238
0.0075 -0.0295 4.31373347018
0.0075 -0.0285 4.33342646319
0.0075 -0.0275 4.35621165495
0.0075 -0.0265 4.3803510257
0.0075 -0.0255 4.40426002874
0.0075 -0.0245 4.42660439163
0.0075 -0.0235 4.44640750209
0.0075 -0.0225 4.46325413401
0.0075 -0.0215 4.4780280255
0.0075 -0.0205 4.49260530682
0.0075 -0.0195 4.50784517051
0.0075 -0.0185 4.52343707
0.0075 -0.0175 4.53856396695
0.0075 -0.0165 4.55347915597
0.0075 -0.0155 4.56959262678
0.0075 -0.0145 4.58747962183
0.0075 -0.0135 4.60786559125
0.0075 -0.0125 4.63095887979
0.0075 -0.0115 4.65600148282
0.0075 -0.0105 4.68273707246
0.0075 -0.0095 4.71100437616
0.0075 -0.0085 4.73921961025
0.0075 -0.0075 4.76423768705
0.0075 -0.0065 4.78266935566
0.0075 -0.0055 4.79153870984
0.0075 -0.0045 4.78859399855
0.0075 -0.0035 4.7722257407
0.0075 -0.0025 4.74174283428
0.0075 -0.0015 4.69557112694
0.0075 -0.0005 4.63430096863
0.0075 0.0005 4.56485354708
0.0075 0.0015 4.49378584317
0.0075 0.0025 4.42506479265
0.0075 0.0035 4.36524514375
0.0075 0.0045 4.31706051867
0.0075 0.0055 4.27933220582
0.0075 0.0065 4.25214695403
0.0075 0.0075 4.23260701592
0.0075 0.0085 4.21581020787
0.0075 0.0095 4.1973120478
0.0075 0.0105 4.17410754725
0.0075 0.0115 4.14613995108
0.0075 0.0125 4.11551811207
0.0075 0.0135 4.08425441652
0.0075 0.0145 4.0534244749
0.0075 0.0155 4.02324590878
0.0075 0.0165 3.99340445795
0.0075 0.0175 3.96335701181
0.0075 0.0185 3.93253997572
0.0075 0.0195 3.90048806357
0.0075 0.0205 3.86689311398
0.0075 0.0215 3.83162396808
0.0075 0.0225 3.79472531736
0.0075 0.0235 3.75641807337
0.0075 0.0245 3.71712165676
0.0075 0.0255 3.67750323341
0.0075 0.0265 3.63853351425
0.0075 0.0275 3.60151180262
0.0075 0.0285 3.56804163606
0.0075 0.0295 3.53998794771
0.0075 0.0305 3.51948189366
0.0075 0.0315 3.50866089095
0.0085 -0.0315 4.26365040758
0.0085 -0.0305 4.27062523173
0.0085 -0.0295 4.28376317096
0.0085 -0.0285 4.30157807287
0.0085 -0.0275 4.32253428149
0.0085 -0.0265 4.34516196145
0.0085 -0.0255 4.36804035909
0.0085 -0.0245 4.38989875601
0.0085 -0.0235 4.40981109323
0.0085 -0.0225 4.42739179892
0.0085 -0.0215 4.44352761598
0.0085 -0.0205 4.45883089902
0.0085 -0.0195 4.47363822819
0.0085 -0.0185 4.48808677148
0.0085 -0.0175 4.50162614304
0.0085 -0.0165 4.5151468359
0.0085 -0.0155 4.52983399464
0.0085 -0.0145 4.54594144803
0.0085 -0.0135 4.56419889845
0.0085 -0.0125 4.58608322738
0.0085 -0.0115 4.61084256134
0.0085 -0.0105 4.63708642607
0.0085 -0.0095 4.66395647309
0.0085 -0.0085 4.68922752748
0.0085 -0.0075 4.71030156262
0.0085 -0.0065 4.72451347841
0.0085 -0.0055 4.72920589592
0.0085 -0.0045 4.72160794106
0.0085 -0.0035 4.69889754152
0.0085 -0.0025 4.65942395479
0.0085 -0.0015 4.60351244766
0.0085 -0.0005 4.5351407502
0.0085 0.0005 4.46509526507
0.0085 0.0015 4.40261192783
0.0085 0.0025 4.34806396325
0.0085 0.0035 4.30215825695
0.0085 0.0045 4.26585735915
0.0085 0.0055 4.23660632101
0.0085 0.0065 4.21276808194
0.0085 0.0075 4.19196382715
0.0085 0.0085 4.16967175474
0.0085 0.0095 4.14328365766
0.0085 0.0105 4.1125918078
0.0085 0.0115 4.07933958272
0.0085 0.0125 4.04656311028
0.0085 0.0135 4.01587572504
0.0085 0.0145 3.98739016618
0.0085 0.0155 3.96037491059
0.0085 0.0165 3.93380710561
0.0085 0.0175 3.90670530381
0.0085 0.0185 3.87829138002
0.0085 0.0195 3.84805841081
0.0085 0.0205 3.81577881758
0.0085 0.0215 3.78147129079
0.0085 0.0225 3.74535650619
0.0085 0.0235 3.70783181697
0.0085 0.0245 3.66947744733
0.0085 0.0255 3.63108299976
0.0085 0.0265 3.59366852408
0.0085 0.0275 3.55848066105
0.0085 0.0285 3.52696850309
0.0085 0.0295 3.50076786242
0.0085 0.0305 3.48174024895
0.0085 0.0315 3.47175260212
0.0095 -0.0315 4.23580091678
0.0095 -0.0305 4.24184423757
0.0095 -0.0295 4.25336949653
0.0095 -0.0285 4.26926023561
0.0095 -0.0275 4.28833109949
0.0095 -0.0265 4.30941451822
0.0095 -0.0255 4.33129851498
0.0095 -0.0245 4.35274475617
0.0095 -0.0235 4.37274106484
0.0095 -0.0225 4.39095334672
0.0095 -0.0215 4.40821283506
0.0095 -0.0205 4.42436122149
0.0095 -0.0195 4.43900111537
0.0095 -0.0185 4.45246540924
0.0095 -0.0175 4.46511742333
0.0095 -0.0165 4.47800858784
0.0095 -0.0155 4.4919121395
0.0095 -0.0145 4.50736458839
0.0095 -0.0135 4.52456203713
0.0095 -0.0125 4.54443243904
0.0095 -0.0115 4.56685204646
0.0095 -0.0105 4.59046803699
0.0095 -0.0095 4.61371866531
0.0095 -0.0085 4.63407815146
0.0095 -0.0075 4.64928648071
0.0095 -0.0065 4.65717827777
0.0095 -0.0055 4.65531293313
0.0095 -0.0045 4.64087336399
0.0095 -0.0035 4.61123136798
0.0095 -0.0025 4.56522076226
0.0095 -0.0015 4.50532092123
0.0095 -0.0005 4.43804973693
0.0095 0.0005 4.37548240012
0.0095 0.0015 4.32502024801
0.0095 0.0025 4.28301747464
0.0095 0.0035 4.24809597464
0.0095 0.0045 4.22126258485
0.0095 0.0055 4.19877159629
0.0095 0.0065 4.1766557585
0.0095 0.0075 4.15269942292
0.0095 0.0085 4.12247072875
0.0095 0.0095 4.08555363305
0.0095 0.0105 4.0462189043
0.0095 0.0115 4.0083371191
0.0095 0.0125 3.97487896241
0.0095 0.0135 3.94619246467
0.0095 0.0145 3.92101748117
0.0095 0.0155 3.89761491507
0.0095 0.0165 3.87436514618
0.0095 0.0175 3.84999394469
0.0095 0.0185 3.82365490015
0.0095 0.0195 3.79493453149
0.0095 0.0205 3.76378422839
0.0095 0.0215 3.73041827394
0.0095 0.0225 3.69522929624
0.0095 0.0235 3.65874858747
0.0095 0.0245 3.62164625371
0.0095 0.0255 3.5847477765
0.0095 0.0265 3.54904457025
0.0095 0.0275 3.51569033559
0.0095 0.0285 3.48599145005
0.0095 0.0295 3.46141317221
0.0095 0.0305 3.44363566661
0.0095 0.0315 3.43433974953
0.0105 -0.0315 4.20762717423
0.0105 -0.0305 4.2127296729
0.0105 -0.0295 4.22259658745
0.0105 -0.0285 4.23647518719
0.0105 -0.0275 4.25354275829
0.0105 -0.0265 4.27295260501
0.0105 -0.0255 4.29374487776
0.0105 -0.0245 4.31476929626
0.0105 -0.0235 4.33480084461
0.0105 -0.0225 4.35339045196
0.0105 -0.0215 4.37097487353
0.0105 -0.0205 4.3876137162
0.0105 -0.0195 4.4027348708
0.0105 -0.0185 4.41619865684
0.0105 -0.0175 4.42902898774
0.0105 -0.0165 4.44197738062
0.0105 -0.0155 4.45535010608
0.0105 -0.0145 4.4701569259
0.0105 -0.0135 4.4868303818
0.0105 -0.0125 4.50482941937
0.0105 -0.0115 4.52363359559
0.0105 -0.0105 4.54251418799
0.0105 -0.0095 4.55975352241
0.0105 -0.0085 4.57318410027
0.0105 -0.0075 4.58095841634
0.0105 -0.0065 4.58129305927
0.0105 -0.0055 4.57211977045
0.0105 -0.0045 4.55118346492
0.0105 -0.0035 4.51676531017
0.0105 -0.0025 4.46929381541
0.0105 -0.0015 4.41320736449
0.0105 -0.0005 4.35485987183
0.0105 0.0005 4.30281029574
0.0105 0.0015 4.26101204076
0.0105 0.0025 4.22621081794
0.0105 0.0035 4.19756387324
0.0105 0.0045 4.17529251951
0.0105 0.0055 4.15555635413
0.0105 0.0065 4.13288496422
0.0105 0.0075 4.10381551833
0.0105 0.0085 4.06485916934
0.0105 0.0095 4.01886858388
0.0105 0.0105 3.97383950144
0.0105 0.0115 3.93467479401
0.0105 0.0125 3.90319001291
0.0105 0.0135 3.87807937078
0.0105 0.0145 3.85684009806
0.0105 0.0155 3.83702295602
0.0105 0.0165 3.81665267741
0.0105 0.0175 3.79436851547
0.0105 0.0185 3.76945923028
0.0105 0.0195 3.74176012378
0.0105 0.0205 3.71147241734
0.0105 0.0215 3.67899825078
0.0105 0.0225 3.64484547728
0.0105 0.0235 3.609601174
0.0105 0.0245 3.57394457413
0.0105 0.0255 3.53866965899
0.0105 0.0265 3.50470004528
0.0105 0.0275 3.47309306684
0.0105 0.0285 3.44504108317
0.0105 0.0295 3.42188733616
0.0105 0.0305 3.4051821153
0.0105 0.0315 3.39646900907
0.0115 -0.0315 4.1792523308
0.0115 -0.0305 4.18339385071
0.0115 -0.0295 4.19155385299
0.0115 -0.0285 4.20331092915
0.0115 -0.0275 4.2181946378
0.0115 -0.0265 4.2356829393
0.0115 -0.0255 4.25508552932
0.0115 -0.0245 4.27543529083
0.0115 -0.0235 4.29551813442
0.0115 -0.0225 4.31492556681
0.0115 -0.0215 4.3330481789
0.0115 -0.0205 4.34967296219
0.0115 -0.0195 4.36504415626
0.0115 -0.0185 4.37933764775
0.0115 -0.0175 4.39332446567
0.0115 -0.0165 4.40687530405
0.0115 -0.0155 4.42018517824
0.0115 -0.0145 4.43420555878
0.0115 -0.0135 4.44964818301
0.0115 -0.0125 4.46526298192
0.0115 -0.0115 4.4794689861
0.0115 -0.0105 4.49171483772
0.0115 -0.0095 4.50087558273
0.0115 -0.0085 4.5057531124
0.0115 -0.0075 4.50517773934
0.0115 -0.0065 4.49786906641
0.0115 -0.0055 4.48236389428
0.0115 -0.0045 4.45730168321
0.0115 -0.0035 4.42220601937
0.0115 -0.0025 4.37869850908
0.0115 -0.0015 4.3311047923
0.0115 -0.0005 4.28432990469
0.0115 0.0005 4.2419576242
0.0115 0.0015 4.20567854889
0.0115 0.0025 4.17499901566
0.0115 0.0035 4.14867769606
0.0115 0.0045 4.12577022604
0.0115 0.0055 4.10320507688
0.0115 0.0065 4.07623627619
0.0115 0.0075 4.04043094867
0.0115 0.0085 3.993944947
0.0115 0.0095 3.94375854193
0.0115 0.0105 3.89879203174
0.0115 0.0115 3.86266537054
0.0115 0.0125 3.8355203785
0.0115 0.0135 3.81475328873
0.0115 0.0145 3.79727508805
0.0115 0.0155 3.78031801287
0.0115 0.0165 3.76178606547
0.0115 0.0175 3.74050753394
0.0115 0.0185 3.71614577108
0.0115 0.0195 3.68889943691
0.0115 0.0205 3.65920833335
0.0115 0.0215 3.62758113615
0.0115 0.0225 3.59454180787
0.0115 0.0235 3.56064458647
0.0115 0.0245 3.52651227814
0.0115 0.0255 3.49287051041
0.0115 0.0265 3.46056755315
0.0115 0.0275 3.43058089301
0.0115 0.0285 3.40401923542
0.0115 0.0295 3.38213571308
0.0115 0.0305 3.36637728126
0.0115 0.0315 3.3581743242
0.0125 -0.0315 4.15075998462
0.0125 -0.0305 4.15396246864
0.0125 -0.0295 4.16041783852
0.0125 -0.0285 4.16997519386
0.0125 -0.0275 4.18247085588
0.0125 -0.0265 4.19771679929
0.0125 -0.0255 4.21530709652
0.0125 -0.0245 4.23452569949
0.0125 -0.0235 4.25451199742
0.0125 -0.0225 4.27489728157
0.0125 -0.0215 4.29421143286
0.0125 -0.0205 4.3112764755
0.0125 -0.0195 4.32687995521
0.0125 -0.0185 4.34231761087
0.0125 -0.0175 4.3576977711
0.0125 -0.0165 4.37204951408
0.0125 -0.0155 4.38589515978
0.0125 -0.0145 4.3997201806
0.0125 -0.0135 4.41306240449
0.0125 -0.0125 4.42429882159
0.0125 -0.0115 4.43191881217
0.0125 -0.0105 4.43563918878
0.0125 -0.0095 4.43527745672
0.0125 -0.0085 4.43079861365
0.0125 -0.0075 4.42192657194
0.0125 -0.0065 4.40803914178
0.0125 -0.0055 4.38836625665
0.0125 -0.0045 4.36241655164
0.0125 -0.0035 4.33057352772
0.0125 -0.0025 4.29455987828
0.0125 -0.0015 4.25719940501
0.0125 -0.0005 4.22124143718
0.0125 0.0005 4.18714403947
0.0125 0.0015 4.1555737861
0.0125 0.0025 4.12724166433
0.0125 0.0035 4.10109893241
0.0125 0.0045 4.07513235807
0.0125 0.0055 4.04546093138
0.0125 0.0065 4.00969753141
0.0125 0.0075 3.9663933396
0.0125 0.0085 3.91636746882
0.0125 0.0095 3.86828262416
0.0125 0.0105 3.8289120035
0.0125 0.0115 3.79861394132
0.0125 0.0125 3.77623404164
0.0125 0.0135 3.75912309158
0.0125 0.0145 3.74421360129
0.0125 0.0155 3.72853642198
0.0125 0.0165 3.71018985112
0.0125 0.0175 3.6885374368
0.0125 0.0185 3.66379925255
0.0125 0.0195 3.63651516727
0.0125 0.0205 3.60723420365
0.0125 0.0215 3.57643100285
0.0125 0.0225 3.54453577069
0.0125 0.0235 3.51200001443
0.0125 0.0245 3.47935679031
0.0125 0.0255 3.44725949766
0.0125 0.0265 3.41649737189
0.0125 0.0275 3.38799343701
0.0125 0.0285 3.36279643862
0.0125 0.0295 3.34208482551
0.0125 0.0305 3.32720927858
0.0125 0.0315 3.31948755834
0.0135 -0.0315 4.12220022423
0.0135 -0.0305 4.12455472571
0.0135 -0.0295 4.12940784902
0.0135 -0.0285 4.13679951246
0.0135 -0.0275 4.14678753143
0.0135 -0.0265 4.1594801926
0.0135 -0.0255 4.17485585214
0.0135 -0.0245 4.19251719851
0.0135 -0.0235 4.21212165823
0.0135 -0.0225 4.23288566714
0.0135 -0.0215 4.25318085369
0.0135 -0.0205 4.27151980812
0.0135 -0.0195 4.28831846603
0.0135 -0.0185 4.30516200282
0.0135 -0.0175 4.32160351037
0.0135 -0.0165 4.33679322232
0.0135 -0.0155 4.35127461325
0.0135 -0.0145 4.36473426114
0.0135 -0.0135 4.37482371073
0.0135 -0.0125 4.37935122655
0.0135 -0.0115 4.37798542088
0.0135 -0.0105 4.37144505095
0.0135 -0.0095 4.36085969464
0.0135 -0.0085 4.34728431908
0.0135 -0.0075 4.33124487255
0.0135 -0.0065 4.3127370793
0.0135 -0.0055 4.2915551102
0.0135 -0.0045 4.26771346547
0.0135 -0.0035 4.24174547947
0.0135 -0.0025 4.21468210104
0.0135 -0.0015 4.18767669674
0.0135 -0.0005 4.16137585025
0.0135 0.0005 4.13507118482
0.0135 0.0015 4.10800757402
0.0135 0.0025 4.08101803559
0.0135 0.0035 4.05446954266
0.0135 0.0045 4.02546763665
0.0135 0.0055 3.98893324881
0.0135 0.0065 3.9438225165
0.0135 0.0075 3.89498362949
0.0135 0.0085 3.84727511196
0.0135 0.0095 3.80560097741
0.0135 0.0105 3.77255980812
0.0135 0.0115 3.74720787797
0.0135 0.0125 3.72819382572
0.0135 0.0135 3.71293762114
0.0135 0.0145 3.69832761426
0.0135 0.0155 3.68158196378
0.0135 0.0165 3.66144002726
0.0135 0.0175 3.63809390057
0.0135 0.0185 3.61229093717
0.0135 0.0195 3.5846955564
0.0135 0.0205 3.55575115331
0.0135 0.0215 3.52574998586
0.0135 0.0225 3.49494926591
0.0135 0.0235 3.46367075136
0.0135 0.0245 3.43236545427
0.0135 0.0255 3.40164179571
0.0135 0.0265 3.37226227986
0.0135 0.0275 3.34512048976
0.0135 0.0285 3.32121603341
0.0135 0.0295 3.30164908671
0.0135 0.0305 3.28765982482
0.0135 0.0315 3.28043174471
0.0145 -0.0315 4.0936394778
0.0145 -0.0305 4.09528644883
0.0145 -0.0295 4.09875376868
0.0145 -0.0285 4.10418829747
0.0145 -0.0275 4.11178277647
0.0145 -0.0265 4.12182862173
0.0145 -0.0255 4.13470113951
0.0145 -0.0245 4.15065967595
0.0145 -0.0235 4.16990416725
0.0145 -0.0225 4.19087537204
0.0145 -0.0215 4.21147486437
0.0145 -0.0205 4.23086013757
0.0145 -0.0195 4.24949655813
0.0145 -0.0185 4.26773366247
0.0145 -0.0175 4.28463186185
0.0145 -0.0165 4.30052697012
0.0145 -0.0155 4.31533141613
0.0145 -0.0145 4.32676994428
0.0145 -0.0135 4.33114414347
0.0145 -0.0125 4.32645796406
0.0145 -0.0115 4.31397573868
0.0145 -0.0105 4.29617555329
0.0145 -0.0095 4.27567348162
0.0145 -0.0085 4.25434897983
0.0145 -0.0075 4.23319139121
0.0145 -0.0065 4.21253301386
0.0145 -0.0055 4.19241139706
0.0145 -0.0045 4.17287642385
0.0145 -0.0035 4.15408435711
0.0145 -0.0025 4.13614579592
0.0145 -0.0015 4.11882554622
0.0145 -0.0005 4.10134401089
0.0145 0.0005 4.08260432258
0.0145 0.0015 4.06074734343
0.0145 0.0025 4.03562362942
0.0145 0.0035 4.0079002383
0.0145 0.0045 3.97575528803
0.0145 0.0055 3.93553146923
0.0145 0.0065 3.88671674357
0.0145 0.0075 3.83741983296
0.0145 0.0085 3.79534582939
0.0145 0.0095 3.76062342318
0.0145 0.0105 3.7319830717
0.0145 0.0115 3.70931732897
0.0145 0.0125 3.69143146024
0.0145 0.0135 3.67542363831
0.0145 0.0145 3.65823555149
0.0145 0.0155 3.63795106224
0.0145 0.0165 3.61437402033
0.0145 0.0175 3.58857498134
0.0145 0.0185 3.56148889467
0.0145 0.0195 3.53357560913
0.0145 0.0205 3.50496752919
0.0145 0.0215 3.47568482385
0.0145 0.0225 3.44579779787
0.0145 0.0235 3.4155280451
0.0145 0.0245 3.38529542752
0.0145 0.0255 3.35571581992
0.0145 0.0265 3.32756234777
0.0145 0.0275 3.30171273469
0.0145 0.0285 3.27910792975
0.0145 0.0295 3.26074367439
0.0145 0.0305 3.24771188267
0.0145 0.0315 3.24102107098
0.0155 -0.0315 4.06513233029
0.0155 -0.0305 4.0662611104
0.0155 -0.0295 4.06867665125
0.0155 -0.0285 4.07255400095
0.0155 -0.0275 4.07815355951
0.0155 -0.0265 4.08589960704
0.0155 -0.0255 4.09641536361
0.0155 -0.0245 4.11066823485
0.0155 -0.0235 4.12914479401
0.0155 -0.0225 4.15012644737
0.0155 -0.0215 4.1709143442
0.0155 -0.0205 4.19105174744
0.0155 -0.0195 4.21132716516
0.0155 -0.0185 4.23039616049
0.0155 -0.0175 4.24714646856
0.0155 -0.0165 4.26276388765
0.0155 -0.0155 4.27625176108
0.0155 -0.0145 4.28264802354
0.0155 -0.0135 4.27747960181
0.0155 -0.0125 4.26068559776
0.0155 -0.0115 4.23575837442
0.0155 -0.0105 4.20707945335
0.0155 -0.0095 4.17826072808
0.0155 -0.0085 4.15152317373
0.0155 -0.0075 4.1278946211
0.0155 -0.0065 4.10766406774
0.0155 -0.0055 4.09074990747
0.0155 -0.0045 4.076899215
0.0155 -0.0035 4.0656983939
0.0155 -0.0025 4.05644272113
0.0155 -0.0015 4.04799525813
0.0155 -0.0005 4.03883969287
0.0155 0.0005 4.0272350029
0.0155 0.0015 4.01101715189
0.0155 0.0025 3.98852001129
0.0155 0.0035 3.95937370214
0.0155 0.0045 3.92388066763
0.0155 0.0055 3.88219045626
0.0155 0.0065 3.83580454444
0.0155 0.0075 3.7912250627
0.0155 0.0085 3.75498904396
0.0155 0.0095 3.726187106
0.0155 0.0105 3.70169430984
0.0155 0.0115 3.68089912865
0.0155 0.0125 3.66241939432
0.0155 0.0135 3.64289969644
0.0155 0.0145 3.62043359009
0.0155 0.0155 3.59505045377
0.0155 0.0165 3.56758495026
0.0155 0.0175 3.53949976734
0.0155 0.0185 3.51144254308
0.0155 0.0195 3.4833932314
0.0155 0.0205 3.45508608704
0.0155 0.0215 3.42628648419
0.0155 0.0225 3.39694559762
0.0155 0.0235 3.36727650438
0.0155 0.0245 3.33775807924
0.0155 0.0255 3.30907775926
0.0155 0.0265 3.2820441299
0.0155 0.0275 3.25750704719
0.0155 0.0285 3.23631202499
0.0155 0.0295 3.21930122359
0.0155 0.0305 3.20736516491
0.0155 0.0315 3.20129215807
0.0165 -0.0315 4.03666739527
0.0165 -0.0305 4.03754340693
0.0165 -0.0295 4.03936593343
0.0165 -0.0285 4.04224696176
0.0165 -0.0275 4.04648270189
0.0165 -0.0265 4.05259924927
0.0165 -0.0255 4.06158675669
0.0165 -0.0245 4.07450532597
0.0165 -0.0235 4.0914664931
0.0165 -0.0225 4.11127440383
0.0165 -0.0215 4.13173275329
0.0165 -0.0205 4.15261656318
0.0165 -0.0195 4.17397626029
0.0165 -0.0185 4.19325205992
0.0165 -0.0175 4.20961040846
0.0165 -0.0165 4.22337115951
0.0165 -0.0155 4.23142221576
0.0165 -0.0145 4.2273373608
0.0165 -0.0135 4.20800854897