% Model:              Benchmark260518.mph
% Version:            COMSOL 6.2.0.339
% Date:               May 21 2026, 13:15
% Dimension:          2
% Nodes:              4096
% Expressions:        1
% Description:        压力
% Length unit:        m
% x                       y                        p (Pa)
5.0E-4                    -0.0315                  2.9869308811688398
5.0E-4                    -0.0305                  3.007436094986667
5.0E-4                    -0.0295                  3.0356013612682835
5.0E-4                    -0.0285                  3.0665573241826647
5.0E-4                    -0.0275                  3.098933687412725
5.0E-4                    -0.0265                  3.132212749812773
5.0E-4                    -0.0255                  3.1661798092705973
5.0E-4                    -0.0245                  3.2007011393536313
5.0E-4                    -0.0235                  3.2356777679637556
5.0E-4                    -0.0225                  3.27104019817868
5.0E-4                    -0.0215                  3.306732598933091
5.0E-4                    -0.0205                  3.3427193666013526
5.0E-4                    -0.0195                  3.3789833800608298
5.0E-4                    -0.0185                  3.415506796779578
5.0E-4                    -0.0175                  3.4522769191582996
5.0E-4                    -0.0165                  3.489297872117457
5.0E-4                    -0.0155                  3.526580410898486
5.0E-4                    -0.0145                  3.5641279287158723
5.0E-4                    -0.0135                  3.6019402520729034
5.0E-4                    -0.0125                  3.6400101237049056
5.0E-4                    -0.0115                  3.678308483451074
5.0E-4                    -0.0105                  3.716783443172883
5.0E-4                    -0.0095                  3.7553533379280934
5.0E-4                    -0.0085                  3.7938992250102377
5.0E-4                    -0.0075                  3.8322923242709375
5.0E-4                    -0.0065                  3.870405672399662
5.0E-4                    -0.0055                  3.908103691947697
5.0E-4                    -0.0045                  3.945263573696198
5.0E-4                    -0.0035                  3.981786998816932
5.0E-4                    -0.0025                  4.017569096838385
5.0E-4                    -0.0015                  4.052509472478954
5.0E-4                    -5.0E-4                  4.0865222536652634
5.0E-4                    5.0E-4                   4.119479764622562
5.0E-4                    0.0015                   4.151224100556339
5.0E-4                    0.0025                   4.181650804493175
5.0E-4                    0.0035                   4.2105248699327955
5.0E-4                    0.0045                   4.2371875235302365
5.0E-4                    0.0055                   4.260718374723503
5.0E-4                    0.0065                   4.280174205252859
5.0E-4                    0.0075                   4.294614964100461
5.0E-4                    0.0085                   4.303336053238782
5.0E-4                    0.0095                   4.306263505334686
5.0E-4                    0.0105                   4.3048611687829705
5.0E-4                    0.0115                   4.301745098547533
5.0E-4                    0.0125                   4.298468055043302
5.0E-4                    0.0135                   4.29507206118179
5.0E-4                    0.0145                   4.293836315894762
5.0E-4                    0.0155                   4.319297970936934
5.0E-4                    0.0165                   4.4403231643182455
5.0E-4                    0.0175                   4.642274384427283
5.0E-4                    0.0185                   4.809366156815615
5.0E-4                    0.0195                   4.904204504097425
5.0E-4                    0.0205                   4.957485868608317
5.0E-4                    0.0215                   4.985241174909409
5.0E-4                    0.0225                   4.989596171353808
5.0E-4                    0.0235                   4.98175393372551
5.0E-4                    0.0245                   4.976792271117292
5.0E-4                    0.0255                   4.9765136801672005
5.0E-4                    0.0265                   4.977819074898304
5.0E-4                    0.0275                   4.979146868772443
5.0E-4                    0.0285                   4.979996568252906
5.0E-4                    0.0295                   4.980207952624897
5.0E-4                    0.0305                   4.9771308729751675
5.0E-4                    0.0315                   4.970051861288153
0.0015                    -0.0315                  2.966406868897668
0.0015                    -0.0305                  2.9869433978786115
0.0015                    -0.0295                  3.0169714011492856
0.0015                    -0.0285                  3.050100739648318
0.0015                    -0.0275                  3.0844229657990865
0.0015                    -0.0265                  3.1193365501751305
0.0015                    -0.0255                  3.154646040106641
0.0015                    -0.0245                  3.1902814909236157
0.0015                    -0.0235                  3.22620034899914
0.0015                    -0.0225                  3.262367477724113
0.0015                    -0.0215                  3.298753946292296
0.0015                    -0.0205                  3.3353364346950114
0.0015                    -0.0195                  3.372099423166882
0.0015                    -0.0185                  3.40903445449418
0.0015                    -0.0175                  3.4461427751765967
0.0015                    -0.0165                  3.4834416259259373
0.0015                    -0.0155                  3.520965157730526
0.0015                    -0.0145                  3.558759525363891
0.0015                    -0.0135                  3.596877260375513
0.0015                    -0.0125                  3.6353689460737013
0.0015                    -0.0115                  3.6742686321452176
0.0015                    -0.0105                  3.7135753405528247
0.0015                    -0.0095                  3.7532372042020135
0.0015                    -0.0085                  3.793145920924653
0.0015                    -0.0075                  3.833144773834106
0.0015                    -0.0065                  3.873045680266959
0.0015                    -0.0055                  3.9126502267373953
0.0015                    -0.0045                  3.951772997330984
0.0015                    -0.0035                  3.990253667078594
0.0015                    -0.0025                  4.027960921785079
0.0015                    -0.0015                  4.06479401349797
0.0015                    -5.0E-4                  4.100661709864802
0.0015                    5.0E-4                   4.135457077375182
0.0015                    0.0015                   4.1690523138232445
0.0015                    0.0025                   4.20121809584623
0.0015                    0.0035                   4.231414226774339
0.0015                    0.0045                   4.258728751370745
0.0015                    0.0055                   4.282011862760959
0.0015                    0.0065                   4.300018480657258
0.0015                    0.0075                   4.311633795955716
0.0015                    0.0085                   4.316324923792951
0.0015                    0.0095                   4.314853795558004
0.0015                    0.0105                   4.309820281962093
0.0015                    0.0115                   4.304320874070674
0.0015                    0.0125                   4.299575391943019
0.0015                    0.0135                   4.294501151626704
0.0015                    0.0145                   4.292609246033015
0.0015                    0.0155                   4.291893998309399
0.0015                    0.0165                   4.39750937100245
0.0015                    0.0175                   4.5950529045140796
0.0015                    0.0185                   4.732025983417871
0.0015                    0.0195                   4.801403492781773
0.0015                    0.0205                   4.840073101370354
0.0015                    0.0215                   4.870235891794649
0.0015                    0.0225                   4.893834806102706
0.0015                    0.0235                   4.906975154250193
0.0015                    0.0245                   4.912261871737074
0.0015                    0.0255                   4.915933517929031
0.0015                    0.0265                   4.919980257174357
0.0015                    0.0275                   4.923336329511063
0.0015                    0.0285                   4.925139478056513
0.0015                    0.0295                   4.924190229919721
0.0015                    0.0305                   4.92049628327166
0.0015                    0.0315                   4.918362311197305
0.0025                    -0.0315                  2.9381170729528128
0.0025                    -0.0305                  2.9568727116507865
0.0025                    -0.0295                  2.9869676075565113
0.0025                    -0.0285                  3.0219243949989814
0.0025                    -0.0275                  3.058586197454467
0.0025                    -0.0265                  3.095807444475411
0.0025                    -0.0255                  3.1332114832721136
0.0025                    -0.0245                  3.1706919362027026
0.0025                    -0.0235                  3.2082291144572714
0.0025                    -0.0225                  3.24582037247124
0.0025                    -0.0215                  3.283461348490034
0.0025                    -0.0205                  3.3211433580912755
0.0025                    -0.0195                  3.3588562613911686
0.0025                    -0.0185                  3.396597280548187
0.0025                    -0.0175                  3.434379980113195
0.0025                    -0.0165                  3.4722427497838892
0.0025                    -0.0155                  3.5102569538647233
0.0025                    -0.0145                  3.548530225094889
0.0025                    -0.0135                  3.587200769548053
0.0025                    -0.0125                  3.626423207286781
0.0025                    -0.0115                  3.666344771330591
0.0025                    -0.0105                  3.707071385747137
0.0025                    -0.0095                  3.7486326516295625
0.0025                    -0.0085                  3.790956479049902
0.0025                    -0.0075                  3.8338610051054722
0.0025                    -0.0065                  3.8770730735678227
0.0025                    -0.0055                  3.9202700071138015
0.0025                    -0.0045                  3.963126007745199
0.0025                    -0.0035                  4.005352623557719
0.0025                    -0.0025                  4.046723299387052
0.0025                    -0.0015                  4.087068278153166
0.0025                    -5.0E-4                  4.126250756893002
0.0025                    5.0E-4                   4.164127537286381
0.0025                    0.0015                   4.200451403136477
0.0025                    0.0025                   4.2347124469042186
0.0025                    0.0035                   4.266022013175749
0.0025                    0.0045                   4.293103056499886
0.0025                    0.0055                   4.314425504890542
0.0025                    0.0065                   4.328551120039855
0.0025                    0.0075                   4.334697574264595
0.0025                    0.0085                   4.333433438430259
0.0025                    0.0095                   4.326980973914024
0.0025                    0.0105                   4.3184303558968775
0.0025                    0.0115                   4.310233947306262
0.0025                    0.0125                   4.3023616027377924
0.0025                    0.0135                   4.2962293115788865
0.0025                    0.0145                   4.294980577441136
0.0025                    0.0155                   4.328756197807799
0.0025                    0.0165                   4.445717014728778
0.0025                    0.0175                   4.592232015773873
0.0025                    0.0185                   4.686936096466422
0.0025                    0.0195                   4.73488349622157
0.0025                    0.0205                   4.763315559066115
0.0025                    0.0215                   4.788087298354515
0.0025                    0.0225                   4.812760412409591
0.0025                    0.0235                   4.834303629996778
0.0025                    0.0245                   4.848993061272199
0.0025                    0.0255                   4.858425780936344
0.0025                    0.0265                   4.864921757543774
0.0025                    0.0275                   4.8694352010870645
0.0025                    0.0285                   4.871550485383218
0.0025                    0.0295                   4.871326425664246
0.0025                    0.0305                   4.870579927775086
0.0025                    0.0315                   4.870410363351822
0.0035                    -0.0315                  2.906763190810311
0.0035                    -0.0305                  2.9234963760830124
0.0035                    -0.0295                  2.9519862869992184
0.0035                    -0.0285                  2.987115075424735
0.0035                    -0.0275                  3.0252900350572345
0.0035                    -0.0265                  3.064590345255796
0.0035                    -0.0255                  3.104195447202087
0.0035                    -0.0245                  3.143799934264058
0.0035                    -0.0235                  3.1833100441920665
0.0035                    -0.0225                  3.2227074725241867
0.0035                    -0.0215                  3.2619906397445266
0.0035                    -0.0205                  3.301154804474527
0.0035                    -0.0195                  3.3401908756377203
0.0035                    -0.0185                  3.379094538270138
0.0035                    -0.0175                  3.417881412821977
0.0035                    -0.0165                  3.45660389451366
0.0035                    -0.0155                  3.4953667085514266
0.0035                    -0.0145                  3.534337124213183
0.0035                    -0.0135                  3.5737447194537424
0.0035                    -0.0125                  3.6138667116833965
0.0035                    -0.0115                  3.654996832516781
0.0035                    -0.0105                  3.6973979077963417
0.0035                    -0.0095                  3.74124268580127
0.0035                    -0.0085                  3.786555955850143
0.0035                    -0.0075                  3.8331780225357814
0.0035                    -0.0065                  3.880766826617084
0.0035                    -0.0055                  3.9288438516854542
0.0035                    -0.0045                  3.9768722530709644
0.0035                    -0.0035                  4.02433925837535
0.0035                    -0.0025                  4.070809397635772
0.0035                    -0.0015                  4.115932437758248
0.0035                    -5.0E-4                  4.159406592616473
0.0035                    5.0E-4                   4.200892429879768
0.0035                    0.0015                   4.239873790880099
0.0035                    0.0025                   4.27549971998541
0.0035                    0.0035                   4.306499467923611
0.0035                    0.0045                   4.331244726864889
0.0035                    0.0055                   4.348093402282204
0.0035                    0.0065                   4.356078181978949
0.0035                    0.0075                   4.355738670566866
0.0035                    0.0085                   4.349333859943161
0.0035                    0.0095                   4.339762100769155
0.0035                    0.0105                   4.329265865209285
0.0035                    0.0115                   4.318495908377054
0.0035                    0.0125                   4.308953472164262
0.0035                    0.0135                   4.303581399237083
0.0035                    0.0145                   4.312739338032431
0.0035                    0.0155                   4.372743550331266
0.0035                    0.0165                   4.485331007068052
0.0035                    0.0175                   4.591802714431906
0.0035                    0.0185                   4.655447371722961
0.0035                    0.0195                   4.687371182998186
0.0035                    0.0205                   4.709471857883996
0.0035                    0.0215                   4.730051155074628
0.0035                    0.0225                   4.751544526602124
0.0035                    0.0235                   4.772781018939339
0.0035                    0.0245                   4.790490222637635
0.0035                    0.0255                   4.803608470906891
0.0035                    0.0265                   4.812287922537979
0.0035                    0.0275                   4.817601589960999
0.0035                    0.0285                   4.8204255172844075
0.0035                    0.0295                   4.821794297708231
0.0035                    0.0305                   4.822603017334172
0.0035                    0.0315                   4.823038730618501
0.0045                    -0.0315                  2.873581791376669
0.0045                    -0.0305                  2.888626107801209
0.0045                    -0.0295                  2.9151366447650764
0.0045                    -0.0285                  2.9492337375146525
0.0045                    -0.0275                  2.987716361201154
0.0045                    -0.0265                  3.0283233782379813
0.0045                    -0.0255                  3.0697527142484065
0.0045                    -0.0245                  3.111373368826067
0.0045                    -0.0235                  3.152915637089916
0.0045                    -0.0225                  3.194277456719345
0.0045                    -0.0215                  3.2354221356718225
0.0045                    -0.0205                  3.276329769450473
0.0045                    -0.0195                  3.316980834893269
0.0045                    -0.0185                  3.357359494580683
0.0045                    -0.0175                  3.397469919290221
0.0045                    -0.0165                  3.43736018738803
0.0045                    -0.0155                  3.477147380636263
0.0045                    -0.0145                  3.517037358659354
0.0045                    -0.0135                  3.5573328826510253
0.0045                    -0.0125                  3.5984245712119893
0.0045                    -0.0115                  3.6407606577582454
0.0045                    -0.0105                  3.6847925616903865
0.0045                    -0.0095                  3.730896345221475
0.0045                    -0.0085                  3.77927977425412
0.0045                    -0.0075                  3.8298984395007007
0.0045                    -0.0065                  3.8824123636844052
0.0045                    -0.0055                  3.93620823043875
0.0045                    -0.0045                  3.990489318149139
0.0045                    -0.0035                  4.044402911127054
0.0045                    -0.0025                  4.097151202036278
0.0045                    -0.0015                  4.1480329874040045
0.0045                    -5.0E-4                  4.1963953702357655
0.0045                    5.0E-4                   4.2415145997662655
0.0045                    0.0015                   4.2824579529679845
0.0045                    0.0025                   4.31797157010112
0.0045                    0.0035                   4.346474641978971
0.0045                    0.0045                   4.366381451483949
0.0045                    0.0055                   4.376705907256435
0.0045                    0.0065                   4.3779580440058306
0.0045                    0.0075                   4.3725103028636525
0.0045                    0.0085                   4.3633555007508535
0.0045                    0.0095                   4.352581961062405
0.0045                    0.0105                   4.340794770683646
0.0045                    0.0115                   4.329397818640582
0.0045                    0.0125                   4.320470895552565
0.0045                    0.0135                   4.3189832257233745
0.0045                    0.0145                   4.346800786298262
0.0045                    0.0155                   4.420499031212422
0.0045                    0.0165                   4.513662347230394
0.0045                    0.0175                   4.5862555708461485
0.0045                    0.0185                   4.627060044288727
0.0045                    0.0195                   4.650299371616523
0.0045                    0.0205                   4.669554071982227
0.0045                    0.0215                   4.687875140158746
0.0045                    0.0225                   4.7060001201764425
0.0045                    0.0235                   4.723434374293813
0.0045                    0.0245                   4.739266579498041
0.0045                    0.0255                   4.752495406610763
0.0045                    0.0265                   4.76198079774323
0.0045                    0.0275                   4.767994791005105
0.0045                    0.0285                   4.771634041797048
0.0045                    0.0295                   4.7738793766531185
0.0045                    0.0305                   4.775207537348996
0.0045                    0.0315                   4.775814936896451
0.0055                    -0.0315                  2.8391200191170967
0.0055                    -0.0305                  2.852833682720568
0.0055                    -0.0295                  2.877519039903672
0.0055                    -0.0285                  2.9101477563000824
0.0055                    -0.0275                  2.9480609963199145
0.0055                    -0.0265                  2.989095106585345
0.0055                    -0.0255                  3.031708097091085
0.0055                    -0.0245                  3.074959771150588
0.0055                    -0.0235                  3.1183487192278205
0.0055                    -0.0225                  3.1616322002252013
0.0055                    -0.0215                  3.20469770817327
0.0055                    -0.0205                  3.2474865986583277
0.0055                    -0.0195                  3.289955836445525
0.0055                    -0.0185                  3.3320676727765326
0.0055                    -0.0175                  3.373800466201621
0.0055                    -0.0165                  3.415174858839052
0.0055                    -0.0155                  3.4562879076057293
0.0055                    -0.0145                  3.4973457051312984
0.0055                    -0.0135                  3.5386848043396215
0.0055                    -0.0125                  3.5807747308698055
0.0055                    -0.0115                  3.624196362236796
0.0055                    -0.0105                  3.669591721289139
0.0055                    -0.0095                  3.717580210015736
0.0055                    -0.0085                  3.768640329473733
0.0055                    -0.0075                  3.8229715409157614
0.0055                    -0.0065                  3.8803745052336107
0.0055                    -0.0055                  3.940200537802653
0.0055                    -0.0045                  4.001404702398003
0.0055                    -0.0035                  4.062693969766652
0.0055                    -0.0025                  4.122711889127357
0.0055                    -0.0015                  4.180163357892012
0.0055                    -5.0E-4                  4.233804414651421
0.0055                    5.0E-4                   4.28232614590981
0.0055                    0.0015                   4.324237671703414
0.0055                    0.0025                   4.357891200905092
0.0055                    0.0035                   4.381729050383568
0.0055                    0.0045                   4.394891551102993
0.0055                    0.0055                   4.398185786513215
0.0055                    0.0065                   4.394289265333722
0.0055                    0.0075                   4.386348693054286
0.0055                    0.0085                   4.3764021725769915
0.0055                    0.0095                   4.364989811336904
0.0055                    0.0105                   4.353383126164875
0.0055                    0.0115                   4.342951379646413
0.0055                    0.0125                   4.335512472570331
0.0055                    0.0135                   4.3440005875092815
0.0055                    0.0145                   4.3857166164991055
0.0055                    0.0155                   4.453527657538598
0.0055                    0.0165                   4.522307236499222
0.0055                    0.0175                   4.570856866723253
0.0055                    0.0185                   4.598461710931493
0.0055                    0.0195                   4.618573820529172
0.0055                    0.0205                   4.6367146784315185
0.0055                    0.0215                   4.653799695505479
0.0055                    0.0225                   4.669241617534544
0.0055                    0.0235                   4.682689852291265
0.0055                    0.0245                   4.694943379134152
0.0055                    0.0255                   4.705820402934781
0.0055                    0.0265                   4.71438640726793
0.0055                    0.0275                   4.720383662890264
0.0055                    0.0285                   4.72428721909522
0.0055                    0.0295                   4.726712597820672
0.0055                    0.0305                   4.728093061402426
0.0055                    0.0315                   4.728696185021855
0.0065                    -0.0315                  2.803680876782689
0.0065                    -0.0305                  2.816353533335054
0.0065                    -0.0295                  2.8394865236169053
0.0065                    -0.0285                  2.87062336204616
0.0065                    -0.0275                  2.907554037000851
0.0065                    -0.0265                  2.9483612632439584
0.0065                    -0.0255                  2.9915031829272887
0.0065                    -0.0245                  3.035870506774696
0.0065                    -0.0235                  3.080757319844352
0.0065                    -0.0225                  3.1257596559548704
0.0065                    -0.0215                  3.1706616961611833
0.0065                    -0.0205                  3.2153462379984674
0.0065                    -0.0195                  3.259736463842828
0.0065                    -0.0185                  3.3037667590890303
0.0065                    -0.0175                  3.3473800205091826
0.0065                    -0.0165                  3.390548591711913
0.0065                    -0.0155                  3.433313264976211
0.0065                    -0.0145                  3.4758301337647475
0.0065                    -0.0135                  3.5184114717936326
0.0065                    -0.0125                  3.561547475154236
0.0065                    -0.0115                  3.605900614380795
0.0065                    -0.0105                  3.652269036584768
0.0065                    -0.0095                  3.7015141411028516
0.0065                    -0.0085                  3.754441269603202
0.0065                    -0.0075                  3.8116258343949543
0.0065                    -0.0065                  3.8732053227334506
0.0065                    -0.0055                  3.9387007413931245
0.0065                    -0.0045                  4.006950471825633
0.0065                    -0.0035                  4.076204278445251
0.0065                    -0.0025                  4.14434828786036
0.0065                    -0.0015                  4.209164108233053
0.0065                    -5.0E-4                  4.26848091619473
0.0065                    5.0E-4                   4.320163337553887
0.0065                    0.0015                   4.362115097302923
0.0065                    0.0025                   4.392509096077347
0.0065                    0.0035                   4.410376471066984
0.0065                    0.0045                   4.416486464678677
0.0065                    0.0055                   4.414177931197268
0.0065                    0.0065                   4.407612132051604
0.0065                    0.0075                   4.39903752703114
0.0065                    0.0085                   4.38875876299921
0.0065                    0.0095                   4.377795457421724
0.0065                    0.0105                   4.367206695651037
0.0065                    0.0115                   4.3569216599582195