% Model:              Benchmark260518.mph
% Version:            COMSOL 6.2.0.339
% Date:               May 21 2026, 09:13
% Dimension:          2
% Nodes:              4096
% Expressions:        1
% Description:        压力
% Length unit:        m
% x                       y                        p (Pa)
5.0E-4                    -0.0315                  3.7381993734909855
5.0E-4                    -0.0305                  3.7673314334755252
5.0E-4                    -0.0295                  3.8070042654658653
5.0E-4                    -0.0285                  3.8500438597222724
5.0E-4                    -0.0275                  3.8949249203366993
5.0E-4                    -0.0265                  3.9411111800883143
5.0E-4                    -0.0255                  3.9882828482578994
5.0E-4                    -0.0245                  4.036297628201755
5.0E-4                    -0.0235                  4.085068387555781
5.0E-4                    -0.0225                  4.134547401453925
5.0E-4                    -0.0215                  4.184703797055652
5.0E-4                    -0.0205                  4.235528903165696
5.0E-4                    -0.0195                  4.287064923175842
5.0E-4                    -0.0185                  4.339381371615549
5.0E-4                    -0.0175                  4.392536902251638
5.0E-4                    -0.0165                  4.446516774481866
5.0E-4                    -0.0155                  4.501127441726252
5.0E-4                    -0.0145                  4.5560500329724825
5.0E-4                    -0.0135                  4.610075438205384
5.0E-4                    -0.0125                  4.659774770776241
5.0E-4                    -0.0115                  4.700388572476651
5.0E-4                    -0.0105                  4.727425058229674
5.0E-4                    -0.0095                  4.741166803325203
5.0E-4                    -0.0085                  4.746788230858255
5.0E-4                    -0.0075                  4.748267760133384
5.0E-4                    -0.0065                  4.747380449445174
5.0E-4                    -0.0055                  4.745034372841352
5.0E-4                    -0.0045                  4.741772269655293
5.0E-4                    -0.0035                  4.738170894028397
5.0E-4                    -0.0025                  4.73503215897532
5.0E-4                    -0.0015                  4.733132781857873
5.0E-4                    -5.0E-4                  4.73299322793685
5.0E-4                    5.0E-4                   4.734785297419894
5.0E-4                    0.0015                   4.738442671197941
5.0E-4                    0.0025                   4.743779765993716
5.0E-4                    0.0035                   4.7505140478278935
5.0E-4                    0.0045                   4.758262857971993
5.0E-4                    0.0055                   4.7664045841753415
5.0E-4                    0.0065                   4.773838864135703
5.0E-4                    0.0075                   4.778907942787636
5.0E-4                    0.0085                   4.779719115717981
5.0E-4                    0.0095                   4.774890321470918
5.0E-4                    0.0105                   4.764430725173314
5.0E-4                    0.0115                   4.750075980704044
5.0E-4                    0.0125                   4.734607092591579
5.0E-4                    0.0135                   4.720417674184587
5.0E-4                    0.0145                   4.707850904224864
5.0E-4                    0.0155                   4.712288218766855
5.0E-4                    0.0165                   4.771020547814244
5.0E-4                    0.0175                   4.864931062803657
5.0E-4                    0.0185                   4.935166162216731
5.0E-4                    0.0195                   4.972059747861556
5.0E-4                    0.0205                   4.990593126171456
5.0E-4                    0.0215                   5.000662305901795
5.0E-4                    0.0225                   5.005974698354021
5.0E-4                    0.0235                   5.006242471164793
5.0E-4                    0.0245                   5.0021978191255085
5.0E-4                    0.0255                   4.997407386025966
5.0E-4                    0.0265                   4.99399162021993
5.0E-4                    0.0275                   4.9912405885130715
5.0E-4                    0.0285                   4.98873999638504
5.0E-4                    0.0295                   4.9863852049243365
5.0E-4                    0.0305                   4.982569698496812
5.0E-4                    0.0315                   4.976618769894167
0.0015                    -0.0315                  3.7090087765526407
0.0015                    -0.0305                  3.738502651500605
0.0015                    -0.0295                  3.7814964563310554
0.0015                    -0.0285                  3.828367024962845
0.0015                    -0.0275                  3.876359989468226
0.0015                    -0.0265                  3.9248139402917994
0.0015                    -0.0255                  3.9735614668889006
0.0015                    -0.0245                  4.022612734911602
0.0015                    -0.0235                  4.072056910383232
0.0015                    -0.0225                  4.121979326813245
0.0015                    -0.0215                  4.172428894818934
0.0015                    -0.0205                  4.223445531499381
0.0015                    -0.0195                  4.275140154147702
0.0015                    -0.0185                  4.327765204356338
0.0015                    -0.0175                  4.381694048810038
0.0015                    -0.0165                  4.437301484436178
0.0015                    -0.0155                  4.494778488788969
0.0015                    -0.0145                  4.553634109645183
0.0015                    -0.0135                  4.611599964494461
0.0015                    -0.0125                  4.663846774950525
0.0015                    -0.0115                  4.704673962367192
0.0015                    -0.0105                  4.72999975645087
0.0015                    -0.0095                  4.742160638450342
0.0015                    -0.0085                  4.747494541347695
0.0015                    -0.0075                  4.74920378510373
0.0015                    -0.0065                  4.748350554529125
0.0015                    -0.0055                  4.7456150826234955
0.0015                    -0.0045                  4.741561405482146
0.0015                    -0.0035                  4.737027132690333
0.0015                    -0.0025                  4.733150085339775
0.0015                    -0.0015                  4.73087217732411
0.0015                    -5.0E-4                  4.730675683138597
0.0015                    5.0E-4                   4.732601081938445
0.0015                    0.0015                   4.736393031707047
0.0015                    0.0025                   4.741682597669414
0.0015                    0.0035                   4.748064568501109
0.0015                    0.0045                   4.7551512195060885
0.0015                    0.0055                   4.762479294957928
0.0015                    0.0065                   4.76924484694934
0.0015                    0.0075                   4.7741090110275985
0.0015                    0.0085                   4.775338319452144
0.0015                    0.0095                   4.771434803725672
0.0015                    0.0105                   4.7620645839164
0.0015                    0.0115                   4.748703428739616
0.0015                    0.0125                   4.734334416914655
0.0015                    0.0135                   4.722312614861105
0.0015                    0.0145                   4.718076608302234
0.0015                    0.0155                   4.729413142135355
0.0015                    0.0165                   4.795619744071992
0.0015                    0.0175                   4.88861764809988
0.0015                    0.0185                   4.943204081155958
0.0015                    0.0195                   4.966052522431545
0.0015                    0.0205                   4.974036337174153
0.0015                    0.0215                   4.978480479941244
0.0015                    0.0225                   4.982409527574058
0.0015                    0.0235                   4.984837808820449
0.0015                    0.0245                   4.983816021728179
0.0015                    0.0255                   4.979005780038065
0.0015                    0.0265                   4.972165417980467
0.0015                    0.0275                   4.964963728989444
0.0015                    0.0285                   4.9578086131532215
0.0015                    0.0295                   4.950304661179
0.0015                    0.0305                   4.9427836534124365
0.0015                    0.0315                   4.938550581647171
0.0025                    -0.0315                  3.668935488267413
0.0025                    -0.0305                  3.696257355557223
0.0025                    -0.0295                  3.7402118234356587
0.0025                    -0.0285                  3.7907613754188967
0.0025                    -0.0275                  3.8429147841777667
0.0025                    -0.0265                  3.8948936860986088
0.0025                    -0.0255                  3.9462469016497472
0.0025                    -0.0245                  3.997038001473036
0.0025                    -0.0235                  4.047554020913909
0.0025                    -0.0225                  4.098130402830641
0.0025                    -0.0215                  4.14902419001685
0.0025                    -0.0205                  4.2003994929185176
0.0025                    -0.0195                  4.25245742042877
0.0025                    -0.0185                  4.30563055535284
0.0025                    -0.0175                  4.360673750528777
0.0025                    -0.0165                  4.4184776060563875
0.0025                    -0.0155                  4.479523428611907
0.0025                    -0.0145                  4.542932097589529
0.0025                    -0.0135                  4.605232796978897
0.0025                    -0.0125                  4.660164867549152
0.0025                    -0.0115                  4.701479390395544
0.0025                    -0.0105                  4.726516382892148
0.0025                    -0.0095                  4.739451243597792
0.0025                    -0.0085                  4.746363441291095
0.0025                    -0.0075                  4.7488329006550325
0.0025                    -0.0065                  4.74690486033305
0.0025                    -0.0055                  4.741457347837764
0.0025                    -0.0045                  4.734332329318574
0.0025                    -0.0035                  4.72773864001653
0.0025                    -0.0025                  4.723165386218666
0.0025                    -0.0015                  4.721371328431893
0.0025                    -5.0E-4                  4.722484530204834
0.0025                    5.0E-4                   4.72596957213677
0.0025                    0.0015                   4.731018567768725
0.0025                    0.0025                   4.736856474340237
0.0025                    0.0035                   4.742902360850927
0.0025                    0.0045                   4.748826156838093
0.0025                    0.0055                   4.754485154094796
0.0025                    0.0065                   4.759749266336788
0.0025                    0.0075                   4.7641842382772746
0.0025                    0.0085                   4.766872818253365
0.0025                    0.0095                   4.766528745520734
0.0025                    0.0105                   4.762494145930917
0.0025                    0.0115                   4.755854199893028
0.0025                    0.0125                   4.749742309672896
0.0025                    0.0135                   4.750548343774749
0.0025                    0.0145                   4.767616887554074
0.0025                    0.0155                   4.814196258875232
0.0025                    0.0165                   4.885216362701853
0.0025                    0.0175                   4.942645795728983
0.0025                    0.0185                   4.966173118132081
0.0025                    0.0195                   4.968435749051089
0.0025                    0.0205                   4.965105540703128
0.0025                    0.0215                   4.96436729632239
0.0025                    0.0225                   4.9655680150839325
0.0025                    0.0235                   4.966061564612664
0.0025                    0.0245                   4.963779367026287
0.0025                    0.0255                   4.957811486024886
0.0025                    0.0265                   4.948656338507634
0.0025                    0.0275                   4.9378014179875045
0.0025                    0.0285                   4.9264993981409875
0.0025                    0.0295                   4.915770557972842
0.0025                    0.0305                   4.907548582855773
0.0025                    0.0315                   4.903353791341765
0.0035                    -0.0315                  3.6250619272443005
0.0035                    -0.0305                  3.6498391959716425
0.0035                    -0.0295                  3.6924408148719903
0.0035                    -0.0285                  3.744484377220941
0.0035                    -0.0275                  3.799944233786085
0.0035                    -0.0265                  3.8555453886320716
0.0035                    -0.0255                  3.9099252935866646
0.0035                    -0.0245                  3.962807808516901
0.0035                    -0.0235                  4.014516037762092
0.0035                    -0.0225                  4.065663285502794
0.0035                    -0.0215                  4.116887188823272
0.0035                    -0.0205                  4.1686621932630645
0.0035                    -0.0195                  4.221320851005768
0.0035                    -0.0185                  4.275314765944954
0.0035                    -0.0175                  4.33147454220825
0.0035                    -0.0165                  4.390922242045903
0.0035                    -0.0155                  4.454300938433483
0.0035                    -0.0145                  4.520523786951021
0.0035                    -0.0135                  4.585565283149172
0.0035                    -0.0125                  4.642656730953545
0.0035                    -0.0115                  4.6859597398327875
0.0035                    -0.0105                  4.713494990838835
0.0035                    -0.0095                  4.729494864575284
0.0035                    -0.0085                  4.738987682613996
0.0035                    -0.0075                  4.741544922085753
0.0035                    -0.0065                  4.736530225744303
0.0035                    -0.0055                  4.726712926950231
0.0035                    -0.0045                  4.716248111092475
0.0035                    -0.0035                  4.7084424963810685
0.0035                    -0.0025                  4.705039686690177
0.0035                    -0.0015                  4.706109292262633
0.0035                    -5.0E-4                  4.710632273070587
0.0035                    5.0E-4                   4.717183076687402
0.0035                    0.0015                   4.7244441879966885
0.0035                    0.0025                   4.731365753659097
0.0035                    0.0035                   4.7372258654506165
0.0035                    0.0045                   4.741705870450902
0.0035                    0.0055                   4.744989984738343
0.0035                    0.0065                   4.7478150322600605
0.0035                    0.0075                   4.751127880949422
0.0035                    0.0085                   4.755698820775956
0.0035                    0.0095                   4.761748372495202
0.0035                    0.0105                   4.769172290912574
0.0035                    0.0115                   4.7785084909916415
0.0035                    0.0125                   4.7929180256028285
0.0035                    0.0135                   4.819169219752859
0.0035                    0.0145                   4.863624515816388
0.0035                    0.0155                   4.923503936862931
0.0035                    0.0165                   4.978159076060092
0.0035                    0.0175                   5.00291408527843
0.0035                    0.0185                   4.996304944858898
0.0035                    0.0195                   4.9767944491055225
0.0035                    0.0205                   4.961595961120235
0.0035                    0.0215                   4.955335955592444
0.0035                    0.0225                   4.953030953655568
0.0035                    0.0235                   4.949896006526778
0.0035                    0.0245                   4.943857301777145
0.0035                    0.0255                   4.934701309987543
0.0035                    0.0265                   4.922880454803263
0.0035                    0.0275                   4.909125511260856
0.0035                    0.0285                   4.895000140671218
0.0035                    0.0295                   4.882471289735912
0.0035                    0.0305                   4.873272213384997
0.0035                    0.0315                   4.8684201465123325
0.0045                    -0.0315                  3.57896040444542
0.0045                    -0.0305                  3.6017396101357164
0.0045                    -0.0295                  3.6424587539958186
0.0045                    -0.0285                  3.694419310066405
0.0045                    -0.0275                  3.7518129194904932
0.0045                    -0.0265                  3.8104675110501796
0.0045                    -0.0255                  3.8679085004545564
0.0045                    -0.0245                  3.923083395365663
0.0045                    -0.0235                  3.976008568525266
0.0045                    -0.0225                  4.027443950139118
0.0045                    -0.0215                  4.078530962550706
0.0045                    -0.0205                  4.130380859946362
0.0045                    -0.0195                  4.183733870888968
0.0045                    -0.0185                  4.238962345422571
0.0045                    -0.0175                  4.296466791437861
0.0045                    -0.0165                  4.356915914342116
0.0045                    -0.0155                  4.420951267278048
0.0045                    -0.0145                  4.4877846525969485
0.0045                    -0.0135                  4.553701971033531
0.0045                    -0.0125                  4.612347009938977
0.0045                    -0.0115                  4.658158711004557
0.0045                    -0.0105                  4.689231278222545
0.0045                    -0.0095                  4.708984583169604
0.0045                    -0.0085                  4.720652801701269
0.0045                    -0.0075                  4.722286366281809
0.0045                    -0.0065                  4.714095554769797
0.0045                    -0.0055                  4.701428534072675
0.0045                    -0.0045                  4.690516926279187
0.0045                    -0.0035                  4.685335914939305
0.0045                    -0.0025                  4.686573660264679
0.0045                    -0.0015                  4.6926184113456575
0.0045                    -5.0E-4                  4.701288607374372
0.0045                    5.0E-4                   4.710829069309729
0.0045                    0.0015                   4.719986504762819
0.0045                    0.0025                   4.727831516642794
0.0045                    0.0035                   4.733622016217789
0.0045                    0.0045                   4.7369232513376245
0.0045                    0.0055                   4.737998424255375
0.0045                    0.0065                   4.7382203411069845
0.0045                    0.0075                   4.739939603772475
0.0045                    0.0085                   4.745822744959172
0.0045                    0.0095                   4.758093597111012
0.0045                    0.0105                   4.778065300446833
0.0045                    0.0115                   4.806465927490451
0.0045                    0.0125                   4.84518875981346
0.0045                    0.0135                   4.896419393899784
0.0045                    0.0145                   4.958274459045331
0.0045                    0.0155                   5.018602735300821
0.0045                    0.0165                   5.055391526933107
0.0045                    0.0175                   5.054734006943725
0.0045                    0.0185                   5.024922198625932
0.0045                    0.0195                   4.98780831266413
0.0045                    0.0205                   4.961543710887463
0.0045                    0.0215                   4.9490873421680135
0.0045                    0.0225                   4.942259359033444
0.0045                    0.0235                   4.934372274867632
0.0045                    0.0245                   4.923602603380075
0.0045                    0.0255                   4.9102277467643525
0.0045                    0.0265                   4.895060668837336
0.0045                    0.0275                   4.878800227140437
0.0045                    0.0285                   4.862734389451056
0.0045                    0.0295                   4.848814991658022
0.0045                    0.0305                   4.838611637147288
0.0045                    0.0315                   4.833194518280306
0.0055                    -0.0315                  3.531137359667423
0.0055                    -0.0305                  3.5524175556586823
0.0055                    -0.0295                  3.591407676426262
0.0055                    -0.0285                  3.642689566545858
0.0055                    -0.0275                  3.7010778800325133
0.0055                    -0.0265                  3.762173975322526
0.0055                    -0.0255                  3.8226386704521187
0.0055                    -0.0245                  3.8804100824609433
0.0055                    -0.0235                  3.9347667967522426
0.0055                    -0.0225                  3.9862669307049776
0.0055                    -0.0215                  4.03649002555489
0.0055                    -0.0205                  4.087501960629879
0.0055                    -0.0195                  4.1410834561622885
0.0055                    -0.0185                  4.197956141804573
0.0055                    -0.0175                  4.257735300165205
0.0055                    -0.0165                  4.3198545466449865
0.0055                    -0.0155                  4.384040840873519
0.0055                    -0.0145                  4.450123585047671
0.0055                    -0.0135                  4.5159011453647215
0.0055                    -0.0125                  4.575364926521001
0.0055                    -0.0115                  4.622265509538748
0.0055                    -0.0105                  4.655424345143566
0.0055                    -0.0095                  4.678088617798428
0.0055                    -0.0085                  4.691274640109232
0.0055                    -0.0075                  4.692624308741344
0.0055                    -0.0065                  4.683793999337157
0.0055                    -0.0055                  4.672283256975081
0.0055                    -0.0045                  4.66563756340089
0.0055                    -0.0035                  4.666817725377344
0.0055                    -0.0025                  4.674141602571552
0.0055                    -0.0015                  4.684663201435591
0.0055                    -5.0E-4                  4.696216946500894
0.0055                    5.0E-4                   4.707430587534389
0.0055                    0.0015                   4.717415386555064
0.0055                    0.0025                   4.725504172006405
0.0055                    0.0035                   4.731045957290162
0.0055                    0.0045                   4.733555577846836
0.0055                    0.0055                   4.7333011460812155
0.0055                    0.0065                   4.731986129525833
0.0055                    0.0075                   4.732880402629643
0.0055                    0.0085                   4.739859844078451
0.0055                    0.0095                   4.756181207470012
0.0055                    0.0105                   4.784074892179691
0.0055                    0.0115                   4.824761719638151
0.0055                    0.0125                   4.878305247998325
0.0055                    0.0135                   4.942684371530564
0.0055                    0.0145                   5.011151085218883
0.0055                    0.0155                   5.0686120026926815
0.0055                    0.0165                   5.095342537446177
0.0055                    0.0175                   5.082567613996859
0.0055                    0.0185                   5.0414579611502495
0.0055                    0.0195                   4.994666572037012
0.0055                    0.0205                   4.960621037123174
0.0055                    0.0215                   4.942098853153309
0.0055                    0.0225                   4.930105672804492
0.0055                    0.0235                   4.917232670216187
0.0055                    0.0245                   4.901908088224932
0.0055                    0.0255                   4.8842500783035705
0.0055                    0.0265                   4.865386102693799
0.0055                    0.0275                   4.8465928581960025
0.0055                    0.0285                   4.828883021572242
0.0055                    0.0295                   4.813919409378192
0.0055                    0.0305                   4.80309088593892
0.0055                    0.0315                   4.797408525770392
0.0065                    -0.0315                  3.4818920134362994
0.0065                    -0.0305                  3.501918803298164
0.0065                    -0.0295                  3.5393208498206388
0.0065                    -0.0285                  3.5897139146483252
0.0065                    -0.0275                  3.6486206961083902
0.0065                    -0.0265                  3.7118029973938125
0.0065                    -0.0255                  3.7754183527965908
0.0065                    -0.0245                  3.836399688877713
0.0065                    -0.0235                  3.8929049641336007
0.0065                    -0.0225                  3.9447350688188494
0.0065                    -0.0215                  3.9935374131732932
0.0065                    -0.0205                  4.042410016888677
0.0065                    -0.0195                  4.094821904155896
0.0065                    -0.0185                  4.152984099800087
0.0065                    -0.0175                  4.216297112983679
0.0065                    -0.0165                  4.281924888925451
0.0065                    -0.0155                  4.347381840487909
0.0065                    -0.0145                  4.413562850211354
0.0065                    -0.0135                  4.480244106001035
0.0065                    -0.0125                  4.540659039846429
0.0065                    -0.0115                  4.587290609716709
0.0065                    -0.0105                  4.620148797345204
0.0065                    -0.0095                  4.643789738952556
0.0065                    -0.0085                  4.658134359713627
0.0065                    -0.0075                  4.660434110849351
0.0065                    -0.0065                  4.653885785156291
0.0065                    -0.0055                  4.647403001765248
0.0065                    -0.0045                  4.647460778306329
0.0065                    -0.0035                  4.6545210044405865
0.0065                    -0.0025                  4.665947018960027
0.0065                    -0.0015                  4.679065545421397
0.0065                    -5.0E-4                  4.692027235404648
0.0065                    5.0E-4                   4.703688470503488
0.0065                    0.0015                   4.713398006493188
0.0065                    0.0025                   4.720720667733438
0.0065                    0.0035                   4.725155079905156
0.0065                    0.0045                   4.726234064810326
0.0065                    0.0055                   4.724541063157414
0.0065                    0.0065                   4.722674926003474
0.0065                    0.0075                   4.724627407741589
0.0065                    0.0085                   4.734294946146382
0.0065                    0.0095                   4.754540439648914
0.0065                    0.0105                   4.787047212784698
0.0065                    0.0115                   4.832445510208912
0.0065                    0.0125                   4.889879667380294