% Model:              Benchmark260518.mph
% Version:            COMSOL 6.2.0.339
% Date:               May 20 2026, 18:32
% Dimension:          2
% Nodes:              4096
% Expressions:        1
% Description:        压力
% Length unit:        m
% x                       y                        p (Pa)
5.0E-4                    -0.0315                  3.548120600820047
5.0E-4                    -0.0305                  3.5797424678576952
5.0E-4                    -0.0295                  3.6229329697575174
5.0E-4                    -0.0285                  3.6699475887110093
5.0E-4                    -0.0275                  3.7192776301996746
5.0E-4                    -0.0265                  3.770423861828685
5.0E-4                    -0.0255                  3.823068150685202
5.0E-4                    -0.0245                  3.8770360788092053
5.0E-4                    -0.0235                  3.9321897009333155
5.0E-4                    -0.0225                  3.98843535909414
5.0E-4                    -0.0215                  4.0457284632583335
5.0E-4                    -0.0205                  4.104088858593667
5.0E-4                    -0.0195                  4.163591796301108
5.0E-4                    -0.0185                  4.224319357283765
5.0E-4                    -0.0175                  4.286296224793547
5.0E-4                    -0.0165                  4.349424254896354
5.0E-4                    -0.0155                  4.413455978946911
5.0E-4                    -0.0145                  4.4779882344115425
5.0E-4                    -0.0135                  4.542468417183986
5.0E-4                    -0.0125                  4.6063569475175585
5.0E-4                    -0.0115                  4.668180840884581
5.0E-4                    -0.0105                  4.724138742013336
5.0E-4                    -0.0095                  4.769599511973098
5.0E-4                    -0.0085                  4.800057437449766
5.0E-4                    -0.0075                  4.81559375924566
5.0E-4                    -0.0065                  4.8218134926887775
5.0E-4                    -0.0055                  4.823209017531299
5.0E-4                    -0.0045                  4.821965840079914
5.0E-4                    -0.0035                  4.819438774141802
5.0E-4                    -0.0025                  4.816690236152059
5.0E-4                    -0.0015                  4.813921218235886
5.0E-4                    -5.0E-4                  4.809267112337244
5.0E-4                    5.0E-4                   4.799249505929673
5.0E-4                    0.0015                   4.781484062608066
5.0E-4                    0.0025                   4.757464697313196
5.0E-4                    0.0035                   4.732767314041766
5.0E-4                    0.0045                   4.713180532600849
5.0E-4                    0.0055                   4.706183521220866
5.0E-4                    0.0065                   4.755283223361566
5.0E-4                    0.0075                   4.860311959230304
5.0E-4                    0.0085                   4.913072139806336
5.0E-4                    0.0095                   4.900989907537336
5.0E-4                    0.0105                   4.899473031604414
5.0E-4                    0.0115                   4.912778191233003
5.0E-4                    0.0125                   4.922869341670584
5.0E-4                    0.0135                   4.925009689562775
5.0E-4                    0.0145                   4.918657209282938
5.0E-4                    0.0155                   4.90201725609312
5.0E-4                    0.0165                   4.872218610240618
5.0E-4                    0.0175                   4.831660067901642
5.0E-4                    0.0185                   4.785670195657328
5.0E-4                    0.0195                   4.7384046297399305
5.0E-4                    0.0205                   4.692880199314342
5.0E-4                    0.0215                   4.649711156526732
5.0E-4                    0.0225                   4.608543356242413
5.0E-4                    0.0235                   4.569007383631906
5.0E-4                    0.0245                   4.530776092993733
5.0E-4                    0.0255                   4.493618270456908
5.0E-4                    0.0265                   4.457417488739665
5.0E-4                    0.0275                   4.422174419385742
5.0E-4                    0.0285                   4.38806783232043
5.0E-4                    0.0295                   4.355466600484925
5.0E-4                    0.0305                   4.325484778124256
5.0E-4                    0.0315                   4.303476201116066
0.0015                    -0.0315                  3.5162237971542525
0.0015                    -0.0305                  3.547732653240955
0.0015                    -0.0295                  3.5936944234032095
0.0015                    -0.0285                  3.6438149517038525
0.0015                    -0.0275                  3.6954033841935416
0.0015                    -0.0265                  3.7480117104367827
0.0015                    -0.0255                  3.8016106059591745
0.0015                    -0.0245                  3.8562307164967713
0.0015                    -0.0235                  3.9118749825905796
0.0015                    -0.0225                  3.9684946586442775
0.0015                    -0.0215                  4.026038451465136
0.0015                    -0.0205                  4.0845384855246705
0.0015                    -0.0195                  4.144183835030722
0.0015                    -0.0185                  4.205308128238429
0.0015                    -0.0175                  4.268275241642254
0.0015                    -0.0165                  4.333320699310063
0.0015                    -0.0155                  4.400412437761822
0.0015                    -0.0145                  4.469162573308371
0.0015                    -0.0135                  4.538777493909866
0.0015                    -0.0125                  4.607763758368396
0.0015                    -0.0115                  4.673206707980749
0.0015                    -0.0105                  4.730459184842478
0.0015                    -0.0095                  4.774856330011227
0.0015                    -0.0085                  4.802740941620845
0.0015                    -0.0075                  4.816458803979064
0.0015                    -0.0065                  4.822558130804076
0.0015                    -0.0055                  4.824118702108982
0.0015                    -0.0045                  4.82223634003713
0.0015                    -0.0035                  4.818046686800798
0.0015                    -0.0025                  4.8130507927015795
0.0015                    -0.0015                  4.808349146549673
0.0015                    -5.0E-4                  4.8029327303001015
0.0015                    5.0E-4                   4.79355909822026
0.0015                    0.0015                   4.777188632094992
0.0015                    0.0025                   4.754616812037653
0.0015                    0.0035                   4.7316550410723375
0.0015                    0.0045                   4.717310334532711
0.0015                    0.0055                   4.72768577326983
0.0015                    0.0065                   4.825165830567588
0.0015                    0.0075                   4.962457581699515
0.0015                    0.0085                   4.99458069520433
0.0015                    0.0095                   4.941208394983862
0.0015                    0.0105                   4.909075045010871
0.0015                    0.0115                   4.91508003086602
0.0015                    0.0125                   4.925370749152139
0.0015                    0.0135                   4.927072812740447
0.0015                    0.0145                   4.91809610277029
0.0015                    0.0155                   4.8977964384750745
0.0015                    0.0165                   4.863153799674091
0.0015                    0.0175                   4.8173413250365185
0.0015                    0.0185                   4.767466784529252
0.0015                    0.0195                   4.718180534495532
0.0015                    0.0205                   4.672381634524974
0.0015                    0.0215                   4.630167311365976
0.0015                    0.0225                   4.590535962838247
0.0015                    0.0235                   4.5524914026555905
0.0015                    0.0245                   4.515345924556645
0.0015                    0.0255                   4.478684169852823
0.0015                    0.0265                   4.442299343253118
0.0015                    0.0275                   4.406154478937232
0.0015                    0.0285                   4.3703755742588815
0.0015                    0.0295                   4.33544010036812
0.0015                    0.0305                   4.303356467642577
0.0015                    0.0315                   4.281300396484486
0.0025                    -0.0315                  3.4725602936390345
0.0025                    -0.0305                  3.5007184485233256
0.0025                    -0.0295                  3.5461263813289556
0.0025                    -0.0285                  3.5982521538180374
0.0025                    -0.0275                  3.6521815396104618
0.0025                    -0.0265                  3.7065475622263406
0.0025                    -0.0255                  3.761286387447303
0.0025                    -0.0245                  3.81665176551579
0.0025                    -0.0235                  3.872871072199604
0.0025                    -0.0225                  3.9300261241769534
0.0025                    -0.0215                  3.988077540766724
0.0025                    -0.0205                  4.047022276569256
0.0025                    -0.0195                  4.1071090728183455
0.0025                    -0.0185                  4.168965616530098
0.0025                    -0.0175                  4.233491754156293
0.0025                    -0.0165                  4.301533607173232
0.0025                    -0.0155                  4.373499200562153
0.0025                    -0.0145                  4.449024572130474
0.0025                    -0.0135                  4.526586864623603
0.0025                    -0.0125                  4.602941225021675
0.0025                    -0.0115                  4.672908947043047
0.0025                    -0.0105                  4.730549399464658
0.0025                    -0.0095                  4.772121951806059
0.0025                    -0.0085                  4.797737454907908
0.0025                    -0.0075                  4.812255367720618
0.0025                    -0.0065                  4.820153174457236
0.0025                    -0.0055                  4.821223563682731
0.0025                    -0.0045                  4.815152884500106
0.0025                    -0.0035                  4.804570983903084
0.0025                    -0.0025                  4.793576566554966
0.0025                    -0.0015                  4.785187595951096
0.0025                    -5.0E-4                  4.780130701836814
0.0025                    5.0E-4                   4.776459479510935
0.0025                    0.0015                   4.771244681017329
0.0025                    0.0025                   4.763771084829445
0.0025                    0.0035                   4.760325806108411
0.0025                    0.0045                   4.777897321678074
0.0025                    0.0055                   4.851817826558322
0.0025                    0.0065                   4.999691082029599
0.0025                    0.0075                   5.128003466310598
0.0025                    0.0085                   5.1297282931743595
0.0025                    0.0095                   5.036312946343067
0.0025                    0.0105                   4.954454371371012
0.0025                    0.0115                   4.927898497919221
0.0025                    0.0125                   4.926690269160584
0.0025                    0.0135                   4.923136864333905
0.0025                    0.0145                   4.906329381949701
0.0025                    0.0155                   4.875655773410535
0.0025                    0.0165                   4.831897971841336
0.0025                    0.0175                   4.780070162022375
0.0025                    0.0185                   4.7273817614813325
0.0025                    0.0195                   4.677899541398489
0.0025                    0.0205                   4.633792779865841
0.0025                    0.0215                   4.594310270872487
0.0025                    0.0225                   4.557670787904482
0.0025                    0.0235                   4.522259244129528
0.0025                    0.0245                   4.486962521541431
0.0025                    0.0255                   4.451153698441331
0.0025                    0.0265                   4.414575813167489
0.0025                    0.0275                   4.3772611241787525
0.0025                    0.0285                   4.339607185708038
0.0025                    0.0295                   4.302926000894666
0.0025                    0.0305                   4.27087540573868
0.0025                    0.0315                   4.250883314433752
0.0035                    -0.0315                  3.425159727204023
0.0035                    -0.0305                  3.4493845043861966
0.0035                    -0.0295                  3.4912567011254625
0.0035                    -0.0285                  3.542316718340392
0.0035                    -0.0275                  3.596754528268014
0.0035                    -0.0265                  3.6519036488050327
0.0035                    -0.0255                  3.707115673526047
0.0035                    -0.0245                  3.7626500660745457
0.0035                    -0.0235                  3.818987714723083
0.0035                    -0.0225                  3.876473287867909
0.0035                    -0.0215                  3.935190428643751
0.0035                    -0.0205                  3.995072836978821
0.0035                    -0.0195                  4.056222420678213
0.0035                    -0.0185                  4.119277676944929
0.0035                    -0.0175                  4.185535266515492
0.0035                    -0.0165                  4.256566630723569
0.0035                    -0.0155                  4.333455775431412
0.0035                    -0.0145                  4.415973420573264
0.0035                    -0.0135                  4.501798579355439
0.0035                    -0.0125                  4.585820129515357
0.0035                    -0.0115                  4.660309155284859
0.0035                    -0.0105                  4.718294389752919
0.0035                    -0.0095                  4.757518640983122
0.0035                    -0.0085                  4.782206943639601
0.0035                    -0.0075                  4.7988414778828865
0.0035                    -0.0065                  4.807832393229058
0.0035                    -0.0055                  4.80492834466747
0.0035                    -0.0045                  4.790133554385577
0.0035                    -0.0035                  4.769656388317817
0.0035                    -0.0025                  4.750809939501882
0.0035                    -0.0015                  4.7391936468254405
0.0035                    -5.0E-4                  4.737712222258686
0.0035                    5.0E-4                   4.7463042125820545
0.0035                    0.0015                   4.764652456823491
0.0035                    0.0025                   4.792873028891476
0.0035                    0.0035                   4.836033033003202
0.0035                    0.0045                   4.91018692481776
0.0035                    0.0055                   5.032813144386198
0.0035                    0.0065                   5.18204622446479
0.0035                    0.0075                   5.2783492276190795
0.0035                    0.0085                   5.258833391337275
0.0035                    0.0095                   5.143703236250078
0.0035                    0.0105                   5.013635950022976
0.0035                    0.0115                   4.933953315802394
0.0035                    0.0125                   4.904693405841759
0.0035                    0.0135                   4.891236143058895
0.0035                    0.0145                   4.867092732494774
0.0035                    0.0155                   4.825625110861227
0.0035                    0.0165                   4.772794465899895
0.0035                    0.0175                   4.717702435910054
0.0035                    0.0185                   4.66660623945343
0.0035                    0.0195                   4.621422039252861
0.0035                    0.0205                   4.582267213692553
0.0035                    0.0215                   4.547507925411511
0.0035                    0.0225                   4.514982789648497
0.0035                    0.0235                   4.482787710754791
0.0035                    0.0245                   4.4496222742683145
0.0035                    0.0255                   4.414809188511251
0.0035                    0.0265                   4.378199513147606
0.0035                    0.0275                   4.340141292470622
0.0035                    0.0285                   4.30170344799271
0.0035                    0.0295                   4.26527215438797
0.0035                    0.0305                   4.235220806143447
0.0035                    0.0315                   4.217659944326272
0.0045                    -0.0315                  3.375652637507849
0.0045                    -0.0305                  3.396717092839118
0.0045                    -0.0295                  3.4344982058107503
0.0045                    -0.0285                  3.4825239770584604
0.0045                    -0.0275                  3.535387410739224
0.0045                    -0.0265                  3.5897458280414614
0.0045                    -0.0255                  3.6442314245391114
0.0045                    -0.0245                  3.698868308995918
0.0045                    -0.0235                  3.7543549048140124
0.0045                    -0.0225                  3.8114670249188745
0.0045                    -0.0215                  3.8706620343305707
0.0045                    -0.0205                  3.9319552312179176
0.0045                    -0.0195                  3.9951496917901737
0.0045                    -0.0185                  4.060378203567271
0.0045                    -0.0175                  4.128679465010197
0.0045                    -0.0165                  4.2020418604484995
0.0045                    -0.0155                  4.282447451798271
0.0045                    -0.0145                  4.370344608459449
0.0045                    -0.0135                  4.463189977403052
0.0045                    -0.0125                  4.554467238052092
0.0045                    -0.0115                  4.634270004551895
0.0045                    -0.0105                  4.69462723439038
0.0045                    -0.0095                  4.7334567360878195
0.0045                    -0.0085                  4.757435839995728
0.0045                    -0.0075                  4.774252555957153
0.0045                    -0.0065                  4.780822745417643
0.0045                    -0.0055                  4.7712040869399965
0.0045                    -0.0045                  4.747749071061385
0.0045                    -0.0035                  4.7203805195450474
0.0045                    -0.0025                  4.699652620591762
0.0045                    -0.0015                  4.691573043449135
0.0045                    -5.0E-4                  4.6977546784843245
0.0045                    5.0E-4                   4.719320518624819
0.0045                    0.0015                   4.75986764113358
0.0045                    0.0025                   4.823184617235167
0.0045                    0.0035                   4.91167145956854
0.0045                    0.0045                   5.027283055981079
0.0045                    0.0055                   5.162971572915913
0.0045                    0.0065                   5.286462522733437
0.0045                    0.0075                   5.347805207554648
0.0045                    0.0085                   5.3149661184830705
0.0045                    0.0095                   5.193348637097229
0.0045                    0.0105                   5.032883206347243
0.0045                    0.0115                   4.907867936866265
0.0045                    0.0125                   4.846391005151872
0.0045                    0.0135                   4.819814682866161
0.0045                    0.0145                   4.791572161632355
0.0045                    0.0155                   4.746168446954144
0.0045                    0.0165                   4.691051761786282
0.0045                    0.0175                   4.638240358895534
0.0045                    0.0185                   4.593330385729394
0.0045                    0.0195                   4.555813505663432
0.0045                    0.0205                   4.523797643976463
0.0045                    0.0215                   4.494997032784935
0.0045                    0.0225                   4.467067728506517
0.0045                    0.0235                   4.438125151801701
0.0045                    0.0245                   4.406978381272019
0.0045                    0.0255                   4.373145961194943
0.0045                    0.0265                   4.336794073469992
0.0045                    0.0275                   4.298782312928343
0.0045                    0.0285                   4.2608855324678325
0.0045                    0.0295                   4.226053010053853
0.0045                    0.0305                   4.198432371553751
0.0045                    0.0315                   4.182860165838502
0.0055                    -0.0315                  3.3245591148362035
0.0055                    -0.0305                  3.343310971449701
0.0055                    -0.0295                  3.377582953835713
0.0055                    -0.0285                  3.4221675135957828
0.0055                    -0.0275                  3.4723209747220545
0.0055                    -0.0265                  3.524609027790402
0.0055                    -0.0255                  3.577171633233255
0.0055                    -0.0245                  3.6296981744332717
0.0055                    -0.0235                  3.6830229697544143
0.0055                    -0.0225                  3.7384981982442205
0.0055                    -0.0215                  3.7973282727052893
0.0055                    -0.0205                  3.8600460694390377
0.0055                    -0.0195                  3.926338034892532
0.0055                    -0.0185                  3.9954432094336187
0.0055                    -0.0175                  4.067106319436029
0.0055                    -0.0165                  4.14257625823374
0.0055                    -0.0155                  4.224539234260264
0.0055                    -0.0145                  4.315088519076492
0.0055                    -0.0135                  4.412866000598382
0.0055                    -0.0125                  4.51098330797345
0.0055                    -0.0115                  4.597592826622343
0.0055                    -0.0105                  4.662347871176339
0.0055                    -0.0095                  4.702501794022917
0.0055                    -0.0085                  4.7259965713088565
0.0055                    -0.0075                  4.740878292697376
0.0055                    -0.0065                  4.743270932780014
0.0055                    -0.0055                  4.728476809520596
0.0055                    -0.0045                  4.702314091136998
0.0055                    -0.0035                  4.677748327885176
0.0055                    -0.0025                  4.6649144481699585
0.0055                    -0.0015                  4.665700690586979
0.0055                    -5.0E-4                  4.679331756534861
0.0055                    5.0E-4                   4.708974420131669
0.0055                    0.0015                   4.761243775895146
0.0055                    0.0025                   4.840979744197865
0.0055                    0.0035                   4.947077474331941
0.0055                    0.0045                   5.072070136017706
0.0055                    0.0055                   5.197961103324709
0.0055                    0.0065                   5.293620351965741
0.0055                    0.0075                   5.330018663402901
0.0055                    0.0085                   5.293182376475793
0.0055                    0.0095                   5.1764144274313155
0.0055                    0.0105                   5.007015870055737
0.0055                    0.0115                   4.858402311756016
0.0055                    0.0125                   4.772129542958561
0.0055                    0.0135                   4.729740239880175
0.0055                    0.0145                   4.6962341208119796
0.0055                    0.0155                   4.652762474200056
0.0055                    0.0165                   4.603207954537363
0.0055                    0.0175                   4.557192124093557
0.0055                    0.0185                   4.5195697885007
0.0055                    0.0195                   4.489539281675604
0.0055                    0.0205                   4.4644795680063485
0.0055                    0.0215                   4.441367065661309
0.0055                    0.0225                   4.4176189622906605
0.0055                    0.0235                   4.39143634780471
0.0055                    0.0245                   4.361919860134137
0.0055                    0.0255                   4.328961032766872
0.0055                    0.0265                   4.293168296961294
0.0055                    0.0275                   4.255897109357907
0.0055                    0.0285                   4.219331606348678
0.0055                    0.0295                   4.18646613277495
0.0055                    0.0305                   4.160987801247314
0.0055                    0.0315                   4.146889462210533
0.0065                    -0.0315                  3.2722093733236397
0.0065                    -0.0305                  3.2892418559885512
0.0065                    -0.0295                  3.320768467718321
0.0065                    -0.0285                  3.36236341170181
0.0065                    -0.0275                  3.409770619847471
0.0065                    -0.0265                  3.459606853854722
0.0065                    -0.0255                  3.5096738602977116
0.0065                    -0.0245                  3.5592670812546316
0.0065                    -0.0235                  3.609196947106767
0.0065                    -0.0225                  3.661407207005664
0.0065                    -0.0215                  3.718219670916916
0.0065                    -0.0205                  3.7813769972375866
0.0065                    -0.0195                  3.8511757886856155
0.0065                    -0.0185                  3.92612547972741
0.0065                    -0.0175                  4.003847876479936
0.0065                    -0.0165                  4.083169009038113
0.0065                    -0.0155                  4.165859375193888
0.0065                    -0.0145                  4.256108492370088
0.0065                    -0.0135                  4.356387291923473
0.0065                    -0.0125                  4.461213968957727
0.0065                    -0.0115                  4.555936652381556
0.0065                    -0.0105                  4.62573134270438
0.0065                    -0.0095                  4.667915253526224
0.0065                    -0.0085                  4.69199404422182
0.0065                    -0.0075                  4.7053580083966375
0.0065                    -0.0065                  4.705244709510794
0.0065                    -0.0055                  4.689576972143674
0.0065                    -0.0045                  4.667806770519743
0.0065                    -0.0035                  4.653007681267734
0.0065                    -0.0025                  4.649759592251932
0.0065                    -0.0015                  4.656240052460086
0.0065                    -5.0E-4                  4.67313304345266
0.0065                    5.0E-4                   4.706861294041278
0.0065                    0.0015                   4.765231054782953
0.0065                    0.0025                   4.850280817323249
0.0065                    0.0035                   4.9562603285692335
0.0065                    0.0045                   5.071518360858156
0.0065                    0.0055                   5.177440454581348
0.0065                    0.0065                   5.2503897343357
0.0065                    0.0075                   5.271653327175438
0.0065                    0.0085                   5.230316129369019
0.0065                    0.0095                   5.116128942515887
0.0065                    0.0105                   4.949188868910268
0.0065                    0.0115                   4.7940108231392
0.0065                    0.0125                   4.695693532117245