% Model:              Benchmark260518.mph
% Version:            COMSOL 6.2.0.339
% Date:               May 20 2026, 08:55
% Dimension:          2
% Nodes:              4096
% Expressions:        1
% Description:        压力
% Length unit:        m
% x                       y                        p (Pa)
% mirrored_by_python_y_to_minus_y, coord_match_decimals=12
0.0005 -0.0315 3.43791885176
0.0005 -0.0305 3.48480117362
0.0005 -0.0295 3.54855203266
0.0005 -0.0285 3.61785566213
0.0005 -0.0275 3.69033899948
0.0005 -0.0265 3.76521966083
0.0005 -0.0255 3.84211325676
0.0005 -0.0245 3.92093218338
0.0005 -0.0235 4.00160709676
0.0005 -0.0225 4.08387852344
0.0005 -0.0215 4.16714679514
0.0005 -0.0205 4.25046825098
0.0005 -0.0195 4.33266650307
0.0005 -0.0185 4.41253195304
0.0005 -0.0175 4.48888656989
0.0005 -0.0165 4.56066983198
0.0005 -0.0155 4.62669340157
0.0005 -0.0145 4.68493595171
0.0005 -0.0135 4.73294694709
0.0005 -0.0125 4.76909884499
0.0005 -0.0115 4.79313088621
0.0005 -0.0105 4.80611220615
0.0005 -0.0095 4.80997308045
0.0005 -0.0085 4.80789965359
0.0005 -0.0075 4.80371912736
0.0005 -0.0065 4.79939099593
0.0005 -0.0055 4.79501029611
0.0005 -0.0045 4.79504177777
0.0005 -0.0035 4.82295517302
0.0005 -0.0025 4.91662663254
0.0005 -0.0015 5.03767835113
0.0005 -0.0005 5.11525762204
0.0005 0.0005 5.13283696646
0.0005 0.0015 5.09734857024
0.0005 0.0025 5.03207047365
0.0005 0.0035 4.97574824974
0.0005 0.0045 4.95998754766
0.0005 0.0055 4.97290143978
0.0005 0.0065 4.98904997221
0.0005 0.0075 5.00102069045
0.0005 0.0085 5.00910034135
0.0005 0.0095 5.01444153812
0.0005 0.0105 5.01871201227
0.0005 0.0115 5.02279905617
0.0005 0.0125 5.02626114088
0.0005 0.0135 5.02795327301
0.0005 0.0145 5.02651853157
0.0005 0.0155 5.01999358017
0.0005 0.0165 5.0045074915
0.0005 0.0175 4.975493613
0.0005 0.0185 4.93384803448
0.0005 0.0195 4.88421851063
0.0005 0.0205 4.83067166109
0.0005 0.0215 4.77631779117
0.0005 0.0225 4.72196994253
0.0005 0.0235 4.66759301173
0.0005 0.0245 4.61330012321
0.0005 0.0255 4.559294936
0.0005 0.0265 4.50585141149
0.0005 0.0275 4.45330263994
0.0005 0.0285 4.40214647707
0.0005 0.0295 4.35306358976
0.0005 0.0305 4.30781062992
0.0005 0.0315 4.27460021782
0.0015 -0.0315 3.39055992288
0.0015 -0.0305 3.4374858584
0.0015 -0.0295 3.50574174272
0.0015 -0.0285 3.58032647022
0.0015 -0.0275 3.65709114508
0.0015 -0.0265 3.73511069214
0.0015 -0.0255 3.81431062057
0.0015 -0.0245 3.89510554561
0.0015 -0.0235 3.9782277303
0.0015 -0.0225 4.06435061646
0.0015 -0.0215 4.15359739976
0.0015 -0.0205 4.24521295074
0.0015 -0.0195 4.33755686381
0.0015 -0.0185 4.4283068675
0.0015 -0.0175 4.51486872796
0.0015 -0.0165 4.59478171791
0.0015 -0.0155 4.66570873059
0.0015 -0.0145 4.72499397545
0.0015 -0.0135 4.77033551806
0.0015 -0.0125 4.80118857258
0.0015 -0.0115 4.81854106847
0.0015 -0.0105 4.82420305424
0.0015 -0.0095 4.82120312363
0.0015 -0.0085 4.81407752547
0.0015 -0.0075 4.80694946687
0.0015 -0.0065 4.80057026377
0.0015 -0.0055 4.79520476494
0.0015 -0.0045 4.79184743631
0.0015 -0.0035 4.83869535209
0.0015 -0.0025 4.97567694823
0.0015 -0.0015 5.13076457598
0.0015 -0.0005 5.22842462883
0.0015 0.0005 5.25198471227
0.0015 0.0015 5.20700490636
0.0015 0.0025 5.11982886162
0.0015 0.0035 5.03156933684
0.0015 0.0045 4.98623824985
0.0015 0.0055 4.98188911176
0.0015 0.0065 4.98960870571
0.0015 0.0075 4.99806702966
0.0015 0.0085 5.00430300448
0.0015 0.0095 5.0094997397
0.0015 0.0105 5.01517640326
0.0015 0.0115 5.02138619784
0.0015 0.0125 5.02655391016
0.0015 0.0135 5.02893492203
0.0015 0.0145 5.02716158846
0.0015 0.0155 5.0199423555
0.0015 0.0165 5.0046040975
0.0015 0.0175 4.97615049233
0.0015 0.0185 4.93466119326
0.0015 0.0195 4.884673408
0.0015 0.0205 4.82987405382
0.0015 0.0215 4.77346065747
0.0015 0.0225 4.71670493079
0.0015 0.0235 4.65983918145
0.0015 0.0245 4.60292557045
0.0015 0.0255 4.54610743686
0.0015 0.0265 4.48955792496
0.0015 0.0275 4.43347345014
0.0015 0.0285 4.37813897238
0.0015 0.0295 4.3243018433
0.0015 0.0305 4.27505384755
0.0015 0.0315 4.24133923591
0.0025 -0.0315 3.32551651102
0.0025 -0.0305 3.36800456319
0.0025 -0.0295 3.43623250637
0.0025 -0.0285 3.51507513174
0.0025 -0.0275 3.59718781228
0.0025 -0.0265 3.68003629798
0.0025 -0.0255 3.76315207246
0.0025 -0.0245 3.84723988512
0.0025 -0.0235 3.93397681744
0.0025 -0.0225 4.02554890258
0.0025 -0.0215 4.12368300448
0.0025 -0.0205 4.22846803088
0.0025 -0.0195 4.33768839412
0.0025 -0.0185 4.44695002932
0.0025 -0.0175 4.55039861687
0.0025 -0.0165 4.64220883769
0.0025 -0.0155 4.71825963341
0.0025 -0.0145 4.77684910559
0.0025 -0.0135 4.8175779146
0.0025 -0.0125 4.84104209268
0.0025 -0.0115 4.84956055272
0.0025 -0.0105 4.84645270436
0.0025 -0.0095 4.83633616314
0.0025 -0.0085 4.82452922117
0.0025 -0.0075 4.81372904723
0.0025 -0.0065 4.80437486885
0.0025 -0.0055 4.79872845494
0.0025 -0.0045 4.81264706868
0.0025 -0.0035 4.90633776631
0.0025 -0.0025 5.08602589877
0.0025 -0.0015 5.26464629797
0.0025 -0.0005 5.37990864806
0.0025 0.0005 5.4108476086
0.0025 0.0015 5.36209451989
0.0025 0.0025 5.26194042473
0.0025 0.0035 5.14908706576
0.0025 0.0045 5.06247884666
0.0025 0.0055 5.01631314569
0.0025 0.0065 4.99594760987
0.0025 0.0075 4.98619190627
0.0025 0.0085 4.98190786696
0.0025 0.0095 4.98335930255
0.0025 0.0105 4.99121675412
0.0025 0.0115 5.00386035146
0.0025 0.0125 5.0170222888
0.0025 0.0135 5.02506929109
0.0025 0.0145 5.02387051743
0.0025 0.0155 5.01312877867
0.0025 0.0165 4.9941432239
0.0025 0.0175 4.96518489409
0.0025 0.0185 4.92560226366
0.0025 0.0195 4.87742926554
0.0025 0.0205 4.82285775117
0.0025 0.0215 4.76469114281
0.0025 0.0225 4.70471001575
0.0025 0.0235 4.64383241992
0.0025 0.0245 4.58248919106
0.0025 0.0255 4.52090630799
0.0025 0.0265 4.45921593389
0.0025 0.0275 4.39756388775
0.0025 0.0285 4.33645462123
0.0025 0.0295 4.27777573821
0.0025 0.0305 4.2270635245
0.0025 0.0315 4.19565982036
0.0035 -0.0315 3.25431383246
0.0035 -0.0305 3.29160511479
0.0035 -0.0295 3.35569288783
0.0035 -0.0285 3.43469923506
0.0035 -0.0275 3.52025025929
0.0035 -0.0265 3.60784967823
0.0035 -0.0255 3.69569480593
0.0035 -0.0245 3.78386198444
0.0035 -0.0235 3.87425575746
0.0035 -0.0225 3.97035730188
0.0035 -0.0215 4.07608888686
0.0035 -0.0205 4.19368119859
0.0035 -0.0195 4.32124514956
0.0035 -0.0185 4.45183613546
0.0035 -0.0175 4.57481507462
0.0035 -0.0165 4.67925001779
0.0035 -0.0155 4.75932734408
0.0035 -0.0145 4.816679159
0.0035 -0.0135 4.85371466705
0.0035 -0.0125 4.87139555166
0.0035 -0.0115 4.87324445303
0.0035 -0.0105 4.86444288865
0.0035 -0.0095 4.85064645036
0.0035 -0.0085 4.83614662481
0.0035 -0.0075 4.82293755743
0.0035 -0.0065 4.81261230736
0.0035 -0.0055 4.81428009669
0.0035 -0.0045 4.86352067517
0.0035 -0.0035 5.009681109
0.0035 -0.0025 5.22394159091
0.0035 -0.0015 5.4212466366
0.0035 -0.0005 5.54998001085
0.0035 0.0005 5.58734103403
0.0035 0.0015 5.53780992645
0.0035 0.0025 5.42811033825
0.0035 0.0035 5.29373696979
0.0035 0.0045 5.16882096322
0.0035 0.0055 5.07227347101
0.0035 0.0065 5.00427029439
0.0035 0.0075 4.95835195499
0.0035 0.0085 4.93089745219
0.0035 0.0095 4.92170661903
0.0035 0.0105 4.9300816681
0.0035 0.0115 4.95170158877
0.0035 0.0125 4.97874685067
0.0035 0.0135 5.00028467914
0.0035 0.0145 5.00579730772
0.0035 0.0155 4.99311296261
0.0035 0.0165 4.9688224083
0.0035 0.0175 4.93843925835
0.0035 0.0185 4.90182608396
0.0035 0.0195 4.85771118381
0.0035 0.0205 4.80581924151
0.0035 0.0215 4.74739226572
0.0035 0.0225 4.68469970367
0.0035 0.0235 4.6195853527
0.0035 0.0245 4.55320654067
0.0035 0.0255 4.48613620865
0.0035 0.0265 4.41865681277
0.0035 0.0275 4.35122034655
0.0035 0.0285 4.28520017895
0.0035 0.0295 4.22404687569
0.0035 0.0305 4.17439744146
0.0035 0.0315 4.14566856349
0.0045 -0.0315 3.17984062908
0.0045 -0.0305 3.21290351421
0.0045 -0.0295 3.27202735854
0.0045 -0.0285 3.34835104762
0.0045 -0.0275 3.43452914985
0.0045 -0.0265 3.52540641344
0.0045 -0.0255 3.61791660559
0.0045 -0.0245 3.71076442525
0.0045 -0.0235 3.80473662044
0.0045 -0.0225 3.90340594375
0.0045 -0.0215 4.0124751862
0.0045 -0.0205 4.13743742906
0.0045 -0.0195 4.27915996606
0.0045 -0.0185 4.4293305955
0.0045 -0.0175 4.57185108622
0.0045 -0.0165 4.6895355284
0.0045 -0.0155 4.77609991282
0.0045 -0.0145 4.83693649586
0.0045 -0.0135 4.87502040846
0.0045 -0.0125 4.89058524032
0.0045 -0.0115 4.88839293727
0.0045 -0.0105 4.87622979917
0.0045 -0.0095 4.86133096968
0.0045 -0.0085 4.84715984191
0.0045 -0.0075 4.83490145889
0.0045 -0.0065 4.83066386649
0.0045 -0.0055 4.85462482916
0.0045 -0.0045 4.94825743216
0.0045 -0.0035 5.13077247409
0.0045 -0.0025 5.35954251311
0.0045 -0.0015 5.56783867322
0.0045 -0.0005 5.70436923635
0.0045 0.0005 5.74416638593
0.0045 0.0015 5.69311072595
0.0045 0.0025 5.57626374364
0.0045 0.0035 5.42349338158
0.0045 0.0045 5.26435723999
0.0045 0.0055 5.12185812707
0.0045 0.0065 5.00830791486
0.0045 0.0075 4.92588138748
0.0045 0.0085 4.87270058659
0.0045 0.0095 4.84698153716
0.0045 0.0105 4.84733599902
0.0045 0.0115 4.87086312031
0.0045 0.0125 4.90858430919
0.0045 0.0135 4.94453227134
0.0045 0.0145 4.96224529936
0.0045 0.0155 4.95449643501
0.0045 0.0165 4.92936758643
0.0045 0.0175 4.89912771086
0.0045 0.0185 4.86560253534
0.0045 0.0195 4.82591700331
0.0045 0.0205 4.77777715958
0.0045 0.0215 4.72036764038
0.0045 0.0225 4.65600459353
0.0045 0.0235 4.58740560149
0.0045 0.0245 4.51649225669
0.0045 0.0255 4.44427450831
0.0045 0.0265 4.37142909332
0.0045 0.0275 4.29911067711
0.0045 0.0285 4.22979846899
0.0045 0.0295 4.16791066181
0.0045 0.0305 4.11985036675
0.0045 0.0315 4.09312004409
0.0055 -0.0315 3.10304895322
0.0055 -0.0305 3.13328277805
0.0055 -0.0295 3.18834041211
0.0055 -0.0285 3.26119136251
0.0055 -0.0275 3.34585898293
0.0055 -0.0265 3.43779979669
0.0055 -0.0255 3.53374664973
0.0055 -0.0245 3.63141236264
0.0055 -0.0235 3.72960340997
0.0055 -0.0225 3.82981033476
0.0055 -0.0215 3.93796455879
0.0055 -0.0205 4.0620742386
0.0055 -0.0195 4.2077689392
0.0055 -0.0185 4.37136400859
0.0055 -0.0175 4.53223504081
0.0055 -0.0165 4.66695304517
0.0055 -0.0155 4.76891566546
0.0055 -0.0145 4.84169085048
0.0055 -0.0135 4.8863513369
0.0055 -0.0125 4.90326731021
0.0055 -0.0115 4.89901260429
0.0055 -0.0105 4.88523221353
0.0055 -0.0095 4.87143196845
0.0055 -0.0085 4.86127044521
0.0055 -0.0075 4.85599587034
0.0055 -0.0065 4.86564291409
0.0055 -0.0055 4.91493906557
0.0055 -0.0045 5.03221902733
0.0055 -0.0035 5.22090280143
0.0055 -0.0025 5.44904746191
0.0055 -0.0015 5.66161244439
0.0055 -0.0005 5.80097842967
0.0055 0.0005 5.83931057183
0.0055 0.0015 5.78678161672
0.0055 0.0025 5.66831556902
0.0055 0.0035 5.50625767868
0.0055 0.0045 5.32526574757
0.0055 0.0055 5.1541900844
0.0055 0.0065 5.01337309316
0.0055 0.0075 4.90884819246
0.0055 0.0085 4.83883399995
0.0055 0.0095 4.79876292176
0.0055 0.0105 4.78490393996
0.0055 0.0115 4.79642354926
0.0055 0.0125 4.82959687189
0.0055 0.0135 4.87014910835
0.0055 0.0145 4.89746208313
0.0055 0.0155 4.89895372581
0.0055 0.0165 4.87940781852
0.0055 0.0175 4.85163284993
0.0055 0.0185 4.82091859559
0.0055 0.0195 4.78478998961
0.0055 0.0205 4.73960572368
0.0055 0.0215 4.68368376078
0.0055 0.0225 4.61876082057
0.0055 0.0235 4.54805482108
0.0055 0.0245 4.47382255905
0.0055 0.0255 4.39739511022
0.0055 0.0265 4.32005604315
0.0055 0.0275 4.24392134059
0.0055 0.0285 4.17246409028
0.0055 0.0295 4.11050337724
0.0055 0.0305 4.0638489287
0.0055 0.0315 4.03855621324
0.0065 -0.0315 3.02427514577
0.0065 -0.0305 3.05317042089
0.0065 -0.0295 3.10586104378
0.0065 -0.0285 3.17587749711
0.0065 -0.0275 3.25801637943
0.0065 -0.0265 3.34869971883
0.0065 -0.0255 3.44557325411
0.0065 -0.0245 3.54666940295
0.0065 -0.0235 3.64970122593
0.0065 -0.0225 3.75281763733
0.0065 -0.0215 3.85813800837
0.0065 -0.0205 3.973274839
0.0065 -0.0195 4.11126747652
0.0065 -0.0185 4.27806859337
0.0065 -0.0175 4.45411578518
0.0065 -0.0165 4.61100955661
0.0065 -0.0155 4.73488240453
0.0065 -0.0145 4.82450573071
0.0065 -0.0135 4.88263958655
0.0065 -0.0125 4.91153012292
0.0065 -0.0115 4.91717426207
0.0065 -0.0105 4.91139892395
0.0065 -0.0095 4.90379448714
0.0065 -0.0085 4.89784661336
0.0065 -0.0075 4.89732291534
0.0065 -0.0065 4.91372627495
0.0065 -0.0055 4.96648028663
0.0065 -0.0045 5.07290398039
0.0065 -0.0035 5.2390336785
0.0065 -0.0025 5.45114318879
0.0065 -0.0015 5.66209092632
0.0065 -0.0005 5.80545524962
0.0065 0.0005 5.84784825813
0.0065 0.0015 5.80299713736
0.0065 0.0025 5.69638589751
0.0065 0.0035 5.54326222273
0.0065 0.0045 5.36118972133
0.0065 0.0055 5.17988085197
0.0065 0.0065 5.02443397782
0.0065 0.0075 4.90565667394
0.0065 0.0085 4.82489882266
0.0065 0.0095 4.77774437481
0.0065 0.0105 4.75556260455
0.0065 0.0115 4.75243839499
0.0065 0.0125 4.76889553084
0.0065 0.0135 4.80024959364
0.0065 0.0145 4.8281712493
0.0065 0.0155 4.83602814695
0.0065 0.0165 4.82321100076
0.0065 0.0175 4.7993347911
0.0065 0.0185 4.77152330273
0.0065 0.0195 4.73739883673
0.0065 0.0205 4.69331852258
0.0065 0.0215 4.63866975679
0.0065 0.0225 4.57435733562
0.0065 0.0235 4.50309876187
0.0065 0.0245 4.42678269176
0.0065 0.0255 4.34693766334
0.0065 0.0265 4.26570261726
0.0065 0.0275 4.18637954434
0.0065 0.0285 4.11337265397
0.0065 0.0295 4.05165717888
0.0065 0.0305 4.00636326123
0.0065 0.0315 3.98231966918
0.0075 -0.0315 2.94341983513
0.0075 -0.0305 2.97244590808
0.0075 -0.0295 3.0248233956
0.0075 -0.0285 3.09356330599
0.0075 -0.0275 3.1733106279
0.0075 -0.0265 3.26091011563
0.0075 -0.0255 3.355315616
0.0075 -0.0245 3.45629337018
0.0075 -0.0235 3.56236639823
0.0075 -0.0225 3.67046541372
0.0075 -0.0215 3.77640931016
0.0075 -0.0205 3.88304829087
0.0075 -0.0195 4.00773407766
0.0075 -0.0185 4.16452374526
0.0075 -0.0175 4.34144541361
0.0075 -0.0165 4.50787485982
0.0075 -0.0155 4.64412919164
0.0075 -0.0145 4.75436062137
0.0075 -0.0135 4.84811815061
0.0075 -0.0125 4.92385762457
0.0075 -0.0115 4.97363760003
0.0075 -0.0105 4.99440199802
0.0075 -0.0095 4.9917560235
0.0075 -0.0085 4.97552311741
0.0075 -0.0075 4.95779573843
0.0075 -0.0065 4.95391626522
0.0075 -0.0055 4.98101702832
0.0075 -0.0045 5.05422361281
0.0075 -0.0035 5.18143030647
0.0075 -0.0025 5.36199923604
0.0075 -0.0015 5.56382640453
0.0075 -0.0005 5.71771485823
0.0075 0.0005 5.78121639886
0.0075 0.0015 5.76213157445
0.0075 0.0025 5.68068511648
0.0075 0.0035 5.54831939521
0.0075 0.0045 5.37782726288
0.0075 0.0055 5.19659575187
0.0075 0.0065 5.0323915801
0.0075 0.0075 4.90193636522
0.0075 0.0085 4.81278675799
0.0075 0.0095 4.76305380484
0.0075 0.0105 4.73983980581
0.0075 0.0115 4.73048285521
0.0075 0.0125 4.73334992979
0.0075 0.0135 4.74927686808
0.0075 0.0145 4.76880789763
0.0075 0.0155 4.77598573367
0.0075 0.0165 4.76585083961
0.0075 0.0175 4.74526569936
0.0075 0.0185 4.71924902389
0.0075 0.0195 4.68546852719
0.0075 0.0205 4.6417544537
0.0075 0.0215 4.58844997119
0.0075 0.0225 4.52578009216
0.0075 0.0235 4.45485749993
0.0075 0.0245 4.37672152936
0.0075 0.0255 4.29329410877
0.0075 0.0265 4.20805350058
0.0075 0.0275 4.12585943987
0.0075 0.0285 4.05194362057
0.0075 0.0295 3.99106805418
0.0075 0.0305 3.94742967089
0.0075 0.0315 3.92466492282
0.0085 -0.0315 2.86002082669
0.0085 -0.0305 2.89036058224
0.0085 -0.0295 2.94440956694
0.0085 -0.0285 3.01394608989
0.0085 -0.0275 3.0925661484
0.0085 -0.0265 3.17659445438
0.0085 -0.0255 3.26548749609
0.0085 -0.0245 3.36145678573
0.0085 -0.0235 3.46584926467
0.0085 -0.0225 3.57813702238
0.0085 -0.0215 3.68989374225
0.0085 -0.0205 3.79650194733
0.0085 -0.0195 3.90969612225
0.0085 -0.0185 4.04450090265
0.0085 -0.0175 4.19864838374
0.0085 -0.0165 4.34989260299
0.0085 -0.0155 4.48841004405
0.0085 -0.0145 4.62906931584
0.0085 -0.0135 4.78907932157
0.0085 -0.0125 4.95822106856
0.0085 -0.0115 5.08926687641
0.0085 -0.0105 5.14335960303
0.0085 -0.0095 5.1270486963
0.0085 -0.0085 5.0718248695
0.0085 -0.0075 5.00874895408
0.0085 -0.0065 4.96333314931
0.0085 -0.0055 4.95754292894
0.0085 -0.0045 5.00212704999
0.0085 -0.0035 5.09464299496
0.0085 -0.0025 5.23512625572
0.0085 -0.0015 5.41210834171
0.0085 -0.0005 5.57192845271
0.0085 0.0005 5.66354565538
0.0085 0.0015 5.67774846622
0.0085 0.0025 5.62407918177
0.0085 0.0035 5.51358894589
0.0085 0.0045 5.36020561279
0.0085 0.0055 5.18838861417
0.0085 0.0065 5.0249917375
0.0085 0.0075 4.89089758685
0.0085 0.0085 4.79867233518
0.0085 0.0095 4.74841322197
0.0085 0.0105 4.72595572057
0.0085 0.0115 4.71555721251
0.0085 0.0125 4.71233038169
0.0085 0.0135 4.71710642135
0.0085 0.0145 4.72580643126
0.0085 0.0155 4.72640929987
0.0085 0.0165 4.71338064024
0.0085 0.0175 4.6921732655
0.0085 0.0185 4.66560643502
0.0085 0.0195 4.63178300979
0.0085 0.0205 4.58944817341
0.0085 0.0215 4.53823335186
0.0085 0.0225 4.47719845822
0.0085 0.0235 4.40557690694
0.0085 0.0245 4.3239621856
0.0085 0.0255 4.23538069454
0.0085 0.0265 4.14566030557
0.0085 0.0275 4.06136621907
0.0085 0.0285 3.9878392277
0.0085 0.0295 3.92883825229
0.0085 0.0305 3.88728373712
0.0085 0.0315 3.86580678091
0.0095 -0.0315 2.77340902873
0.0095 -0.0305 2.80550019836
0.0095 -0.0295 2.86244543333
0.0095 -0.0285 2.9348366759
0.0095 -0.0275 3.01451938202
0.0095 -0.0265 3.09632108413
0.0095 -0.0255 3.17907910453
0.0095 -0.0245 3.26576262901
0.0095 -0.0235 3.3612075741
0.0095 -0.0225 3.47112831578
0.0095 -0.0215 3.58819566197
0.0095 -0.0205 3.69806442715
0.0095 -0.0195 3.8017110855
0.0095 -0.0185 3.9126633439
0.0095 -0.0175 4.03922347936
0.0095 -0.0165 4.17950004024
0.0095 -0.0155 4.33509384115
0.0095 -0.0145 4.51851964251
0.0095 -0.0135 4.75428005879
0.0095 -0.0125 5.02587487128
0.0095 -0.0115 5.23411748127
0.0095 -0.0105 5.30248772726
0.0095 -0.0095 5.25131800422
0.0095 -0.0085 5.14000327001
0.0095 -0.0075 5.02277060472
0.0095 -0.0065 4.94247983878
0.0095 -0.0055 4.92083161264
0.0095 -0.0045 4.95065138749
0.0095 -0.0035 5.01805550983
0.0095 -0.0025 5.12308925254
0.0095 -0.0015 5.26507259752
0.0095 -0.0005 5.41032339071
0.0095 0.0005 5.51260959831
0.0095 0.0015 5.54938880827
0.0095 0.0025 5.51882125491
0.0095 0.0035 5.43068007469
0.0095 0.0045 5.300228191
0.0095 0.0055 5.1480948114
0.0095 0.0065 4.99780942917
0.0095 0.0075 4.8712050128
0.0095 0.0085 4.78269744534
0.0095 0.0095 4.73344753286
0.0095 0.0105 4.71160492681
0.0095 0.0115 4.7020114212
0.0095 0.0125 4.69725895268
0.0095 0.0135 4.6969434595
0.0095 0.0145 4.69857344879
0.0095 0.0155 4.6928314219
0.0095 0.0165 4.67340605258
0.0095 0.0175 4.64660707451
0.0095 0.0185 4.6177471102
0.0095 0.0195 4.58402978509
0.0095 0.0205 4.5425963864
0.0095 0.0215 4.49253799819
0.0095 0.0225 4.43133603768
0.0095 0.0235 4.35566268175
0.0095 0.0245 4.26665133968
0.0095 0.0255 4.17074585347
0.0095 0.0265 4.07703757134
0.0095 0.0275 3.99270214015
0.0095 0.0285 3.92160670735
0.0095 0.0295 3.86558453859
0.0095 0.0305 3.82625596556
0.0095 0.0315 3.80582357511
0.0105 -0.0315 2.68302255194
0.0105 -0.0305 2.71602209361
0.0105 -0.0295 2.77542895983
0.0105 -0.0285 2.85175072104
0.0105 -0.0275 2.93519213808
0.0105 -0.0265 3.01782287114
0.0105 -0.0255 3.09694518432
0.0105 -0.0245 3.17507063129
0.0105 -0.0235 3.25896384121
0.0105 -0.0225 3.35747464258
0.0105 -0.0215 3.46794044529
0.0105 -0.0205 3.57380837488
0.0105 -0.0195 3.6692532708
0.0105 -0.0185 3.76951730469
0.0105 -0.0175 3.89163607649
0.0105 -0.0165 4.04382127267
0.0105 -0.0155 4.23175306004
0.0105 -0.0145 4.4674549859
0.0105 -0.0135 4.77046884128
0.0105 -0.0125 5.09950310627
0.0105 -0.0115 5.33091737439
0.0105 -0.0105 5.38966176298
0.0105 -0.0095 5.30626957226
0.0105 -0.0085 5.15237697469
0.0105 -0.0075 5.00139122418
0.0105 -0.0065 4.90999541017
0.0105 -0.0055 4.88824470111
0.0105 -0.0045 4.90957264143
0.0105 -0.0035 4.95716737699
0.0105 -0.0025 5.03479496253
0.0105 -0.0015 5.14145837533
0.0105 -0.0005 5.25489961872
0.0105 0.0005 5.34436479073
0.0105 0.0015 5.38648549436
0.0105 0.0025 5.37211377786
0.0105 0.0035 5.30637082157
0.0105 0.0045 5.20237034622
0.0105 0.0055 5.07725271809
0.0105 0.0065 4.95048009426
0.0105 0.0075 4.84105495028
0.0105 0.0085 4.76248628486
0.0105 0.0095 4.71726368178
0.0105 0.0105 4.6970720814
0.0105 0.0115 4.68895316682
0.0105 0.0125 4.68453236285
0.0105 0.0135 4.6828740247
0.0105 0.0145 4.6830987101
0.0105 0.0155 4.67731756489
0.0105 0.0165 4.65470349677
0.0105 0.0175 4.61983309919
0.0105 0.0185 4.58472657979
0.0105 0.0195 4.5486813369
0.0105 0.0205 4.50579709094
0.0105 0.0215 4.45341443011
0.0105 0.0225 4.3871119159
0.0105 0.0235 4.3013407166
0.0105 0.0245 4.20056530871
0.0105 0.0255 4.09731810219
0.0105 0.0265 4.002509971
0.0105 0.0275 3.92142176796
0.0105 0.0285 3.85468549933
0.0105 0.0295 3.80201728501
0.0105 0.0305 3.76442291688
0.0105 0.0315 3.74454515462
0.0115 -0.0315 2.58886324774
0.0115 -0.0305 2.62026184342
0.0115 -0.0295 2.67931962591
0.0115 -0.0285 2.75863420843
0.0115 -0.0275 2.84759692813
0.0115 -0.0265 2.93578843992
0.0115 -0.0255 3.01673474288
0.0115 -0.0245 3.09159779483
0.0115 -0.0235 3.16788826771
0.0115 -0.0225 3.2509592479
0.0115 -0.0215 3.341896293
0.0115 -0.0205 3.43437052658
0.0115 -0.0195 3.526683782
0.0115 -0.0185 3.63308922243
0.0115 -0.0175 3.76603152672
0.0115 -0.0165 3.93486694106
0.0115 -0.0155 4.15838206654
0.0115 -0.0145 4.45160049864
0.0115 -0.0135 4.80051159368
0.0115 -0.0125 5.1272589476
0.0115 -0.0115 5.32682584878
0.0115 -0.0105 5.36559800186
0.0115 -0.0095 5.2744856365
0.0115 -0.0085 5.11285150121
0.0115 -0.0075 4.96145241432
0.0115 -0.0065 4.87899041701
0.0115 -0.0055 4.8618517205
0.0115 -0.0045 4.87601256619
0.0115 -0.0035 4.90794465122
0.0115 -0.0025 4.96071611811
0.0115 -0.0015 5.03170506259
0.0115 -0.0005 5.10786672605
0.0115 0.0005 5.17142017676
0.0115 0.0015 5.20486878653
0.0115 0.0025 5.19879290976
0.0115 0.0035 5.15352110811
0.0115 0.0045 5.07721945595
0.0115 0.0055 4.98273204256
0.0115 0.0065 4.88505521093
0.0115 0.0075 4.79896117554
0.0115 0.0085 4.73572468912
0.0115 0.0095 4.69875471784
0.0115 0.0105 4.68238952254
0.0115 0.0115 4.67623608796
0.0115 0.0125 4.67297453144
0.0115 0.0135 4.67236525989
0.0115 0.0145 4.67623492034
0.0115 0.0155 4.67828037599
0.0115 0.0165 4.66211487394
0.0115 0.0175 4.62273880063
0.0115 0.0185 4.57472215067
0.0115 0.0195 4.52776452564
0.0115 0.0205 4.47741900221
0.0115 0.0215 4.41653626832
0.0115 0.0225 4.33809907357
0.0115 0.0235 4.2361232456
0.0115 0.0245 4.12235255191
0.0115 0.0255 4.01640574314
0.0115 0.0265 3.92570918306
0.0115 0.0275 3.85056823234
0.0115 0.0285 3.7884359985
0.0115 0.0295 3.73805305359
0.0115 0.0305 3.70125754719
0.0115 0.0315 3.68156602004
0.0125 -0.0315 2.491480566
0.0125 -0.0305 2.51773854276
0.0125 -0.0295 2.57145176174
0.0125 -0.0285 2.65003997519
0.0125 -0.0275 2.74435926626
0.0125 -0.0265 2.84294066918
0.0125 -0.0255 2.93241030976
0.0125 -0.0245 3.00909208944
0.0125 -0.0235 3.07965694518
0.0125 -0.0225 3.14858675115
0.0125 -0.0215 3.22091904616
0.0125 -0.0205 3.30039065928
0.0125 -0.0195 3.39415467666
0.0125 -0.0185 3.50933140094
0.0125 -0.0175 3.6510918451
0.0125 -0.0165 3.83929723783
0.0125 -0.0155 4.10244949133
0.0125 -0.0145 4.44104091113
0.0125 -0.0135 4.80106015916
0.0125 -0.0125 5.09075536732
0.0125 -0.0115 5.24136521472
0.0125 -0.0105 5.26020872661
0.0125 -0.0095 5.18091137909
0.0125 -0.0085 5.04295497321
0.0125 -0.0075 4.91717721407
0.0125 -0.0065 4.85235571205
0.0125 -0.0055 4.83783712893
0.0125 -0.0045 4.8433710878
0.0125 -0.0035 4.86009672092
0.0125 -0.0025 4.88880258266
0.0125 -0.0015 4.92676184228
0.0125 -0.0005 4.96761099384
0.0125 0.0005 5.00247172904
0.0125 0.0015 5.02130920177
0.0125 0.0025 5.01702787152
0.0125 0.0035 4.98776938638
0.0125 0.0045 4.93712837205
0.0125 0.0055 4.87302249947
0.0125 0.0065 4.80572688572
0.0125 0.0075 4.74577953664
0.0125 0.0085 4.70159895548
0.0125 0.0095 4.67624381737
0.0125 0.0105 4.66598315663
0.0125 0.0115 4.66325527262
0.0125 0.0125 4.66249896853
0.0125 0.0135 4.66461270475
0.0125 0.0145 4.67540686594
0.0125 0.0155 4.69143093409
0.0125 0.0165 4.69100660411
0.0125 0.0175 4.65534869787
0.0125 0.0185 4.59148080016
0.0125 0.0195 4.51964506665
0.0125 0.0205 4.44826155851
0.0125 0.0215 4.36960965536
0.0125 0.0225 4.27162304021
0.0125 0.0235 4.15223287339
0.0125 0.0245 4.03209775147
0.0125 0.0255 3.93228281368
0.0125 0.0265 3.85141842627
0.0125 0.0275 3.78244352704
0.0125 0.0285 3.72240932585
0.0125 0.0295 3.67224374914
0.0125 0.0305 3.63565916394
0.0125 0.0315 3.61638993468
0.0135 -0.0315 2.39192104192
0.0135 -0.0305 2.4101366963
0.0135 -0.0295 2.45346913189
0.0135 -0.0285 2.52543953254
0.0135 -0.0275 2.62157313434
0.0135 -0.0265 2.72985726813
0.0135 -0.0255 2.83129933028
0.0135 -0.0245 2.91409338651
0.0135 -0.0235 2.98146400699
0.0135 -0.0225 3.04227695914
0.0135 -0.0215 3.1053871767
0.0135 -0.0205 3.17949679237
0.0135 -0.0195 3.27325424327
0.0135 -0.0185 3.39124207573
0.0135 -0.0175 3.54574675063
0.0135 -0.0165 3.76330657111
0.0135 -0.0155 4.06068894915
0.0135 -0.0145 4.4150821086
0.0135 -0.0135 4.75687248061
0.0135 -0.0125 5.00452243559
0.0135 -0.0115 5.11699882788
0.0135 -0.0105 5.12053239941
0.0135 -0.0095 5.05694535291
0.0135 -0.0085 4.95749362332
0.0135 -0.0075 4.86941855969
0.0135 -0.0065 4.82337278693
0.0135 -0.0055 4.80801121129
0.0135 -0.0045 4.80286768475
0.0135 -0.0035 4.80330581452
0.0135 -0.0025 4.80896922505
0.0135 -0.0015 4.81847307289
0.0135 -0.0005 4.8299607278
0.0135 0.0005 4.84025510498
0.0135 0.0015 4.8449327416
0.0135 0.0025 4.83969659163
0.0135 0.0035 4.82224329442
0.0135 0.0045 4.793313643
0.0135 0.0055 4.75667039331
0.0135 0.0065 4.71822422317
0.0135 0.0075 4.68452819713
0.0135 0.0085 4.6608092661
0.0135 0.0095 4.64897936167
0.0135 0.0105 4.64681982343
0.0135 0.0115 4.6493723872
0.0135 0.0125 4.65268966421
0.0135 0.0135 4.65884143069
0.0135 0.0145 4.67744220228
0.0135 0.0155 4.70857167144
0.0135 0.0165 4.72618746731
0.0135 0.0175 4.69862929166
0.0135 0.0185 4.61900111455
0.0135 0.0195 4.50960495079
0.0135 0.0205 4.39965709579
0.0135 0.0215 4.29447732045
0.0135 0.0225 4.17919798327
0.0135 0.0235 4.05444665716
0.0135 0.0245 3.9419937208
0.0135 0.0255 3.85426640798
0.0135 0.0265 3.78250453687
0.0135 0.0275 3.71567080966
0.0135 0.0285 3.65386996329
0.0135 0.0295 3.60251457565
0.0135 0.0305 3.56652021776
0.0135 0.0315 3.54873761653
0.0145 -0.0315 2.29264602403
0.0145 -0.0305 2.30194704687
0.0145 -0.0295 2.33320847346
0.0145 -0.0285 2.39402638147
0.0145 -0.0275 2.48369382724
0.0145 -0.0265 2.59302003097
0.0145 -0.0255 2.70234079008
0.0145 -0.0245 2.79381397292
0.0145 -0.0235 2.86663534529
0.0145 -0.0225 2.93095779371
0.0145 -0.0215 2.99695499652
0.0145 -0.0205 3.07145158876
0.0145 -0.0195 3.16139547326
0.0145 -0.0185 3.28249906917
0.0145 -0.0175 3.4573749339
0.0145 -0.0165 3.70443503048
0.0145 -0.0155 4.02007335758
0.0145 -0.0145 4.36525723917
0.0145 -0.0135 4.67435242856
0.0145 -0.0125 4.88545428828
0.0145 -0.0115 4.97469008066
0.0145 -0.0105 4.97014296152
0.0145 -0.0095 4.92091382567
0.0145 -0.0085 4.85990547346
0.0145 -0.0075 4.80931269005
0.0145 -0.0065 4.78022420795
0.0145 -0.0055 4.76307693421
0.0145 -0.0045 4.74747111106
0.0145 -0.0035 4.73176120283
0.0145 -0.0025 4.71655799788
0.0145 -0.0015 4.70320566656
0.0145 -0.0005 4.69261349601
0.0145 0.0005 4.68518946916
0.0145 0.0015 4.67964659463
0.0145 0.0025 4.67378730995
0.0145 0.0035 4.66570537277
0.0145 0.0045 4.65471361066
0.0145 0.0055 4.64170330921
0.0145 0.0065 4.62898210714
0.0145 0.0075 4.61952228393
0.0145 0.0085 4.61565100273
0.0145 0.0095 4.61820587673
0.0145 0.0105 4.62530464722
0.0145 0.0115 4.63373997986
0.0145 0.0125 4.64179192004
0.0145 0.0135 4.6525365835
0.0145 0.0145 4.67670487176
0.0145 0.0155 4.71569303759
0.0145 0.0165 4.74294862782
0.0145 0.0175 4.71968455127
0.0145 0.0185 4.6251748983
0.0145 0.0195 4.47659768377
0.0145 0.0205 4.32000999573
0.0145 0.0215 4.18481329687
0.0145 0.0225 4.06545847824
0.0145 0.0235 3.9554860714
0.0145 0.0245 3.86171898299
0.0145 0.0255 3.78498767025
0.0145 0.0265 3.71599980786
0.0145 0.0275 3.64657688842
0.0145 0.0285 3.58056105857
0.0145 0.0295 3.52791460902
0.0145 0.0305 3.49414367191
0.0145 0.0315 3.47946091952
0.0155 -0.0315 2.19771544297
0.0155 -0.0305 2.20046477551
0.0155 -0.0295 2.22226970869
0.0155 -0.0285 2.27129424561
0.0155 -0.0275 2.34870079348
0.0155 -0.0265 2.44879959665
0.0155 -0.0255 2.55563151047
0.0155 -0.0245 2.65490495591
0.0155 -0.0235 2.74106120645
0.0155 -0.0225 2.81812551372
0.0155 -0.0215 2.89403316647
0.0155 -0.0205 2.97242567704
0.0155 -0.0195 3.06347037739
0.0155 -0.0185 3.19410287626
0.0155 -0.0175 3.38973887433
0.0155 -0.0165 3.65621822536
0.0155 -0.0155 3.97365020898
0.0155 -0.0145 4.29711019292
0.0155 -0.0135 4.57168387201
0.0155 -0.0125 4.75301943308
0.0155 -0.0115 4.82853339314
0.0155 -0.0105 4.82460099926
0.0155 -0.0095 4.789879764
0.0155 -0.0085 4.75694922156
0.0155 -0.0075 4.73321332068
0.0155 -0.0065 4.71604709538
0.0155 -0.0055 4.69741645938
0.0155 -0.0045 4.67332229017
0.0155 -0.0035 4.64373266601
0.0155 -0.0025 4.61163440023
0.0155 -0.0015 4.58163946202
0.0155 -0.0005 4.55645812847
0.0155 0.0005 4.53823787189
0.0155 0.0015 4.52731235308
0.0155 0.0025 4.52286248487
0.0155 0.0035 4.52355984189
0.0155 0.0045 4.52802957255
0.0155 0.0055 4.53523212123
0.0155 0.0065 4.54458935226
0.0155 0.0075 4.55597561975
0.0155 0.0085 4.56948299419
0.0155 0.0095 4.58502278952
0.0155 0.0105 4.6006574626
0.0155 0.0115 4.61447664208
0.0155 0.0125 4.62665647969
0.0155 0.0135 4.6407535192
0.0155 0.0145 4.66526213475
0.0155 0.0155 4.70046174454
0.0155 0.0165 4.72407873842
0.0155 0.0175 4.69790872142
0.0155 0.0185 4.59145948321
0.0155 0.0195 4.41573646192
0.0155 0.0205 4.22431655773
0.0155 0.0215 4.06499886358
0.0155 0.0225 3.94688809147
0.0155 0.0235 3.85592095909
0.0155 0.0245 3.78055113764
0.0155 0.0255 3.7123579799
0.0155 0.0265 3.643158123
0.0155 0.0275 3.57077480571
0.0155 0.0285 3.50294025754
0.0155 0.0295 3.45149253282
0.0155 0.0305 3.42189411605
0.0155 0.0315 3.4113676716
0.0165 -0.0315 2.11262988827
0.0165 -0.0305 2.11345168519
0.0165 -0.0295 2.13229169646
0.0165 -0.0285 2.1738847559
0.0165 -0.0275 2.23822703741
0.0165 -0.0265 2.32196238159
0.0165 -0.0255 2.41927287925
0.0165 -0.0245 2.52176316708
0.0165 -0.0235 2.61723392249
0.0165 -0.0225 2.70483395928
0.0165 -0.0215 2.78978038161
0.0165 -0.0205 2.87642017526
0.0165 -0.0195 2.9798878529
0.0165 -0.0185 3.12794590613
0.0165 -0.0175 3.34104989677
0.0165 -0.0165 3.61540990713
0.0165 -0.0155 3.92308242455
0.0165 -0.0145 4.22127809531
0.0165 -0.0135 4.46650730496