% Model:              Benchmark260518.mph
% Version:            COMSOL 6.2.0.339
% Date:               May 19 2026, 14:34
% Dimension:          2
% Nodes:              4096
% Expressions:        1
% Description:        压力
% Length unit:        m
% x                       y                        p (Pa)
% mirrored_by_python_y_to_minus_y, coord_match_decimals=12
0.0005 -0.0315 4.95613547336
0.0005 -0.0305 4.95502561692
0.0005 -0.0295 4.9534961504
0.0005 -0.0285 4.95154454885
0.0005 -0.0275 4.94813887332
0.0005 -0.0265 4.94148590768
0.0005 -0.0255 4.93313503527
0.0005 -0.0245 4.88184659811
0.0005 -0.0235 4.72527417218
0.0005 -0.0225 4.55167394971
0.0005 -0.0215 4.47676152732
0.0005 -0.0205 4.46650245703
0.0005 -0.0195 4.4707338208
0.0005 -0.0185 4.484821939
0.0005 -0.0175 4.51522916137
0.0005 -0.0165 4.557914213
0.0005 -0.0155 4.59438141205
0.0005 -0.0145 4.61738884127
0.0005 -0.0135 4.63718708437
0.0005 -0.0125 4.65951932936
0.0005 -0.0115 4.67813970797
0.0005 -0.0105 4.68384610855
0.0005 -0.0095 4.67321398193
0.0005 -0.0085 4.65116861324
0.0005 -0.0075 4.62706686412
0.0005 -0.0065 4.60924073667
0.0005 -0.0055 4.60176473808
0.0005 -0.0045 4.60393385069
0.0005 -0.0035 4.61149163136
0.0005 -0.0025 4.61942320346
0.0005 -0.0015 4.62425439337
0.0005 -0.0005 4.62384048121
0.0005 0.0005 4.61568913289
0.0005 0.0015 4.59563765171
0.0005 0.0025 4.55955938221
0.0005 0.0035 4.50940468754
0.0005 0.0045 4.4507258006
0.0005 0.0055 4.38805415973
0.0005 0.0065 4.32579282709
0.0005 0.0075 4.26593968575
0.0005 0.0085 4.20805010795
0.0005 0.0095 4.15139770149
0.0005 0.0105 4.09557150292
0.0005 0.0115 4.04028755219
0.0005 0.0125 3.98538305481
0.0005 0.0135 3.93077093826
0.0005 0.0145 3.87639541909
0.0005 0.0155 3.82221539275
0.0005 0.0165 3.76820398266
0.0005 0.0175 3.71436161645
0.0005 0.0185 3.66072575114
0.0005 0.0195 3.60738035447
0.0005 0.0205 3.55444871851
0.0005 0.0215 3.5020708457
0.0005 0.0225 3.45038385164
0.0005 0.0235 3.39949479657
0.0005 0.0245 3.34947727572
0.0005 0.0255 3.30038895186
0.0005 0.0265 3.25230603759
0.0005 0.0275 3.20536597315
0.0005 0.0285 3.15987084789
0.0005 0.0295 3.11635073551
0.0005 0.0305 3.07633993061
0.0005 0.0315 3.04691525877
0.0015 -0.0315 4.9575145416
0.0015 -0.0305 4.95654331252
0.0015 -0.0295 4.95528511695
0.0015 -0.0285 4.95378963269
0.0015 -0.0275 4.95149388568
0.0015 -0.0265 4.94780844787
0.0015 -0.0255 4.94591632912
0.0015 -0.0245 4.9032749763
0.0015 -0.0235 4.74846367231
0.0015 -0.0225 4.54438728526
0.0015 -0.0215 4.45822605714
0.0015 -0.0205 4.46598820763
0.0015 -0.0195 4.47106259838
0.0015 -0.0185 4.48303776185
0.0015 -0.0175 4.51084521572
0.0015 -0.0165 4.55246862283
0.0015 -0.0155 4.58869026166
0.0015 -0.0145 4.61156144628
0.0015 -0.0135 4.63056686571
0.0015 -0.0125 4.65055366061
0.0015 -0.0115 4.66517935756
0.0015 -0.0105 4.66595582141
0.0015 -0.0095 4.65176049594
0.0015 -0.0085 4.62894013537
0.0015 -0.0075 4.60647988078
0.0015 -0.0065 4.59170256999
0.0015 -0.0055 4.58788362334
0.0015 -0.0045 4.59408429325
0.0015 -0.0035 4.60607628089
0.0015 -0.0025 4.61812487631
0.0015 -0.0015 4.62547837749
0.0015 -0.0005 4.62522400896
0.0015 0.0005 4.61502491443
0.0015 0.0015 4.59201023089
0.0015 0.0025 4.55184744525
0.0015 0.0035 4.4971339717
0.0015 0.0045 4.4358347865
0.0015 0.0055 4.37329908496
0.0015 0.0065 4.31302749757
0.0015 0.0075 4.25549666667
0.0015 0.0085 4.19974160974
0.0015 0.0095 4.14475129372
0.0015 0.0105 4.08993047753
0.0015 0.0115 4.03506560415
0.0015 0.0125 3.98011421994
0.0015 0.0135 3.92509294193
0.0015 0.0145 3.87002722501
0.0015 0.0155 3.81492751493
0.0015 0.0165 3.75979863296
0.0015 0.0175 3.70467945709
0.0015 0.0185 3.64968557843
0.0015 0.0195 3.59501406058
0.0015 0.0205 3.5408999763
0.0015 0.0215 3.48755137271
0.0015 0.0225 3.4350918846
0.0015 0.0235 3.38353655065
0.0015 0.0245 3.33280888957
0.0015 0.0255 3.28278770649
0.0015 0.0265 3.23336775355
0.0015 0.0275 3.18452550774
0.0015 0.0285 3.13639881052
0.0015 0.0295 3.08959417851
0.0015 0.0305 3.04673591703
0.0015 0.0315 3.01724364627
0.0025 -0.0315 4.95959082266
0.0025 -0.0305 4.95916857252
0.0025 -0.0295 4.95876178071
0.0025 -0.0285 4.95858571004
0.0025 -0.0275 4.95853488749
0.0025 -0.0265 4.95824772127
0.0025 -0.0255 4.96056243306
0.0025 -0.0245 4.93314946435
0.0025 -0.0235 4.81025484548
0.0025 -0.0225 4.61036838901
0.0025 -0.0215 4.48638876513
0.0025 -0.0205 4.47042386058
0.0025 -0.0195 4.47432743218
0.0025 -0.0185 4.48441739033
0.0025 -0.0175 4.5074306832
0.0025 -0.0165 4.54312975991
0.0025 -0.0155 4.57754962342
0.0025 -0.0145 4.60134193327
0.0025 -0.0135 4.61814865484
0.0025 -0.0125 4.63076931198
0.0025 -0.0115 4.63475440045
0.0025 -0.0105 4.62553725901
0.0025 -0.0095 4.60540670918
0.0025 -0.0085 4.58163930854
0.0025 -0.0075 4.56162698342
0.0025 -0.0065 4.55025990963
0.0025 -0.0055 4.549714451
0.0025 -0.0045 4.55959672043
0.0025 -0.0035 4.57709630937
0.0025 -0.0025 4.59725480713
0.0025 -0.0015 4.61306070428
0.0025 -0.0005 4.61617836417
0.0025 0.0005 4.60139247959
0.0025 0.0015 4.56916886492
0.0025 0.0025 4.52135051648
0.0025 0.0035 4.46340699096
0.0025 0.0045 4.40297629074
0.0025 0.0055 4.34456064869
0.0025 0.0065 4.28964847536
0.0025 0.0075 4.23708811656
0.0025 0.0085 4.18526348924
0.0025 0.0095 4.1329869598
0.0025 0.0105 4.07972613507
0.0025 0.0115 4.02539480842
0.0025 0.0125 3.97011897886
0.0025 0.0135 3.91409173223
0.0025 0.0145 3.85747899861
0.0025 0.0155 3.8003809705
0.0025 0.0165 3.74288264592
0.0025 0.0175 3.68516220359
0.0025 0.0185 3.62755190302
0.0025 0.0195 3.57049014011
0.0025 0.0205 3.51439462281
0.0025 0.0215 3.45952758717
0.0025 0.0225 3.40591670325
0.0025 0.0235 3.35336085403
0.0025 0.0245 3.30150938995
0.0025 0.0255 3.24997944163
0.0025 0.0265 3.19847439336
0.0025 0.0275 3.14690256692
0.0025 0.0285 3.09561690526
0.0025 0.0295 3.04619374725
0.0025 0.0305 3.00328225665
0.0025 0.0315 2.97647105127
0.0035 -0.0315 4.9620287313
0.0035 -0.0305 4.9626229589
0.0035 -0.0295 4.96372196902
0.0035 -0.0285 4.96531998708
0.0035 -0.0275 4.96742651678
0.0035 -0.0265 4.96974657897
0.0035 -0.0255 4.97353960184
0.0035 -0.0245 4.96010531768
0.0035 -0.0235 4.87298984027
0.0035 -0.0225 4.69931088187
0.0035 -0.0215 4.54336475101
0.0035 -0.0205 4.48325356517
0.0035 -0.0195 4.47703527414
0.0035 -0.0185 4.48306888023
0.0035 -0.0175 4.50152658148
0.0035 -0.0165 4.53217481883
0.0035 -0.0155 4.56503143948
0.0035 -0.0145 4.58887694887
0.0035 -0.0135 4.6011449797
0.0035 -0.0125 4.60258092012
0.0035 -0.0115 4.59194772529
0.0035 -0.0105 4.57174473296
0.0035 -0.0095 4.54781919341
0.0035 -0.0085 4.52546785659
0.0035 -0.0075 4.50836242629
0.0035 -0.0065 4.49856276762
0.0035 -0.0055 4.49746281872
0.0035 -0.0045 4.50631707416
0.0035 -0.0035 4.52499822589
0.0035 -0.0025 4.5498331039
0.0035 -0.0015 4.57235739537
0.0035 -0.0005 4.57985994334
0.0035 0.0005 4.56199862767
0.0035 0.0015 4.52058470883
0.0035 0.0025 4.46640415421
0.0035 0.0035 4.40960105072
0.0035 0.0045 4.35602517294
0.0035 0.0055 4.30672932964
0.0035 0.0065 4.26028124153
0.0035 0.0075 4.21453469853
0.0035 0.0085 4.16752177465
0.0035 0.0095 4.11831610353
0.0035 0.0105 4.06665457863
0.0035 0.0115 4.01261039971
0.0035 0.0125 3.956489605
0.0035 0.0135 3.8986771859
0.0035 0.0145 3.83947385225
0.0035 0.0155 3.7790933281
0.0035 0.0165 3.71783270382
0.0035 0.0175 3.65622768465
0.0035 0.0185 3.5950278798
0.0035 0.0195 3.53500993781
0.0035 0.0205 3.47673858444
0.0035 0.0215 3.4203936972
0.0035 0.0225 3.36573295452
0.0035 0.0235 3.31219774302
0.0035 0.0245 3.25910966395
0.0035 0.0255 3.20588215378
0.0035 0.0265 3.152206399
0.0035 0.0275 3.09826437549
0.0035 0.0285 3.04515760986
0.0035 0.0295 2.99572370785
0.0035 0.0305 2.95535565744
0.0035 0.0315 2.93172778845
0.0045 -0.0315 4.96448770374
0.0045 -0.0305 4.96647844908
0.0045 -0.0295 4.96947830181
0.0045 -0.0285 4.97270567321
0.0045 -0.0275 4.975962143
0.0045 -0.0265 4.97917057493
0.0045 -0.0255 4.98176356826
0.0045 -0.0245 4.97838875307
0.0045 -0.0235 4.93086307248
0.0045 -0.0225 4.80931299566
0.0045 -0.0215 4.65230921916
0.0045 -0.0205 4.54048601981
0.0045 -0.0195 4.49741736026
0.0045 -0.0185 4.48938173158
0.0045 -0.0175 4.50275555133
0.0045 -0.0165 4.5314932331
0.0045 -0.0155 4.56366463792
0.0045 -0.0145 4.58500139022
0.0045 -0.0135 4.58803327222
0.0045 -0.0125 4.57513176405
0.0045 -0.0115 4.55280866392
0.0045 -0.0105 4.52765269299
0.0045 -0.0095 4.50470946231
0.0045 -0.0085 4.48596943512
0.0045 -0.0075 4.47143138124
0.0045 -0.0065 4.46100651582
0.0045 -0.0055 4.45548276592
0.0045 -0.0045 4.45709239071
0.0045 -0.0035 4.46836586442
0.0045 -0.0025 4.48837439057
0.0045 -0.0015 4.50920258079
0.0045 -0.0005 4.5162812587
0.0045 0.0005 4.49667992484
0.0045 0.0015 4.45300729998
0.0045 0.0025 4.39968696712
0.0045 0.0035 4.3486870042
0.0045 0.0045 4.30517616334
0.0045 0.0055 4.26712166109
0.0045 0.0065 4.23014688151
0.0045 0.0075 4.19131410449
0.0045 0.0085 4.14899232933
0.0045 0.0095 4.1026768246
0.0045 0.0105 4.05225868852
0.0045 0.0115 3.99800110896
0.0045 0.0125 3.94038698907
0.0045 0.0135 3.87985069679
0.0045 0.0145 3.8167110203
0.0045 0.0155 3.75141442641
0.0045 0.0165 3.6848247718
0.0045 0.0175 3.61819925624
0.0045 0.0185 3.55290304369
0.0045 0.0195 3.49002175909
0.0045 0.0205 3.43005900451
0.0045 0.0215 3.37282692849
0.0045 0.0225 3.31757274967
0.0045 0.0235 3.26327765727
0.0045 0.0245 3.20899834384
0.0045 0.0255 3.15414725509
0.0045 0.0265 3.09870450874
0.0045 0.0275 3.0434556314
0.0045 0.0285 2.99034475962
0.0045 0.0295 2.94279863199
0.0045 0.0305 2.90569809881
0.0045 0.0315 2.8848525715
0.0055 -0.0315 4.96646031207
0.0055 -0.0305 4.9700508509
0.0055 -0.0295 4.97505100597
0.0055 -0.0285 4.97972814779
0.0055 -0.0275 4.98359558997
0.0055 -0.0265 4.98680530624
0.0055 -0.0255 4.98843384754
0.0055 -0.0245 4.99125554215
0.0055 -0.0235 4.97560160083
0.0055 -0.0225 4.91121263722
0.0055 -0.0215 4.80483528399
0.0055 -0.0205 4.69354126748
0.0055 -0.0195 4.61533027543
0.0055 -0.0185 4.57905156211
0.0055 -0.0175 4.57461518087
0.0055 -0.0165 4.59030243746
0.0055 -0.0155 4.60720695708
0.0055 -0.0145 4.60839766324
0.0055 -0.0135 4.59048787704
0.0055 -0.0125 4.56249841947
0.0055 -0.0115 4.53438815948
0.0055 -0.0105 4.50969717146
0.0055 -0.0095 4.48902610949
0.0055 -0.0085 4.47205928227
0.0055 -0.0075 4.45784711994
0.0055 -0.0065 4.44555862275
0.0055 -0.0055 4.43525415394
0.0055 -0.0045 4.42819463057
0.0055 -0.0035 4.42706790422
0.0055 -0.0025 4.43391633005
0.0055 -0.0015 4.44465672435
0.0055 -0.0005 4.44594715933
0.0055 0.0005 4.42462388059
0.0055 0.0015 4.38380113169
0.0055 0.0025 4.33768717477
0.0055 0.0035 4.2959396639
0.0055 0.0045 4.26178604441
0.0055 0.0055 4.23259869965
0.0055 0.0065 4.20317283222
0.0055 0.0075 4.17015927152
0.0055 0.0085 4.13180092816
0.0055 0.0095 4.08756605252
0.0055 0.0105 4.03770995034
0.0055 0.0115 3.98272441343
0.0055 0.0125 3.92298722409
0.0055 0.0135 3.85849455496
0.0055 0.0145 3.78947587678
0.0055 0.0155 3.71712960398
0.0055 0.0165 3.64354873834
0.0055 0.0175 3.57116168947
0.0055 0.0185 3.50200068649
0.0055 0.0195 3.43718197017
0.0055 0.0205 3.37669224397
0.0055 0.0215 3.31955149724
0.0055 0.0225 3.26427302753
0.0055 0.0235 3.2094073572
0.0055 0.0245 3.15397014287
0.0055 0.0255 3.09768510436
0.0055 0.0265 3.04110167087
0.0055 0.0275 2.9856834263
0.0055 0.0285 2.93386660215
0.0055 0.0295 2.88898091545
0.0055 0.0305 2.85506472508
0.0055 0.0315 2.83650571337
0.0065 -0.0315 4.96738866831
0.0065 -0.0305 4.97277178848
0.0065 -0.0295 4.98001553557
0.0065 -0.0285 4.98640558534
0.0065 -0.0275 4.99109822698
0.0065 -0.0265 4.99460448893
0.0065 -0.0255 4.99725857164
0.0065 -0.0245 5.0015318332
0.0065 -0.0235 5.00113974357
0.0065 -0.0225 4.98549369195
0.0065 -0.0215 4.95770979172
0.0065 -0.0205 4.91538492537
0.0065 -0.0195 4.86101621304
0.0065 -0.0185 4.80959274521
0.0065 -0.0175 4.76811683105
0.0065 -0.0165 4.73583596202
0.0065 -0.0155 4.70289494237
0.0065 -0.0145 4.66054254965
0.0065 -0.0135 4.61322042212
0.0065 -0.0125 4.57113833448
0.0065 -0.0115 4.53821131469
0.0065 -0.0105 4.51246162308
0.0065 -0.0095 4.49113878659
0.0065 -0.0085 4.47261296126
0.0065 -0.0075 4.456108959
0.0065 -0.0065 4.44097200903
0.0065 -0.0055 4.42693861259
0.0065 -0.0045 4.41438232701
0.0065 -0.0035 4.40451897022
0.0065 -0.0025 4.39884462387
0.0065 -0.0015 4.39628380432
0.0065 -0.0005 4.38898427989
0.0065 0.0005 4.36602239348
0.0065 0.0015 4.32844653613
0.0065 0.0025 4.28963395947
0.0065 0.0035 4.25709431673
0.0065 0.0045 4.23011421178
0.0065 0.0055 4.20609009701
0.0065 0.0065 4.18136365665
0.0065 0.0075 4.15284231648
0.0065 0.0085 4.11748215606
0.0065 0.0095 4.07393017436
0.0065 0.0105 4.02365793423
0.0065 0.0115 3.96776656286
0.0065 0.0125 3.90524058299
0.0065 0.0135 3.83485878183
0.0065 0.0145 3.75726122155
0.0065 0.0155 3.67535207434
0.0065 0.0165 3.59341197928
0.0065 0.0175 3.5153759549
0.0065 0.0185 3.44367586757
0.0065 0.0195 3.37877479583
0.0065 0.0205 3.31940921047
0.0065 0.0215 3.26336306017
0.0065 0.0225 3.2083773134
0.0065 0.0235 3.15284066106
0.0065 0.0245 3.09611583675
0.0065 0.0255 3.03856571702
0.0065 0.0265 2.98142900677
0.0065 0.0275 2.92666675732
0.0065 0.0285 2.87679907801
0.0065 0.0295 2.83473987492
0.0065 0.0305 2.80371091674
0.0065 0.0315 2.78705053164
0.0075 -0.0315 4.96681782374
0.0075 -0.0305 4.97424488596
0.0075 -0.0295 4.98431062018
0.0075 -0.0285 4.99314321541
0.0075 -0.0275 4.9992782199
0.0075 -0.0265 5.00334277392
0.0075 -0.0255 5.00655211627
0.0075 -0.0245 5.00851116611
0.0075 -0.0235 5.01107407245
0.0075 -0.0225 5.0259448248
0.0075 -0.0215 5.07005687855
0.0075 -0.0205 5.1235117854
0.0075 -0.0195 5.14157537376
0.0075 -0.0185 5.10365265902
0.0075 -0.0175 5.01819746131
0.0075 -0.0165 4.9135043159
0.0075 -0.0155 4.81363275585
0.0075 -0.0145 4.72512270226
0.0075 -0.0135 4.65036807985
0.0075 -0.0125 4.59380128949
0.0075 -0.0115 4.55358062592
0.0075 -0.0105 4.5239413578
0.0075 -0.0095 4.49934364388
0.0075 -0.0085 4.47703733588
0.0075 -0.0075 4.45650506702
0.0075 -0.0065 4.43743690373
0.0075 -0.0055 4.41964837514
0.0075 -0.0045 4.40353619903
0.0075 -0.0035 4.3893979944
0.0075 -0.0025 4.37702729834
0.0075 -0.0015 4.36539684846
0.0075 -0.0005 4.35068164584
0.0075 0.0005 4.32636975629
0.0075 0.0015 4.29180020689
0.0075 0.0025 4.257050265
0.0075 0.0035 4.22943328276
0.0075 0.0045 4.20695520174
0.0075 0.0055 4.18651159321
0.0075 0.0065 4.16555756263
0.0075 0.0075 4.14049571567
0.0075 0.0085 4.10673382613
0.0075 0.0095 4.06222818512
0.0075 0.0105 4.00991968084
0.0075 0.0115 3.95229283432
0.0075 0.0125 3.88616167085
0.0075 0.0135 3.80759373613
0.0075 0.0145 3.71836870917
0.0075 0.0155 3.62476340842
0.0075 0.0165 3.5341501557
0.0075 0.0175 3.45205996573
0.0075 0.0185 3.38048331143
0.0075 0.0195 3.3180222135
0.0075 0.0205 3.26134433368
0.0075 0.0215 3.20683166407
0.0075 0.0225 3.1518001359
0.0075 0.0235 3.09502422918
0.0075 0.0245 3.03668388025
0.0075 0.0255 2.97798788447
0.0075 0.0265 2.92077019234
0.0075 0.0275 2.86719214566
0.0075 0.0285 2.81956096895
0.0075 0.0295 2.78026005891
0.0075 0.0305 2.75180067315
0.0075 0.0315 2.73673987527
0.0085 -0.0315 4.96440602813
0.0085 -0.0305 4.97412112748
0.0085 -0.0295 4.98774291087
0.0085 -0.0285 5.00008167703
0.0085 -0.0275 5.00868630675
0.0085 -0.0265 5.01365184021
0.0085 -0.0255 5.01622802328
0.0085 -0.0245 5.01607666773
0.0085 -0.0235 5.01651342756
0.0085 -0.0225 5.04193606528
0.0085 -0.0215 5.13086791002
0.0085 -0.0205 5.26060732103
0.0085 -0.0195 5.34729130859
0.0085 -0.0185 5.33098666628
0.0085 -0.0175 5.21258121889
0.0085 -0.0165 5.04991271003
0.0085 -0.0155 4.90275251354
0.0085 -0.0145 4.78696752696
0.0085 -0.0135 4.6949980515
0.0085 -0.0125 4.62452820582
0.0085 -0.0115 4.57445023878
0.0085 -0.0105 4.5384272235
0.0085 -0.0095 4.50884792422
0.0085 -0.0085 4.48156331532
0.0085 -0.0075 4.45583455451
0.0085 -0.0065 4.43181566108
0.0085 -0.0055 4.4099227981
0.0085 -0.0045 4.39068588465
0.0085 -0.0035 4.37386928836
0.0085 -0.0025 4.35819669611
0.0085 -0.0015 4.3422129033
0.0085 -0.0005 4.32372866045
0.0085 0.0005 4.29959396421
0.0085 0.0015 4.26910416207
0.0085 0.0025 4.23772917445
0.0085 0.0035 4.21171602023
0.0085 0.0045 4.19118338493
0.0085 0.0055 4.17334651489
0.0085 0.0065 4.15556757154
0.0085 0.0075 4.13320367396
0.0085 0.0085 4.10002006599
0.0085 0.0095 4.05337604508
0.0085 0.0105 3.99682556069
0.0085 0.0115 3.93412669113
0.0085 0.0125 3.86158720052
0.0085 0.0135 3.77277149143
0.0085 0.0145 3.67012613601
0.0085 0.0155 3.56446212678
0.0085 0.0165 3.46713918878
0.0085 0.0175 3.38463731501
0.0085 0.0185 3.31675690307
0.0085 0.0195 3.25893307163
0.0085 0.0205 3.20542498538
0.0085 0.0215 3.15168458828
0.0085 0.0225 3.09538165083
0.0085 0.0235 3.03640418544
0.0085 0.0245 2.97610303857
0.0085 0.0255 2.91648067034
0.0085 0.0265 2.85966900532
0.0085 0.0275 2.80769161242
0.0085 0.0285 2.76243208608
0.0085 0.0295 2.7257216299
0.0085 0.0305 2.69949528725
0.0085 0.0315 2.68575527114
0.0095 -0.0315 4.95984663641
0.0095 -0.0305 4.97203077959
0.0095 -0.0295 4.98977208605
0.0095 -0.0285 5.00659526385
0.0095 -0.0275 5.01883186214
0.0095 -0.0265 5.0256906403
0.0095 -0.0255 5.02851838746
0.0095 -0.0245 5.0279462062
0.0095 -0.0235 5.0260270757
0.0095 -0.0225 5.05179272642
0.0095 -0.0215 5.15261812649
0.0095 -0.0205 5.30739865679
0.0095 -0.0195 5.42200586307
0.0095 -0.0185 5.42230095389
0.0095 -0.0175 5.30512800322
0.0095 -0.0165 5.13204015993
0.0095 -0.0155 4.97017037646
0.0095 -0.0145 4.84302712158
0.0095 -0.0135 4.74222041364
0.0095 -0.0125 4.6609189108
0.0095 -0.0115 4.59921537857
0.0095 -0.0105 4.55329395528
0.0095 -0.0095 4.51604499916
0.0095 -0.0085 4.4825068227
0.0095 -0.0075 4.45124680004
0.0095 -0.0065 4.42243420001
0.0095 -0.0055 4.39690265655
0.0095 -0.0045 4.37500262812
0.0095 -0.0035 4.35586812116
0.0095 -0.0025 4.33779540195
0.0095 -0.0015 4.31935830107
0.0095 -0.0005 4.2993986574
0.0095 0.0005 4.2767885209
0.0095 0.0015 4.2518272971
0.0095 0.0025 4.22713783672
0.0095 0.0035 4.20508249197
0.0095 0.0045 4.18645500358
0.0095 0.0055 4.17009076735
0.0095 0.0065 4.1533080003
0.0095 0.0075 4.13145759125
0.0095 0.0085 4.09728119404
0.0095 0.0095 4.0467943119
0.0095 0.0105 3.98308109736
0.0095 0.0115 3.91008071888
0.0095 0.0125 3.8257425936
0.0095 0.0135 3.72490499405
0.0095 0.0145 3.60986289215
0.0095 0.0155 3.49536556567
0.0095 0.0165 3.39688162223
0.0095 0.0175 3.31925470784
0.0095 0.0185 3.25795929667
0.0095 0.0195 3.20501071501
0.0095 0.0205 3.15319198906
0.0095 0.0215 3.09800803373
0.0095 0.0225 3.03857690705
0.0095 0.0235 2.97649683921
0.0095 0.0245 2.91426787996
0.0095 0.0255 2.85430440073
0.0095 0.0265 2.79857014694
0.0095 0.0275 2.74861245475
0.0095 0.0285 2.70576526298
0.0095 0.0295 2.67136707898
0.0095 0.0305 2.64695566622
0.0095 0.0315 2.63422090535
0.0105 -0.0315 4.95282789802
0.0105 -0.0305 4.96747296524
0.0105 -0.0295 4.98939177009
0.0105 -0.0285 5.01097087141
0.0105 -0.0275 5.02751030936
0.0105 -0.0265 5.03761054959
0.0105 -0.0255 5.04287167107
0.0105 -0.0245 5.04436950025
0.0105 -0.0235 5.04331715598
0.0105 -0.0225 5.06513395349
0.0105 -0.0215 5.14722464134
0.0105 -0.0205 5.27405556893
0.0105 -0.0195 5.37520445016
0.0105 -0.0185 5.39261797143
0.0105 -0.0175 5.31455175948
0.0105 -0.0165 5.17372664503
0.0105 -0.0155 5.02258913414
0.0105 -0.0145 4.89186749393
0.0105 -0.0135 4.78359384864
0.0105 -0.0125 4.69368932664
0.0105 -0.0115 4.6210701435
0.0105 -0.0105 4.56327329732
0.0105 -0.0095 4.51607078973
0.0105 -0.0085 4.47540931395
0.0105 -0.0075 4.43922154669
0.0105 -0.0065 4.40706580747
0.0105 -0.0055 4.37923592807
0.0105 -0.0045 4.35557443348
0.0105 -0.0035 4.33478452152
0.0105 -0.0025 4.31498111777
0.0105 -0.0015 4.29484467908
0.0105 -0.0005 4.27414317262
0.0105 0.0005 4.25332252493
0.0105 0.0015 4.23389928604
0.0105 0.0025 4.21855803212
0.0105 0.0035 4.2072530256
0.0105 0.0045 4.19701863007
0.0105 0.0055 4.18508612494
0.0105 0.0065 4.16815331493
0.0105 0.0075 4.14114774398
0.0105 0.0085 4.09767972061
0.0105 0.0095 4.03569723237
0.0105 0.0105 3.959740249
0.0105 0.0115 3.87336376096
0.0105 0.0125 3.77441617268
0.0105 0.0135 3.66040082637
0.0105 0.0145 3.53679851725
0.0105 0.0155 3.42095888527
0.0105 0.0165 3.32872369524
0.0105 0.0175 3.26080954529
0.0105 0.0185 3.20714162024
0.0105 0.0195 3.15690108992
0.0105 0.0205 3.10332995246
0.0105 0.0215 3.04372287516
0.0105 0.0225 2.97960280261
0.0105 0.0235 2.91432586734
0.0105 0.0245 2.85104186251
0.0105 0.0255 2.79188448626
0.0105 0.0265 2.7381139449
0.0105 0.0275 2.69056055438
0.0105 0.0285 2.65001200051
0.0105 0.0295 2.61747072337
0.0105 0.0305 2.59431406657
0.0105 0.0315 2.58219180739
0.0115 -0.0315 4.94302633952
0.0115 -0.0305 4.95982173647
0.0115 -0.0295 4.98536529273
0.0115 -0.0285 5.01109827452
0.0115 -0.0275 5.03167970357
0.0115 -0.0265 5.04557432013
0.0115 -0.0255 5.05488940521
0.0115 -0.0245 5.06052681974
0.0115 -0.0235 5.06122574927
0.0115 -0.0225 5.07259410194
0.0115 -0.0215 5.11787264623
0.0115 -0.0205 5.19253511983
0.0115 -0.0195 5.26386951725
0.0115 -0.0185 5.29642388495
0.0115 -0.0175 5.26389568064
0.0115 -0.0165 5.16918477258
0.0115 -0.0155 5.0455734301
0.0115 -0.0145 4.92174924304
0.0115 -0.0135 4.80959723903
0.0115 -0.0125 4.712104531
0.0115 -0.0115 4.62968792608
0.0115 -0.0105 4.56104767969
0.0115 -0.0095 4.50411492634
0.0115 -0.0085 4.45655741288
0.0115 -0.0075 4.41645095414
0.0115 -0.0065 4.38266039253
0.0115 -0.0055 4.3543988992
0.0115 -0.0045 4.3306031782
0.0115 -0.0035 4.30958281406
0.0115 -0.0025 4.28935742475
0.0115 -0.0015 4.26879157252
0.0115 -0.0005 4.24832459346
0.0115 0.0005 4.22957665314
0.0115 0.0015 4.21467288431
0.0115 0.0025 4.20733257259
0.0115 0.0035 4.21007897859
0.0115 0.0045 4.21740361502
0.0115 0.0055 4.21998206174
0.0115 0.0065 4.20821442095
0.0115 0.0075 4.17115459684
0.0115 0.0085 4.10369313714
0.0115 0.0095 4.01446534975
0.0115 0.0105 3.91691934778
0.0115 0.0115 3.81509600861
0.0115 0.0125 3.70439076385
0.0115 0.0135 3.58245807515
0.0115 0.0145 3.4589186879
0.0115 0.0155 3.35139528042
0.0115 0.0165 3.27056272128
0.0115 0.0175 3.21203261299
0.0115 0.0185 3.16261085905
0.0115 0.0195 3.11052852389
0.0115 0.0205 3.05109472787
0.0115 0.0215 2.98504345526
0.0115 0.0225 2.9161923269
0.0115 0.0235 2.84918052744
0.0115 0.0245 2.78680721174
0.0115 0.0255 2.73008758314
0.0115 0.0265 2.67920573108
0.0115 0.0275 2.63424994228
0.0115 0.0285 2.59562705255
0.0115 0.0295 2.564254971
0.0115 0.0305 2.54162877387
0.0115 0.0315 2.52964468964
0.0125 -0.0315 4.9301288103
0.0125 -0.0305 4.94847636757
0.0125 -0.0295 4.9765625691
0.0125 -0.0285 5.0051441385
0.0125 -0.0275 5.0285344347
0.0125 -0.0265 5.04525773168
0.0125 -0.0255 5.05782604704
0.0125 -0.0245 5.06603648621
0.0125 -0.0235 5.06462075299
0.0125 -0.0225 5.06058260139
0.0125 -0.0215 5.07190792845
0.0125 -0.0205 5.10470901254
0.0125 -0.0195 5.14910919631
0.0125 -0.0185 5.18248525321
0.0125 -0.0175 5.17689310624
0.0125 -0.0165 5.12209557904
0.0125 -0.0155 5.03033788348
0.0125 -0.0145 4.92126674342
0.0125 -0.0135 4.81111896177
0.0125 -0.0125 4.70871743164
0.0125 -0.0115 4.61787591814
0.0125 -0.0105 4.54001676583
0.0125 -0.0095 4.47509569822
0.0125 -0.0085 4.42219813663
0.0125 -0.0075 4.37986110166
0.0125 -0.0065 4.34633795912
0.0125 -0.0055 4.3197362257
0.0125 -0.0045 4.29799060645
0.0125 -0.0035 4.27891300339
0.0125 -0.0025 4.26046451839
0.0125 -0.0015 4.2415930118
0.0125 -0.0005 4.2233661978
0.0125 0.0005 4.20756926311
0.0125 0.0015 4.1959949802
0.0125 0.0025 4.19337611172
0.0125 0.0035 4.20654422845
0.0125 0.0045 4.23288402326
0.0125 0.0055 4.25718538296
0.0125 0.0065 4.25850576716
0.0125 0.0075 4.21515228299
0.0125 0.0085 4.1202922129
0.0125 0.0095 3.99531548331
0.0125 0.0105 3.86775555797
0.0125 0.0115 3.74461527861
0.0125 0.0125 3.62182009298
0.0125 0.0135 3.49937379924
0.0125 0.0145 3.38573272278
0.0125 0.0155 3.2927782415
0.0125 0.0165 3.22322153499
0.0125 0.0175 3.16896833685
0.0125 0.0185 3.11790145695
0.0125 0.0195 3.05871491625
0.0125 0.0205 2.99026402813
0.0125 0.0215 2.91802355859
0.0125 0.0225 2.84695242205
0.0125 0.0235 2.78150013549
0.0125 0.0245 2.72279691678
0.0125 0.0255 2.67021323753
0.0125 0.0265 2.62285810598
0.0125 0.0275 2.58030716752
0.0125 0.0285 2.5429014297
0.0125 0.0295 2.51177820218
0.0125 0.0305 2.48883244166
0.0125 0.0315 2.47646916107
0.0135 -0.0315 4.91388373262
0.0135 -0.0305 4.93300238979
0.0135 -0.0295 4.96224983194
0.0135 -0.0285 4.99197747371
0.0135 -0.0275 5.01628013217
0.0135 -0.0265 5.03362662829
0.0135 -0.0255 5.04638403777
0.0135 -0.0245 5.053380695
0.0135 -0.0235 5.04673029377
0.0135 -0.0225 5.03019477627
0.0135 -0.0215 5.02308202645
0.0135 -0.0205 5.03516961654
0.0135 -0.0195 5.05995667533
0.0135 -0.0185 5.08311115411
0.0135 -0.0175 5.08467187673
0.0135 -0.0165 5.0508044695
0.0135 -0.0155 4.98163316021
0.0135 -0.0145 4.88735839806
0.0135 -0.0135 4.78177827033
0.0135 -0.0125 4.67658106946
0.0135 -0.0115 4.57943970529
0.0135 -0.0105 4.49471490997
0.0135 -0.0095 4.42442092525
0.0135 -0.0085 4.36876589106
0.0135 -0.0075 4.326564754
0.0135 -0.0065 4.29560562298
0.0135 -0.0055 4.27307689092
0.0135 -0.0045 4.25599803321
0.0135 -0.0035 4.24162625098
0.0135 -0.0025 4.22792004545
0.0135 -0.0015 4.21371772222
0.0135 -0.0005 4.19982113757
0.0135 0.0005 4.1877359126
0.0135 0.0015 4.17890611845
0.0135 0.0025 4.17833862219
0.0135 0.0035 4.19555044986
0.0135 0.0045 4.2326515717
0.0135 0.0055 4.27258109255
0.0135 0.0065 4.2862882845
0.0135 0.0075 4.24684967551
0.0135 0.0085 4.14192343911
0.0135 0.0095 3.99030599049
0.0135 0.0105 3.82961868604
0.0135 0.0115 3.67893847078
0.0135 0.0125 3.54086380804
0.0135 0.0135 3.41815035061
0.0135 0.0145 3.31465524599
0.0135 0.0155 3.23415218016
0.0135 0.0165 3.17267802953
0.0135 0.0175 3.11903677441
0.0135 0.0185 3.06188535924
0.0135 0.0195 2.99304194784
0.0135 0.0205 2.91634648993
0.0135 0.0215 2.84135850524
0.0135 0.0225 2.77309206347
0.0135 0.0235 2.7134106144
0.0135 0.0245 2.6609956692
0.0135 0.0255 2.61369041917
0.0135 0.0265 2.56985841655
0.0135 0.0275 2.5290029711
0.0135 0.0285 2.49176923266
0.0135 0.0295 2.45981620753
0.0135 0.0305 2.43568561382
0.0135 0.0315 2.42246566284
0.0145 -0.0315 4.89414179151
0.0145 -0.0305 4.91321285445
0.0145 -0.0295 4.94221731247
0.0145 -0.0285 4.97137112643
0.0145 -0.0275 4.99460075283
0.0145 -0.0265 5.01020944318
0.0145 -0.0255 5.02028045864
0.0145 -0.0245 5.02375150818
0.0145 -0.0235 5.01317711994
0.0145 -0.0225 4.99254567994
0.0145 -0.0215 4.98055490591
0.0145 -0.0205 4.98447084044
0.0145 -0.0195 4.99618246617
0.0145 -0.0185 5.00621956501
0.0145 -0.0175 5.00184888925
0.0145 -0.0165 4.97087058687
0.0145 -0.0155 4.9094251698
0.0145 -0.0145 4.82199776579
0.0145 -0.0135 4.71891879774
0.0145 -0.0125 4.61181665585
0.0145 -0.0115 4.51047497622
0.0145 -0.0105 4.42161194074
0.0145 -0.0095 4.34890734778
0.0145 -0.0085 4.29342284315
0.0145 -0.0075 4.25409940612
0.0145 -0.0065 4.22833828054
0.0145 -0.0055 4.21263601404
0.0145 -0.0045 4.20324044867
0.0145 -0.0035 4.19679310093
0.0145 -0.0025 4.19086469093
0.0145 -0.0015 4.1839874569
0.0145 -0.0005 4.1760303907
0.0145 0.0005 4.16843012795
0.0145 0.0015 4.16294853351
0.0145 0.0025 4.16347539889
0.0145 0.0035 4.1793813005
0.0145 0.0045 4.21565395439
0.0145 0.0055 4.25672906266
0.0145 0.0065 4.27413724168
0.0145 0.0075 4.24546599266
0.0145 0.0085 4.150825619
0.0145 0.0095 3.99107923439
0.0145 0.0105 3.8020288506
0.0145 0.0115 3.62038803919
0.0145 0.0125 3.46559486273
0.0145 0.0135 3.34099861516
0.0145 0.0145 3.24146639304
0.0145 0.0155 3.16463298184
0.0145 0.0165 3.10527068488
0.0145 0.0175 3.0496318693
0.0145 0.0185 2.98504789705
0.0145 0.0195 2.90896311829
0.0145 0.0205 2.83028846824
0.0145 0.0215 2.75943119711
0.0145 0.0225 2.69925303804
0.0145 0.0235 2.64834938999
0.0145 0.0245 2.60357119511
0.0145 0.0255 2.56152046711
0.0145 0.0265 2.52037480265
0.0145 0.0275 2.47998033349
0.0145 0.0285 2.44162257046
0.0145 0.0295 2.40776981981
0.0145 0.0305 2.38176125988
0.0145 0.0315 2.3673695287
0.0155 -0.0315 4.87087403636
0.0155 -0.0305 4.88917051344
0.0155 -0.0295 4.91675205533
0.0155 -0.0285 4.94397582606
0.0155 -0.0275 4.96470768074
0.0155 -0.0265 4.97722524451
0.0155 -0.0255 4.98365220406
0.0155 -0.0245 4.98401195294
0.0155 -0.0235 4.97311147712
0.0155 -0.0225 4.95533252804
0.0155 -0.0215 4.94479031747
0.0155 -0.0205 4.94494516383
0.0155 -0.0195 4.94842347227
0.0155 -0.0185 4.9468164725
0.0155 -0.0175 4.93024580414
0.0155 -0.0165 4.88963117764
0.0155 -0.0155 4.82178783546
0.0155 -0.0145 4.7303730667
0.0155 -0.0135 4.62416056232
0.0155 -0.0125 4.51394024426
0.0155 -0.0115 4.40977392707
0.0155 -0.0105 4.31930308962
0.0155 -0.0095 4.24704330943
0.0155 -0.0085 4.19448644769
0.0155 -0.0075 4.16063158964
0.0155 -0.0065 4.14266363469
0.0155 -0.0055 4.13664930322
0.0155 -0.0045 4.13821015988
0.0155 -0.0035 4.14315656353
0.0155 -0.0025 4.14800768876
0.0155 -0.0015 4.15047088047
0.0155 -0.0005 4.1498907528
0.0155 0.0005 4.14777250327
0.0155 0.0015 4.14627444185
0.0155 0.0025 4.14810895954
0.0155 0.0035 4.16014599086
0.0155 0.0045 4.18732620455
0.0155 0.0055 4.21808841979
0.0155 0.0065 4.23197227333
0.0155 0.0075 4.21362236303
0.0155 0.0085 4.13724256002
0.0155 0.0095 3.98619100922
0.0155 0.0105 3.78389221805
0.0155 0.0115 3.57599066421
0.0155 0.0125 3.40052879602
0.0155 0.0135 3.26786116955
0.0155 0.0145 3.16717237356
0.0155 0.0155 3.08732957398
0.0155 0.0165 3.02214090492
0.0155 0.0175 2.96049948316
0.0155 0.0185 2.89143003667
0.0155 0.0195 2.81538854533
0.0155 0.0205 2.74193434196
0.0155 0.0215 2.68041236013
0.0155 0.0225 2.63123376951
0.0155 0.0235 2.58975757154
0.0155 0.0245 2.55181556523
0.0155 0.0255 2.5136727815
0.0155 0.0265 2.4735918269
0.0155 0.0275 2.43199845936
0.0155 0.0285 2.3911899455
0.0155 0.0295 2.3546574762
0.0155 0.0305 2.32649216907
0.0155 0.0315 2.3109130871
0.0165 -0.0315 4.84417863064
0.0165 -0.0305 4.8611360735
0.0165 -0.0295 4.88649207752
0.0165 -0.0285 4.91105424863
0.0165 -0.0275 4.92884417978
0.0165 -0.0265 4.93831489007
0.0165 -0.0255 4.94181793344
0.0165 -0.0245 4.94076846505
0.0165 -0.0235 4.93253782887
0.0165 -0.0225 4.92029999916
0.0165 -0.0215 4.91270793599
0.0165 -0.0205 4.91082951674
0.0165 -0.0195 4.90862548974
0.0165 -0.0185 4.89688993369
0.0165 -0.0175 4.86524790961
0.0165 -0.0165 4.8069250343
0.0165 -0.0155 4.72192526681
0.0165 -0.0145 4.6167161711
0.0165 -0.0135 4.50104034344
0.0165 -0.0125 4.38532058017