% Model:              Benchmark260518.mph
% Version:            COMSOL 6.2.0.339
% Date:               May 19 2026, 00:20
% Dimension:          2
% Nodes:              4096
% Expressions:        1
% Description:        压力
% Length unit:        m
% x                       y                        p (Pa)
5.0E-4                    -0.0315                  3.9164324029373963
5.0E-4                    -0.0305                  3.9366495329761975
5.0E-4                    -0.0295                  3.9641731322295835
5.0E-4                    -0.0285                  3.9941246236627164
5.0E-4                    -0.0275                  4.0254106202919235
5.0E-4                    -0.0265                  4.057609857506797
5.0E-4                    -0.0255                  4.09045203449757
5.0E-4                    -0.0245                  4.123777749290749
5.0E-4                    -0.0235                  4.157481693321049
5.0E-4                    -0.0225                  4.191494662241109
5.0E-4                    -0.0215                  4.225769413976647
5.0E-4                    -0.0205                  4.260281379696387
5.0E-4                    -0.0195                  4.295029606258288
5.0E-4                    -0.0185                  4.330039937463214
5.0E-4                    -0.0175                  4.365357733138739
5.0E-4                    -0.0165                  4.401048991964479
5.0E-4                    -0.0155                  4.437218200390464
5.0E-4                    -0.0145                  4.474035579825337
5.0E-4                    -0.0135                  4.511777919706065
5.0E-4                    -0.0125                  4.550865484537339
5.0E-4                    -0.0115                  4.591855180447814
5.0E-4                    -0.0105                  4.635435086319891
5.0E-4                    -0.0095                  4.681941340391887
5.0E-4                    -0.0085                  4.729880325386561
5.0E-4                    -0.0075                  4.775443433016362
5.0E-4                    -0.0065                  4.8140824803772455
5.0E-4                    -0.0055                  4.840578387981163
5.0E-4                    -0.0045                  4.853501898285831
5.0E-4                    -0.0035                  4.856977204671602
5.0E-4                    -0.0025                  4.854501505533702
5.0E-4                    -0.0015                  4.848066123046037
5.0E-4                    -5.0E-4                  4.839622218949206
5.0E-4                    5.0E-4                   4.830461054980132
5.0E-4                    0.0015                   4.821075307062968
5.0E-4                    0.0025                   4.811521701324478
5.0E-4                    0.0035                   4.809591125692951
5.0E-4                    0.0045                   4.845754552444538
5.0E-4                    0.0055                   4.925004847192989
5.0E-4                    0.0065                   4.993708896029036
5.0E-4                    0.0075                   5.022159513633809
5.0E-4                    0.0085                   5.0241677534093245
5.0E-4                    0.0095                   5.014804071588558
5.0E-4                    0.0105                   5.005023246188789
5.0E-4                    0.0115                   4.996388753830297
5.0E-4                    0.0125                   4.984249993096096
5.0E-4                    0.0135                   4.965002001985634
5.0E-4                    0.0145                   4.934487279694101
5.0E-4                    0.0155                   4.891639603878337
5.0E-4                    0.0165                   4.84018120279253
5.0E-4                    0.0175                   4.783959074431238
5.0E-4                    0.0185                   4.727178220543737
5.0E-4                    0.0195                   4.671886388774757
5.0E-4                    0.0205                   4.618358152976709
5.0E-4                    0.0215                   4.566509272910042
5.0E-4                    0.0225                   4.516155683447742
5.0E-4                    0.0235                   4.467090606379918
5.0E-4                    0.0245                   4.419134707513371
5.0E-4                    0.0255                   4.372174145069272
5.0E-4                    0.0265                   4.326210611096606
5.0E-4                    0.0275                   4.281351400596667
5.0E-4                    0.0285                   4.237893442631487
5.0E-4                    0.0295                   4.196344207368348
5.0E-4                    0.0305                   4.158135801692376
5.0E-4                    0.0315                   4.1300989654479245
0.0015                    -0.0315                  3.8960997422348673
0.0015                    -0.0305                  3.916461825105645
0.0015                    -0.0295                  3.946143320458682
0.0015                    -0.0285                  3.9786758624674885
0.0015                    -0.0275                  4.012230025658139
0.0015                    -0.0265                  4.046322239677126
0.0015                    -0.0255                  4.080749986121877
0.0015                    -0.0245                  4.115386634660883
0.0015                    -0.0235                  4.1501423335882475
0.0015                    -0.0225                  4.184950863877161
0.0015                    -0.0215                  4.219766270375096
0.0015                    -0.0205                  4.2545636100503605
0.0015                    -0.0195                  4.289338311984772
0.0015                    -0.0185                  4.3241011224166845
0.0015                    -0.0175                  4.358872046171857
0.0015                    -0.0165                  4.393681584746943
0.0015                    -0.0155                  4.4285875214698684
0.0015                    -0.0145                  4.4637124265825125
0.0015                    -0.0135                  4.499314465022426
0.0015                    -0.0125                  4.5359216431877405
0.0015                    -0.0115                  4.574498721472112
0.0015                    -0.0105                  4.616422321730017
0.0015                    -0.0095                  4.663000734437992
0.0015                    -0.0085                  4.713956766207548
0.0015                    -0.0075                  4.76545532016642
0.0015                    -0.0065                  4.810973015017936
0.0015                    -0.0055                  4.841925291461699
0.0015                    -0.0045                  4.856288006230733
0.0015                    -0.0035                  4.8596783204321135
0.0015                    -0.0025                  4.856014750423423
0.0015                    -0.0015                  4.848426167973328
0.0015                    -5.0E-4                  4.8395664678980115
0.0015                    5.0E-4                   4.830488643701328
0.0015                    0.0015                   4.8216415150617005
0.0015                    0.0025                   4.816057227310182
0.0015                    0.0035                   4.82285737303165
0.0015                    0.0045                   4.882197377655725
0.0015                    0.0055                   4.979956913313506
0.0015                    0.0065                   5.045964342983551
0.0015                    0.0075                   5.063462045962382
0.0015                    0.0085                   5.048425369736651
0.0015                    0.0095                   5.022394610377997
0.0015                    0.0105                   5.00195354193511
0.0015                    0.0115                   4.990132740347377
0.0015                    0.0125                   4.9798922271045205
0.0015                    0.0135                   4.96253653264681
0.0015                    0.0145                   4.9308617532825805
0.0015                    0.0155                   4.884287607074374
0.0015                    0.0165                   4.827699641680939
0.0015                    0.0175                   4.766913496589003
0.0015                    0.0185                   4.707195068247982
0.0015                    0.0195                   4.650715326914601
0.0015                    0.0205                   4.5974491123891745
0.0015                    0.0215                   4.546608065485413
0.0015                    0.0225                   4.497396204640137
0.0015                    0.0235                   4.449209007871166
0.0015                    0.0245                   4.401643023736609
0.0015                    0.0255                   4.3544838654032
0.0015                    0.0265                   4.307665820725118
0.0015                    0.0275                   4.261250454028633
0.0015                    0.0285                   4.215438504104798
0.0015                    0.0295                   4.170828212463297
0.0015                    0.0305                   4.129945120588466
0.0015                    0.0315                   4.10188139170313
0.0025                    -0.0315                  3.8681553128321693
0.0025                    -0.0305                  3.8868620405544223
0.0025                    -0.0295                  3.9169576200929175
0.0025                    -0.0285                  3.951878077992531
0.0025                    -0.0275                  3.9884190172341407
0.0025                    -0.0265                  4.0254259197482
0.0025                    -0.0255                  4.062497126246541
0.0025                    -0.0245                  4.0994392820216605
0.0025                    -0.0235                  4.136119209027258
0.0025                    -0.0225                  4.172432781130498
0.0025                    -0.0215                  4.20830320675557
0.0025                    -0.0205                  4.243682884499772
0.0025                    -0.0195                  4.278549666080486
0.0025                    -0.0185                  4.312894734176233
0.0025                    -0.0175                  4.346708961871373
0.0025                    -0.0165                  4.379979645206923
0.0025                    -0.0155                  4.412711426105696
0.0025                    -0.0145                  4.444983041612766
0.0025                    -0.0135                  4.47705727470473
0.0025                    -0.0125                  4.509579192671659
0.0025                    -0.0115                  4.543872037140773
0.0025                    -0.0105                  4.582098939155403
0.0025                    -0.0095                  4.62671466285717
0.0025                    -0.0085                  4.679012434035531
0.0025                    -0.0075                  4.736362004881947
0.0025                    -0.0065                  4.791457097477364
0.0025                    -0.0055                  4.833165356919571
0.0025                    -0.0045                  4.856330793717273
0.0025                    -0.0035                  4.863822218690844
0.0025                    -0.0025                  4.859796528753714
0.0025                    -0.0015                  4.850572283387395
0.0025                    -5.0E-4                  4.841380295424613
0.0025                    5.0E-4                   4.83458180561694
0.0025                    0.0015                   4.833031006270165
0.0025                    0.0025                   4.8449383371392925
0.0025                    0.0035                   4.890272358535128
0.0025                    0.0045                   4.97976429903751
0.0025                    0.0055                   5.073301023307264
0.0025                    0.0065                   5.123496091109438
0.0025                    0.0075                   5.122707477963072
0.0025                    0.0085                   5.085355730931792
0.0025                    0.0095                   5.037400373149284
0.0025                    0.0105                   5.001363836159384
0.0025                    0.0115                   4.982055760971389
0.0025                    0.0125                   4.967845458034987
0.0025                    0.0135                   4.946265752152849
0.0025                    0.0145                   4.909314084384563
0.0025                    0.0155                   4.856323146205395
0.0025                    0.0165                   4.793549262027193
0.0025                    0.0175                   4.728228322746783
0.0025                    0.0185                   4.6663873277236645
0.0025                    0.0195                   4.609985115132028
0.0025                    0.0205                   4.558268316779586
0.0025                    0.0215                   4.509613334456848
0.0025                    0.0225                   4.462492800550445
0.0025                    0.0235                   4.415801162776382
0.0025                    0.0245                   4.3688770994875235
0.0025                    0.0255                   4.321409364228051
0.0025                    0.0265                   4.273335855443745
0.0025                    0.0275                   4.224796783780718
0.0025                    0.0285                   4.176279929832299
0.0025                    0.0295                   4.12936372142537
0.0025                    0.0305                   4.08857418350059
0.0025                    0.0315                   4.06321380177797
0.0035                    -0.0315                  3.837485086731827
0.0035                    -0.0305                  3.854258595019386
0.0035                    -0.0295                  3.883106892700468
0.0035                    -0.0285                  3.9187892584846344
0.0035                    -0.0275                  3.957602717646332
0.0035                    -0.0265                  3.9975305622167614
0.0035                    -0.0255                  4.03762990989394
0.0035                    -0.0245                  4.077430519245914
0.0035                    -0.0235                  4.116633827589983
0.0035                    -0.0225                  4.155014378250442
0.0035                    -0.0215                  4.192400014280228
0.0035                    -0.0205                  4.228672230612896
0.0035                    -0.0195                  4.2637628689458325
0.0035                    -0.0185                  4.297639421153181
0.0035                    -0.0175                  4.330281952928889
0.0035                    -0.0165                  4.361667532130877
0.0035                    -0.0155                  4.3917878257221075
0.0035                    -0.0145                  4.420725651185959
0.0035                    -0.0135                  4.448796557827923
0.0035                    -0.0125                  4.476744789068561
0.0035                    -0.0115                  4.505985894060095
0.0035                    -0.0105                  4.5389027674145455
0.0035                    -0.0095                  4.578738756938323
0.0035                    -0.0085                  4.6278346689346055
0.0035                    -0.0075                  4.686168415944134
0.0035                    -0.0065                  4.749052136792363
0.0035                    -0.0055                  4.8053772526216765
0.0035                    -0.0045                  4.843591870928923
0.0035                    -0.0035                  4.8580696171483195
0.0035                    -0.0025                  4.853916775618838
0.0035                    -0.0015                  4.844183594024714
0.0035                    -5.0E-4                  4.839299135352258
0.0035                    5.0E-4                   4.844691714146976
0.0035                    0.0015                   4.865577804486692
0.0035                    0.0025                   4.9111365288549855
0.0035                    0.0035                   4.989942362936246
0.0035                    0.0045                   5.090081405714884
0.0035                    0.0055                   5.173930990206944
0.0035                    0.0065                   5.209440946130805
0.0035                    0.0075                   5.189694474211912
0.0035                    0.0085                   5.128936450287528
0.0035                    0.0095                   5.056026917680209
0.0035                    0.0105                   4.9991254676814005
0.0035                    0.0115                   4.966075257212925
0.0035                    0.0125                   4.941867064235802
0.0035                    0.0135                   4.909427410189922
0.0035                    0.0145                   4.860822534209512
0.0035                    0.0155                   4.79907507729488
0.0035                    0.0165                   4.732250456856058
0.0035                    0.0175                   4.666620283849488
0.0035                    0.0185                   4.606917395640421
0.0035                    0.0195                   4.553792306225091
0.0035                    0.0205                   4.5056587525082
0.0035                    0.0215                   4.460330930667203
0.0035                    0.0225                   4.415859179182556
0.0035                    0.0235                   4.370877298200663
0.0035                    0.0245                   4.324631561102155
0.0035                    0.0255                   4.27685967494651
0.0035                    0.0265                   4.22767037101595
0.0035                    0.0275                   4.177568341365771
0.0035                    0.0285                   4.127813343762902
0.0035                    0.0295                   4.081239871664191
0.0035                    0.0305                   4.04315323285776
0.0035                    0.0315                   4.021030261585571
0.0045                    -0.0315                  3.8053335449804147
0.0045                    -0.0305                  3.820513474096658
0.0045                    -0.0295                  3.8477139324986767
0.0045                    -0.0285                  3.8829498398373583
0.0045                    -0.0275                  3.9228648145420086
0.0045                    -0.0265                  3.96504924373417
0.0045                    -0.0255                  4.007994168289612
0.0045                    -0.0245                  4.050793895005249
0.0045                    -0.0235                  4.092849182554307
0.0045                    -0.0225                  4.1337089348478875
0.0045                    -0.0215                  4.173019974595338
0.0045                    -0.0205                  4.210523155668538
0.0045                    -0.0195                  4.2460563221231675
0.0045                    -0.0185                  4.279546061752068
0.0045                    -0.0175                  4.310984100416995
0.0045                    -0.0165                  4.34039863867971
0.0045                    -0.0155                  4.367851481210146
0.0045                    -0.0145                  4.393502779846255
0.0045                    -0.0135                  4.417766226343463
0.0045                    -0.0125                  4.441491834344344
0.0045                    -0.0115                  4.466100184906444
0.0045                    -0.0105                  4.493701095521999
0.0045                    -0.0095                  4.527168830012469
0.0045                    -0.0085                  4.5692263187370905
0.0045                    -0.0075                  4.623066271144448
0.0045                    -0.0065                  4.687756213922842
0.0045                    -0.0055                  4.752726242662575
0.0045                    -0.0045                  4.799794008931216
0.0045                    -0.0035                  4.816765308406034
0.0045                    -0.0025                  4.812930649701077
0.0045                    -0.0015                  4.808793054066747
0.0045                    -5.0E-4                  4.819110356672785
0.0045                    5.0E-4                   4.850542352950037
0.0045                    0.0015                   4.9051162830495505
0.0045                    0.0025                   4.983188698607834
0.0045                    0.0035                   5.079628276488138
0.0045                    0.0045                   5.177692585656175
0.0045                    0.0055                   5.251159890568758
0.0045                    0.0065                   5.2760838537162815
0.0045                    0.0075                   5.242319900133923
0.0045                    0.0085                   5.160496945293868
0.0045                    0.0095                   5.062464395502549
0.0045                    0.0105                   4.982922527602628
0.0045                    0.0115                   4.932732493936395
0.0045                    0.0125                   4.894019335961863
0.0045                    0.0135                   4.845400884486413
0.0045                    0.0145                   4.7820427610704375
0.0045                    0.0155                   4.712632886001278
0.0045                    0.0165                   4.646168183585776
0.0045                    0.0175                   4.586156031114742
0.0045                    0.0185                   4.5335367870426
0.0045                    0.0195                   4.487044096733647
0.0045                    0.0205                   4.444398133600435
0.0045                    0.0215                   4.403194084612819
0.0045                    0.0225                   4.361507047058495
0.0045                    0.0235                   4.3181110704780234
0.0045                    0.0245                   4.272454612062574
0.0045                    0.0255                   4.224530724305802
0.0045                    0.0265                   4.174810242955636
0.0045                    0.0275                   4.124374980904678
0.0045                    0.0285                   4.075283375561012
0.0045                    0.0295                   4.030962367934949
0.0045                    0.0305                   3.9962782051100008
0.0045                    0.0315                   3.9769048402111604
0.0055                    -0.0315                  3.7721390781406945
0.0055                    -0.0305                  3.786134624451966
0.0055                    -0.0295                  3.8118422069852427
0.0055                    -0.0285                  3.8461724920272164
0.0055                    -0.0275                  3.8863033145386923
0.0055                    -0.0265                  3.9298932197238825
0.0055                    -0.0255                  3.9751407982292064
0.0055                    -0.0245                  4.020738543621764
0.0055                    -0.0235                  4.065720624755466
0.0055                    -0.0225                  4.109324252761896
0.0055                    -0.0215                  4.150927335634269
0.0055                    -0.0205                  4.190046264758362
0.0055                    -0.0195                  4.226354914963244
0.0055                    -0.0185                  4.259695770949461
0.0055                    -0.0175                  4.29007271876779
0.0055                    -0.0165                  4.317624856339401
0.0055                    -0.0155                  4.342595653196115
0.0055                    -0.0145                  4.3653420544050086
0.0055                    -0.0135                  4.386430155292706
0.0055                    -0.0125                  4.406822767916556
0.0055                    -0.0115                  4.427968176146837
0.0055                    -0.0105                  4.45172004190948
0.0055                    -0.0095                  4.479993996397917
0.0055                    -0.0085                  4.515066576201754
0.0055                    -0.0075                  4.561177438574099
0.0055                    -0.0065                  4.618821619616831
0.0055                    -0.0055                  4.67799578237702
0.0055                    -0.0045                  4.719502843787355
0.0055                    -0.0035                  4.733007405737801
0.0055                    -0.0025                  4.733123608431595
0.0055                    -0.0015                  4.744055931755813
0.0055                    -5.0E-4                  4.779565850970863
0.0055                    5.0E-4                   4.841508814411289
0.0055                    0.0015                   4.925436259254288
0.0055                    0.0025                   5.023555030819824
0.0055                    0.0035                   5.124649649327964
0.0055                    0.0045                   5.214485090427337
0.0055                    0.0055                   5.277434062145555
0.0055                    0.0065                   5.295182528900464
0.0055                    0.0075                   5.251686089943212
0.0055                    0.0085                   5.150292815238217
0.0055                    0.0095                   5.027191181508994
0.0055                    0.0105                   4.927974286364076
0.0055                    0.0115                   4.864544875087624
0.0055                    0.0125                   4.81315247179198
0.0055                    0.0135                   4.7506088846065415
0.0055                    0.0145                   4.677078333180777
0.0055                    0.0155                   4.606052584455376
0.0055                    0.0165                   4.54557249352619
0.0055                    0.0175                   4.495344454450599
0.0055                    0.0185                   4.452780961944977
0.0055                    0.0195                   4.41487886857765
0.0055                    0.0205                   4.378639588559081
0.0055                    0.0215                   4.341691263898816
0.0055                    0.0225                   4.302509170536124
0.0055                    0.0235                   4.260385448609355
0.0055                    0.0245                   4.215237245185254
0.0055                    0.0255                   4.167474994530041
0.0055                    0.0265                   4.11802926200065
0.0055                    0.0275                   4.068514187089942
0.0055                    0.0285                   4.0214039359419385
0.0055                    0.0295                   3.980053510660777
0.0055                    0.0305                   3.948577400911595
0.0055                    0.0315                   3.9313849751073793
0.0065                    -0.0315                  3.7381310533609584
0.0065                    -0.0305                  3.7512872429699047
0.0065                    -0.0295                  3.7758213190853533
0.0065                    -0.0285                  3.8092200272186783
0.0065                    -0.0275                  3.8491170683997322
0.0065                    -0.0265                  3.8934172723120466
0.0065                    -0.0255                  3.940306224340079
0.0065                    -0.0245                  3.988261848357001
0.0065                    -0.0235                  4.036012379948822
0.0065                    -0.0225                  4.08246637299047
0.0065                    -0.0215                  4.126674876526498
0.0065                    -0.0205                  4.1678479572508875
0.0065                    -0.0195                  4.205405807388337
0.0065                    -0.0185                  4.239029902864621
0.0065                    -0.0175                  4.2686908930346155
0.0065                    -0.0165                  4.294654005816528
0.0065                    -0.0155                  4.317447197804874
0.0065                    -0.0145                  4.337787175919418
0.0065                    -0.0135                  4.356536524262712
0.0065                    -0.0125                  4.374745727975684
0.0065                    -0.0115                  4.393843160656189
0.0065                    -0.0105                  4.415461387995368
0.0065                    -0.0095                  4.440778509938681
0.0065                    -0.0085                  4.471201837520677
0.0065                    -0.0075                  4.5085515608262785
0.0065                    -0.0065                  4.552673925857928
0.0065                    -0.0055                  4.5963873751565965
0.0065                    -0.0045                  4.625359576316962
0.0065                    -0.0035                  4.637592126577969
0.0065                    -0.0025                  4.65068871913502
0.0065                    -0.0015                  4.683014529778628
0.0065                    -5.0E-4                  4.741736066482277
0.0065                    5.0E-4                   4.824352646532684
0.0065                    0.0015                   4.923264827883175
0.0065                    0.0025                   5.027654584165928
0.0065                    0.0035                   5.125015967446461
0.0065                    0.0045                   5.203478448076187
0.0065                    0.0055                   5.252843211026729
0.0065                    0.0065                   5.25840687973107
0.0065                    0.0075                   5.200613593064427
0.0065                    0.0085                   5.078302519189575
0.0065                    0.0095                   4.932339739644728
0.0065                    0.0105                   4.818975257263871
0.0065                    0.0115                   4.751455299383174
0.0065                    0.0125                   4.6979201300369535