% Model:              Benchmark260518.mph
% Version:            COMSOL 6.2.0.339
% Date:               May 21 2026, 16:33
% Dimension:          2
% Nodes:              4096
% Expressions:        1
% Description:        压力
% Length unit:        m
% x                       y                        p (Pa)
5.0E-4                    -0.0315                  3.1114995502267186
5.0E-4                    -0.0305                  3.155362796224823
5.0E-4                    -0.0295                  3.215102819581207
5.0E-4                    -0.0285                  3.280096249838848
5.0E-4                    -0.0275                  3.3481406659759934
5.0E-4                    -0.0265                  3.4184766738966372
5.0E-4                    -0.0255                  3.490682905568804
5.0E-4                    -0.0245                  3.5646610263814296
5.0E-4                    -0.0235                  3.6405008894504105
5.0E-4                    -0.0225                  3.7183827620884218
5.0E-4                    -0.0215                  3.7983982465026176
5.0E-4                    -0.0205                  3.88041037678439
5.0E-4                    -0.0195                  3.96402650044499
5.0E-4                    -0.0185                  4.048728951392214
5.0E-4                    -0.0175                  4.13400555908747
5.0E-4                    -0.0165                  4.2194538711737435
5.0E-4                    -0.0155                  4.304758335464949
5.0E-4                    -0.0145                  4.389423416440245
5.0E-4                    -0.0135                  4.472892501183548
5.0E-4                    -0.0125                  4.55328351226063
5.0E-4                    -0.0115                  4.6253271385084975
5.0E-4                    -0.0105                  4.682724122221056
5.0E-4                    -0.0095                  4.719644257322104
5.0E-4                    -0.0085                  4.736860877972181
5.0E-4                    -0.0075                  4.74240993346885
5.0E-4                    -0.0065                  4.742207332164765
5.0E-4                    -0.0055                  4.738886306634185
5.0E-4                    -0.0045                  4.733448860842343
5.0E-4                    -0.0035                  4.726215292922691
5.0E-4                    -0.0025                  4.717947007478989
5.0E-4                    -0.0015                  4.710220431489464
5.0E-4                    -5.0E-4                  4.704936481506019
5.0E-4                    5.0E-4                   4.703746961207845
5.0E-4                    0.0015                   4.707369839021287
5.0E-4                    0.0025                   4.714853736324657
5.0E-4                    0.0035                   4.7233072960729805
5.0E-4                    0.0045                   4.728169704692315
5.0E-4                    0.0055                   4.724265525988856
5.0E-4                    0.0065                   4.708215994560784
5.0E-4                    0.0075                   4.680239976158683
5.0E-4                    0.0085                   4.644158553035549
5.0E-4                    0.0095                   4.6062960850981485
5.0E-4                    0.0105                   4.573411947588879
5.0E-4                    0.0115                   4.549806872250949
5.0E-4                    0.0125                   4.535434478088524
5.0E-4                    0.0135                   4.527110620684264
5.0E-4                    0.0145                   4.523356473809924
5.0E-4                    0.0155                   4.5348842397731515
5.0E-4                    0.0165                   4.621727593977622
5.0E-4                    0.0175                   4.793343576011295
5.0E-4                    0.0185                   4.940938772252963
5.0E-4                    0.0195                   5.0111717388167945
5.0E-4                    0.0205                   5.0330737150489
5.0E-4                    0.0215                   5.034390827230642
5.0E-4                    0.0225                   5.032497046631079
5.0E-4                    0.0235                   5.02976514139561
5.0E-4                    0.0245                   5.024449900802431
5.0E-4                    0.0255                   5.017111720682953
5.0E-4                    0.0265                   5.0101076515109435
5.0E-4                    0.0275                   5.0048598082229665
5.0E-4                    0.0285                   5.000345014268976
5.0E-4                    0.0295                   4.995780221645353
5.0E-4                    0.0305                   4.990703860427926
5.0E-4                    0.0315                   4.98477773851971
0.0015                    -0.0315                  3.0671662108081037
0.0015                    -0.0305                  3.110899878107087
0.0015                    -0.0295                  3.1745892898967187
0.0015                    -0.0285                  3.2442272130156447
0.0015                    -0.0275                  3.3159870993718914
0.0015                    -0.0265                  3.388968931521463
0.0015                    -0.0255                  3.4628761213907113
0.0015                    -0.0245                  3.537714668134433
0.0015                    -0.0235                  3.61384927183291
0.0015                    -0.0225                  3.691977471922237
0.0015                    -0.0215                  3.7729044037520962
0.0015                    -0.0205                  3.8571422270025835
0.0015                    -0.0195                  3.9445717273557186
0.0015                    -0.0185                  4.034402930146614
0.0015                    -0.0175                  4.125515559155286
0.0015                    -0.0165                  4.216913828680295
0.0015                    -0.0155                  4.307917877862949
0.0015                    -0.0145                  4.397877962094705
0.0015                    -0.0135                  4.485417499080894
0.0015                    -0.0125                  4.567331644695895
0.0015                    -0.0115                  4.638081383068125
0.0015                    -0.0105                  4.691942223998808
0.0015                    -0.0095                  4.724611337937624
0.0015                    -0.0085                  4.739281430654554
0.0015                    -0.0075                  4.744193871421485
0.0015                    -0.0065                  4.743827156125523
0.0015                    -0.0055                  4.740269319391285
0.0015                    -0.0045                  4.734180413198779
0.0015                    -0.0035                  4.725567155056431
0.0015                    -0.0025                  4.715322949360308
0.0015                    -0.0015                  4.70540666008541
0.0015                    -5.0E-4                  4.69801557521518
0.0015                    5.0E-4                   4.694907077110998
0.0015                    0.0015                   4.696804830082708
0.0015                    0.0025                   4.7027988647456045
0.0015                    0.0035                   4.71020739995077
0.0015                    0.0045                   4.714865713830741
0.0015                    0.0055                   4.711855447510272
0.0015                    0.0065                   4.697508669809165
0.0015                    0.0075                   4.671275279729734
0.0015                    0.0085                   4.636485388862606
0.0015                    0.0095                   4.599395427356913
0.0015                    0.0105                   4.567170092155094
0.0015                    0.0115                   4.544641711575672
0.0015                    0.0125                   4.531679725854303
0.0015                    0.0135                   4.524848071099434
0.0015                    0.0145                   4.5227825922019385
0.0015                    0.0155                   4.535419081626567
0.0015                    0.0165                   4.659768236444795
0.0015                    0.0175                   4.866919690694118
0.0015                    0.0185                   5.005358903758381
0.0015                    0.0195                   5.055978333323715
0.0015                    0.0205                   5.056836477771665
0.0015                    0.0215                   5.044397056619151
0.0015                    0.0225                   5.036291390227678
0.0015                    0.0235                   5.033355743637278
0.0015                    0.0245                   5.030550541671593
0.0015                    0.0255                   5.0246190368186445
0.0015                    0.0265                   5.014226127236467
0.0015                    0.0275                   5.000654449534203
0.0015                    0.0285                   4.986401306990677
0.0015                    0.0295                   4.972574301694987
0.0015                    0.0305                   4.960452993086209
0.0015                    0.0315                   4.953517771836495
0.0025                    -0.0315                  3.0063576636091454
0.0025                    -0.0305                  3.0456357822133895
0.0025                    -0.0295                  3.108812473008137
0.0025                    -0.0285                  3.18181186463289
0.0025                    -0.0275                  3.2578738434329537
0.0025                    -0.0265                  3.334643345359695
0.0025                    -0.0255                  3.4113685582864544
0.0025                    -0.0245                  3.4879223024188546
0.0025                    -0.0235                  3.564796614098555
0.0025                    -0.0225                  3.643250695979513
0.0025                    -0.0215                  3.7251622334058707
0.0025                    -0.0205                  3.812382935891805
0.0025                    -0.0195                  3.905793258370366
0.0025                    -0.0185                  4.004644745326053
0.0025                    -0.0175                  4.10669951953872
0.0025                    -0.0165                  4.209189313606184
0.0025                    -0.0155                  4.3098173366234
0.0025                    -0.0145                  4.406909610456387
0.0025                    -0.0135                  4.498060184436439
0.0025                    -0.0125                  4.579076317695796
0.0025                    -0.0115                  4.644980653029982
0.0025                    -0.0105                  4.6923518759198775
0.0025                    -0.0095                  4.721867706069128
0.0025                    -0.0085                  4.73815283848346
0.0025                    -0.0075                  4.74507225790337
0.0025                    -0.0065                  4.744312189992001
0.0025                    -0.0055                  4.737448099689105
0.0025                    -0.0045                  4.725728927539656
0.0025                    -0.0035                  4.710795731580635
0.0025                    -0.0025                  4.695235855540684
0.0025                    -0.0015                  4.681592648671189
0.0025                    -5.0E-4                  4.67182639306628
0.0025                    5.0E-4                   4.667083242330871
0.0025                    0.0015                   4.667392313729611
0.0025                    0.0025                   4.6716609187719165
0.0025                    0.0035                   4.677689800966797
0.0025                    0.0045                   4.682298638434382
0.0025                    0.0055                   4.681741848416905
0.0025                    0.0065                   4.672626561584981
0.0025                    0.0075                   4.6534084068429635
0.0025                    0.0085                   4.625937142066876
0.0025                    0.0095                   4.594987285967711
0.0025                    0.0105                   4.566881750968218
0.0025                    0.0115                   4.546911767618018
0.0025                    0.0125                   4.5365473157720535
0.0025                    0.0135                   4.537064706417759
0.0025                    0.0145                   4.559423783719569
0.0025                    0.0155                   4.646874105756084
0.0025                    0.0165                   4.8311766204034665
0.0025                    0.0175                   5.019307426030414
0.0025                    0.0185                   5.113954210698871
0.0025                    0.0195                   5.124872083972259
0.0025                    0.0205                   5.0943640841823825
0.0025                    0.0215                   5.061312232226715
0.0025                    0.0225                   5.04210381528244
0.0025                    0.0235                   5.03559212417348
0.0025                    0.0245                   5.031874261894381
0.0025                    0.0255                   5.024207777460319
0.0025                    0.0265                   5.010430637404205
0.0025                    0.0275                   4.991144778575691
0.0025                    0.0285                   4.969365398333178
0.0025                    0.0295                   4.9487545399785615
0.0025                    0.0305                   4.932920897288436
0.0025                    0.0315                   4.924516014284562
0.0035                    -0.0315                  2.9400236613790947
0.0035                    -0.0305                  2.974137179436433
0.0035                    -0.0295                  3.0328622548296145
0.0035                    -0.0285                  3.1051389408064916
0.0035                    -0.0275                  3.1832631944883327
0.0035                    -0.0265                  3.2631650176661204
0.0035                    -0.0255                  3.343020056094873
0.0035                    -0.0245                  3.422118555552773
0.0035                    -0.0235                  3.5006025179981144
0.0035                    -0.0225                  3.5797535842873303
0.0035                    -0.0215                  3.662182055082566
0.0035                    -0.0205                  3.7513649041507238
0.0035                    -0.0195                  3.8502310926945573
0.0035                    -0.0185                  3.959306976103871
0.0035                    -0.0175                  4.075532815483042
0.0035                    -0.0165                  4.192968751167763
0.0035                    -0.0155                  4.30548286210111
0.0035                    -0.0145                  4.408839665477615
0.0035                    -0.0135                  4.500653658364081
0.0035                    -0.0125                  4.5781934251519525
0.0035                    -0.0115                  4.6378915576762285
0.0035                    -0.0105                  4.679893701899449
0.0035                    -0.0095                  4.709317267277594
0.0035                    -0.0085                  4.729263567719974
0.0035                    -0.0075                  4.737879824424626
0.0035                    -0.0065                  4.733406179797613
0.0035                    -0.0055                  4.718136469690245
0.0035                    -0.0045                  4.696822850969467
0.0035                    -0.0035                  4.674089955004536
0.0035                    -0.0025                  4.653470998977083
0.0035                    -0.0015                  4.6373211821174385
0.0035                    -5.0E-4                  4.6270373352999155
0.0035                    5.0E-4                   4.6226462876785845
0.0035                    0.0015                   4.623121357658075
0.0035                    0.0025                   4.626695849921297
0.0035                    0.0035                   4.6313614847308235
0.0035                    0.0045                   4.635302844428763
0.0035                    0.0055                   4.63710119872492
0.0035                    0.0065                   4.635766044091313
0.0035                    0.0075                   4.6306425027761895
0.0035                    0.0085                   4.621750031210361
0.0035                    0.0095                   4.610020537110796
0.0035                    0.0105                   4.598373223771519
0.0035                    0.0115                   4.59213920553085
0.0035                    0.0125                   4.598694747785132
0.0035                    0.0135                   4.630311752539264
0.0035                    0.0145                   4.710157065714052
0.0035                    0.0155                   4.863986492270177
0.0035                    0.0165                   5.059996283780197
0.0035                    0.0175                   5.206625523639111
0.0035                    0.0185                   5.2518841831403185
0.0035                    0.0195                   5.215041206777366
0.0035                    0.0205                   5.147466159066166
0.0035                    0.0215                   5.088708021517954
0.0035                    0.0225                   5.053010674221502
0.0035                    0.0235                   5.038297115026502
0.0035                    0.0245                   5.030332686109633
0.0035                    0.0255                   5.018097273768467
0.0035                    0.0265                   4.999122691460286
0.0035                    0.0275                   4.9748749190968296
0.0035                    0.0285                   4.948235003079826
0.0035                    0.0295                   4.923486925293799
0.0035                    0.0305                   4.90496578890532
0.0035                    0.0315                   4.895310793317763
0.0045                    -0.0315                  2.870777680655892
0.0045                    -0.0305                  2.9008377133330585
0.0045                    -0.0295                  2.9544973699971395
0.0045                    -0.0285                  3.023364324216292
0.0045                    -0.0275                  3.1006426175903927
0.0045                    -0.0265                  3.181793621348338
0.0045                    -0.0255                  3.2641880860620534
0.0045                    -0.0245                  3.3464001606722036
0.0045                    -0.0235                  3.4278218072002535
0.0045                    -0.0225                  3.508932358657426
0.0045                    -0.0215                  3.5920342827445033
0.0045                    -0.0205                  3.681479397652884
0.0045                    -0.0195                  3.782733512568423
0.0045                    -0.0185                  3.8994470508000765
0.0045                    -0.0175                  4.02970003454743
0.0045                    -0.0165                  4.164364335688362
0.0045                    -0.0155                  4.290443669379767
0.0045                    -0.0145                  4.399010152123216
0.0045                    -0.0135                  4.490235193672642
0.0045                    -0.0125                  4.5652108975983765
0.0045                    -0.0115                  4.621125894742735
0.0045                    -0.0105                  4.660451503491727
0.0045                    -0.0095                  4.689831322272084
0.0045                    -0.0085                  4.709977616945714
0.0045                    -0.0075                  4.715220113448444
0.0045                    -0.0065                  4.702900741768124
0.0045                    -0.0055                  4.678270107593653
0.0045                    -0.0045                  4.648968391906617
0.0045                    -0.0035                  4.621650580084411
0.0045                    -0.0025                  4.600943132663996
0.0045                    -0.0015                  4.588147762916134
0.0045                    -5.0E-4                  4.5824614871414955
0.0045                    5.0E-4                   4.582207963886782
0.0045                    0.0015                   4.585424867730341
0.0045                    0.0025                   4.589816495514175
0.0045                    0.0035                   4.593337012060537
0.0045                    0.0045                   4.59519577483951
0.0045                    0.0055                   4.59641168051788
0.0045                    0.0065                   4.599590157121924
0.0045                    0.0075                   4.607545271787101
0.0045                    0.0085                   4.622095131336403
0.0045                    0.0095                   4.642349282465185
0.0045                    0.0105                   4.666493516459019
0.0045                    0.0115                   4.6971068050617
0.0045                    0.0125                   4.744139555352801
0.0045                    0.0135                   4.823483395161459
0.0045                    0.0145                   4.95083387035461
0.0045                    0.0155                   5.121808586616389
0.0045                    0.0165                   5.289680509445186
0.0045                    0.0175                   5.389929689078379
0.0045                    0.0185                   5.391390762240853
0.0045                    0.0195                   5.313737760029907
0.0045                    0.0205                   5.210222271771846
0.0045                    0.0215                   5.123204137038638
0.0045                    0.0225                   5.067266663787244
0.0045                    0.0235                   5.039781662512988
0.0045                    0.0245                   5.024311689195146
0.0045                    0.0255                   5.006150220754911
0.0045                    0.0265                   4.98148926685704
0.0045                    0.0275                   4.952659335048188
0.0045                    0.0285                   4.922788415493074
0.0045                    0.0295                   4.89566870177455
0.0045                    0.0305                   4.8756651050924384
0.0045                    0.0315                   4.865593297585563
0.0055                    -0.0315                  2.799395012642399
0.0055                    -0.0305                  2.8269811236353655
0.0055                    -0.0295                  2.876803486872969
0.0055                    -0.0285                  2.941834582824422
0.0055                    -0.0275                  3.0163978925404153
0.0055                    -0.0265                  3.09662868794713
0.0055                    -0.0255                  3.180141710641657
0.0055                    -0.0245                  3.2653740371316573
0.0055                    -0.0235                  3.351068779096516
0.0055                    -0.0225                  3.4363907680324286
0.0055                    -0.0215                  3.5219211157972037
0.0055                    -0.0205                  3.6113010593412804
0.0055                    -0.0195                  3.711037872263361
0.0055                    -0.0185                  3.8288326705660607
0.0055                    -0.0175                  3.967882573905034
0.0055                    -0.0165                  4.11853698602369
0.0055                    -0.0155                  4.25945141146733
0.0055                    -0.0145                  4.37657215870256
0.0055                    -0.0135                  4.472295646416708
0.0055                    -0.0125                  4.548819422882543
0.0055                    -0.0115                  4.604121993528287
0.0055                    -0.0105                  4.642383258478515
0.0055                    -0.0095                  4.669714309135623
0.0055                    -0.0085                  4.684402366161452
0.0055                    -0.0075                  4.680620505411442
0.0055                    -0.0065                  4.658702407429248
0.0055                    -0.0055                  4.626716446622041
0.0055                    -0.0045                  4.595100600720404
0.0055                    -0.0035                  4.571823270693247
0.0055                    -0.0025                  4.559449842791242
0.0055                    -0.0015                  4.55580092344692
0.0055                    -5.0E-4                  4.557493533249109
0.0055                    5.0E-4                   4.562251305750632
0.0055                    0.0015                   4.56831263971891
0.0055                    0.0025                   4.573589407226601
0.0055                    0.0035                   4.576094226369147
0.0055                    0.0045                   4.575271935692648
0.0055                    0.0055                   4.573551645448916
0.0055                    0.0065                   4.576591782700049
0.0055                    0.0075                   4.591483233734193
0.0055                    0.0085                   4.624466801024926
0.0055                    0.0095                   4.67652167605651
0.0055                    0.0105                   4.7425254171026925
0.0055                    0.0115                   4.818577461938971
0.0055                    0.0125                   4.909004444763438
0.0055                    0.0135                   5.023034482835827
0.0055                    0.0145                   5.164375772735648
0.0055                    0.0155                   5.319289016892947
0.0055                    0.0165                   5.451774391666822
0.0055                    0.0175                   5.517590767871542
0.0055                    0.0185                   5.493051055533285
0.0055                    0.0195                   5.3917968100056015
0.0055                    0.0205                   5.2605959763816585
0.0055                    0.0215                   5.146840601348432
0.0055                    0.0225                   5.070682484307698
0.0055                    0.0235                   5.0295392962776715
0.0055                    0.0245                   5.006785734181775
0.0055                    0.0255                   4.985086470250848
0.0055                    0.0265                   4.95738681767588
0.0055                    0.0275                   4.92560155128086
0.0055                    0.0285                   4.893887054633596
0.0055                    0.0295                   4.865925839832678
0.0055                    0.0305                   4.845808998649247
0.0055                    0.0315                   4.836375144892479
0.0065                    -0.0315                  2.7260721155144667
0.0065                    -0.0305                  2.752758068849376
0.0065                    -0.0295                  2.8008049350160613
0.0065                    -0.0285                  2.863289062139507
0.0065                    -0.0275                  2.9349551794041244
0.0065                    -0.0265                  3.0127758469767345
0.0065                    -0.0255                  3.0955085374742835
0.0065                    -0.0245                  3.182632478925929
0.0065                    -0.0235                  3.2730720407811034
0.0065                    -0.0225                  3.364782937400694
0.0065                    -0.0215                  3.4557872694646967
0.0065                    -0.0205                  3.546407624932317
0.0065                    -0.0195                  3.6414635828214608
0.0065                    -0.0185                  3.7529892463072927
0.0065                    -0.0175                  3.8916393088306136
0.0065                    -0.0165                  4.05120261345607
0.0065                    -0.0155                  4.207691709360158
0.0065                    -0.0145                  4.3422423660314955
0.0065                    -0.0135                  4.452555468107809
0.0065                    -0.0125                  4.538213734824983
0.0065                    -0.0115                  4.598652028821522
0.0065                    -0.0105                  4.638274159183753
0.0065                    -0.0095                  4.660702219491781
0.0065                    -0.0085                  4.663690594558703
0.0065                    -0.0075                  4.645794916231982
0.0065                    -0.0065                  4.61302285829769
0.0065                    -0.0055                  4.577992130764236
0.0065                    -0.0045                  4.5529305983075306
0.0065                    -0.0035                  4.541701496473337
0.0065                    -0.0025                  4.540465397157031
0.0065                    -0.0015                  4.544002848433294
0.0065                    -5.0E-4                  4.549441963526597
0.0065                    5.0E-4                   4.5558991788113605
0.0065                    0.0015                   4.5626200066056075
0.0065                    0.0025                   4.567555554962596
0.0065                    0.0035                   4.568458290828134
0.0065                    0.0045                   4.565426481402339
0.0065                    0.0055                   4.562073175025434
0.0065                    0.0065                   4.565449506663516
0.0065                    0.0075                   4.585233659305551
0.0065                    0.0085                   4.63043438485438
0.0065                    0.0095                   4.703104937102406
0.0065                    0.0105                   4.795530288510803
0.0065                    0.0115                   4.898855916645294
0.0065                    0.0125                   5.013000837829366