% Model:              Benchmark260518.mph
% Version:            COMSOL 6.2.0.339
% Date:               May 19 2026, 20:46
% Dimension:          2
% Nodes:              4096
% Expressions:        1
% Description:        压力
% Length unit:        m
% x                       y                        p (Pa)
5.0E-4                    -0.0315                  3.346827127082071
5.0E-4                    -0.0305                  3.3753108871986623
5.0E-4                    -0.0295                  3.414093489246874
5.0E-4                    -0.0285                  3.4562907050397764
5.0E-4                    -0.0275                  3.5005329005492944
5.0E-4                    -0.0265                  3.5463190079754474
5.0E-4                    -0.0255                  3.5932762046525295
5.0E-4                    -0.0245                  3.6411675537554284
5.0E-4                    -0.0235                  3.689811613518647
5.0E-4                    -0.0225                  3.739069056858771
5.0E-4                    -0.0215                  3.7888031794894075
5.0E-4                    -0.0205                  3.8388560727015486
5.0E-4                    -0.0195                  3.8890876206959035
5.0E-4                    -0.0185                  3.939431258159912
5.0E-4                    -0.0175                  3.9898546228196787
5.0E-4                    -0.0165                  4.0403210900931406
5.0E-4                    -0.0155                  4.09083736797812
5.0E-4                    -0.0145                  4.1415455689516385
5.0E-4                    -0.0135                  4.192593450452454
5.0E-4                    -0.0125                  4.24401212717337
5.0E-4                    -0.0115                  4.29566702078764
5.0E-4                    -0.0105                  4.346983206737001
5.0E-4                    -0.0095                  4.397458919101768
5.0E-4                    -0.0085                  4.4471468482770025
5.0E-4                    -0.0075                  4.4961979409354935
5.0E-4                    -0.0065                  4.544628519295124
5.0E-4                    -0.0055                  4.5923170381230385
5.0E-4                    -0.0045                  4.638958569120444
5.0E-4                    -0.0035                  4.684120857355132
5.0E-4                    -0.0025                  4.726532426953936
5.0E-4                    -0.0015                  4.763022585898984
5.0E-4                    -5.0E-4                  4.789791569525807
5.0E-4                    5.0E-4                   4.8047550392979765
5.0E-4                    0.0015                   4.810173663115277
5.0E-4                    0.0025                   4.81062663389023
5.0E-4                    0.0035                   4.80854544384289
5.0E-4                    0.0045                   4.804768134984283
5.0E-4                    0.0055                   4.799579801289259
5.0E-4                    0.0065                   4.792383952729672
5.0E-4                    0.0075                   4.800511695912675
5.0E-4                    0.0085                   4.844680160048279
5.0E-4                    0.0095                   4.901524390075304
5.0E-4                    0.0105                   4.940305534442274
5.0E-4                    0.0115                   4.963393472081921
5.0E-4                    0.0125                   4.979994767230031
5.0E-4                    0.0135                   4.992629343003357
5.0E-4                    0.0145                   5.000781225923998
5.0E-4                    0.0155                   5.003047511436749
5.0E-4                    0.0165                   4.99985242253314
5.0E-4                    0.0175                   4.993488436688043
5.0E-4                    0.0185                   4.983969170816927
5.0E-4                    0.0195                   4.97163405668439
5.0E-4                    0.0205                   4.9590863844435145
5.0E-4                    0.0215                   4.947680114681046
5.0E-4                    0.0225                   4.935945549753732
5.0E-4                    0.0235                   4.917062010163912
5.0E-4                    0.0245                   4.891980388363187
5.0E-4                    0.0255                   4.874533678093931
5.0E-4                    0.0265                   4.862748379455734
5.0E-4                    0.0275                   4.84668335076395
5.0E-4                    0.0285                   4.828071615039545
5.0E-4                    0.0295                   4.809276516286162
5.0E-4                    0.0305                   4.7917348789976435
5.0E-4                    0.0315                   4.778840201439847
0.0015                    -0.0315                  3.3178342148115902
0.0015                    -0.0305                  3.3463118424342086
0.0015                    -0.0295                  3.387737853569363
0.0015                    -0.0285                  3.4330738891511414
0.0015                    -0.0275                  3.479913510488685
0.0015                    -0.0265                  3.5277460989148475
0.0015                    -0.0255                  3.5764107637868463
0.0015                    -0.0245                  3.625824502253454
0.0015                    -0.0235                  3.675931173204583
0.0015                    -0.0225                  3.7266651387863456
0.0015                    -0.0215                  3.7779256617642383
0.0015                    -0.0205                  3.8295681110472377
0.0015                    -0.0195                  3.881427610914249
0.0015                    -0.0185                  3.9333564149616533
0.0015                    -0.0175                  3.985242053217444
0.0015                    -0.0165                  4.037015370209666
0.0015                    -0.0155                  4.08868359895424
0.0015                    -0.0145                  4.140335333790253
0.0015                    -0.0135                  4.192084542287281
0.0015                    -0.0125                  4.243963566332345
0.0015                    -0.0115                  4.295810541267174
0.0015                    -0.0105                  4.347317589108526
0.0015                    -0.0095                  4.398251094295137
0.0015                    -0.0085                  4.448620371975659
0.0015                    -0.0075                  4.498616754999283
0.0015                    -0.0065                  4.548414917986159
0.0015                    -0.0055                  4.5980106511078045
0.0015                    -0.0045                  4.647078301046187
0.0015                    -0.0035                  4.694522632320176
0.0015                    -0.0025                  4.7377931641971855
0.0015                    -0.0015                  4.773176011222243
0.0015                    -5.0E-4                  4.797079949129329
0.0015                    5.0E-4                   4.808914649705098
0.0015                    0.0015                   4.812536355192718
0.0015                    0.0025                   4.812023963581893
0.0015                    0.0035                   4.809209892217087
0.0015                    0.0045                   4.80538660336636
0.0015                    0.0055                   4.801456981201429
0.0015                    0.0065                   4.798782159113042
0.0015                    0.0075                   4.802652986948324
0.0015                    0.0085                   4.837813996475175
0.0015                    0.0095                   4.888906965687024
0.0015                    0.0105                   4.920904965412138
0.0015                    0.0115                   4.939991346226156
0.0015                    0.0125                   4.95397664871933
0.0015                    0.0135                   4.965985414603679
0.0015                    0.0145                   4.9759685415961314
0.0015                    0.0155                   4.981621884184454
0.0015                    0.0165                   4.979813052411879
0.0015                    0.0175                   4.970452431187885
0.0015                    0.0185                   4.956499111676134
0.0015                    0.0195                   4.942248041391077
0.0015                    0.0205                   4.92998524743575
0.0015                    0.0215                   4.918812724848868
0.0015                    0.0225                   4.907604493830173
0.0015                    0.0235                   4.893094326457778
0.0015                    0.0245                   4.880135626877537
0.0015                    0.0255                   4.8696655272478715
0.0015                    0.0265                   4.855314361182796
0.0015                    0.0275                   4.8373527712469215
0.0015                    0.0285                   4.817393983353335
0.0015                    0.0295                   4.7973560540566815
0.0015                    0.0305                   4.778669974294236
0.0015                    0.0315                   4.765583870080778
0.0025                    -0.0315                  3.277618139834035
0.0025                    -0.0305                  3.303436300204124
0.0025                    -0.0295                  3.344753615176047
0.0025                    -0.0285                  3.3925520389207287
0.0025                    -0.0275                  3.442531418826805
0.0025                    -0.0265                  3.493316169960764
0.0025                    -0.0255                  3.5446411559302393
0.0025                    -0.0245                  3.5965410333380734
0.0025                    -0.0235                  3.6491041803218853
0.0025                    -0.0225                  3.7023842798025335
0.0025                    -0.0215                  3.756354307323841
0.0025                    -0.0205                  3.8108895337400686
0.0025                    -0.0195                  3.8657766430801423
0.0025                    -0.0185                  3.9207491089212163
0.0025                    -0.0175                  3.975547234149194
0.0025                    -0.0165                  4.029981347435141
0.0025                    -0.0155                  4.08396408699937
0.0025                    -0.0145                  4.137501517872062
0.0025                    -0.0135                  4.190650758615425
0.0025                    -0.0125                  4.243444249187483
0.0025                    -0.0115                  4.295848327276039
0.0025                    -0.0105                  4.347820328633087
0.0025                    -0.0095                  4.399371535726464
0.0025                    -0.0085                  4.450617295012984
0.0025                    -0.0075                  4.5018112803781705
0.0025                    -0.0065                  4.553241379498753
0.0025                    -0.0055                  4.604946962298494
0.0025                    -0.0045                  4.656220157858364
0.0025                    -0.0035                  4.704994291753004
0.0025                    -0.0025                  4.747621735827466
0.0025                    -0.0015                  4.780439804531742
0.0025                    -5.0E-4                  4.801263209334054
0.0025                    5.0E-4                   4.8116995597398535
0.0025                    0.0015                   4.815651834001027
0.0025                    0.0025                   4.815222495861539
0.0025                    0.0035                   4.812079706096931
0.0025                    0.0045                   4.808774518157259
0.0025                    0.0055                   4.807364704050911
0.0025                    0.0065                   4.8104340307842826
0.0025                    0.0075                   4.8253232600632865
0.0025                    0.0085                   4.854340532788706
0.0025                    0.0095                   4.884811892430714
0.0025                    0.0105                   4.90694096071761
0.0025                    0.0115                   4.9224451966594245
0.0025                    0.0125                   4.934857257647722
0.0025                    0.0135                   4.946107817362272
0.0025                    0.0145                   4.9557026089320395
0.0025                    0.0155                   4.960768223060494
0.0025                    0.0165                   4.958187128924537
0.0025                    0.0175                   4.9480990797314925
0.0025                    0.0185                   4.934144167266856
0.0025                    0.0195                   4.920235504799655
0.0025                    0.0205                   4.9078713359226285
0.0025                    0.0215                   4.89660121515529
0.0025                    0.0225                   4.885917776946485
0.0025                    0.0235                   4.875441343002073
0.0025                    0.0245                   4.865210245348061
0.0025                    0.0255                   4.8533189669512
0.0025                    0.0265                   4.8372628391144525
0.0025                    0.0275                   4.818173207615392
0.0025                    0.0285                   4.797809724748124
0.0025                    0.0295                   4.777363101951832
0.0025                    0.0305                   4.758937509474183
0.0025                    0.0315                   4.7469248226924226
0.0035                    -0.0315                  3.2332583530960264
0.0035                    -0.0305                  3.2560324150472386
0.0035                    -0.0295                  3.2948036905057076
0.0035                    -0.0285                  3.34251059817365
0.0035                    -0.0275                  3.394246186510842
0.0035                    -0.0265                  3.447542873512066
0.0035                    -0.0255                  3.50155975403972
0.0035                    -0.0245                  3.556194989257888
0.0035                    -0.0235                  3.611589391945186
0.0035                    -0.0225                  3.6679049413685796
0.0035                    -0.0215                  3.7252142566313196
0.0035                    -0.0205                  3.783438970955654
0.0035                    -0.0195                  3.8423284909796225
0.0035                    -0.0185                  3.901487633381229
0.0035                    -0.0175                  3.960455160670841
0.0035                    -0.0165                  4.018807309635064
0.0035                    -0.0155                  4.07623993408948
0.0035                    -0.0145                  4.132599287805779
0.0035                    -0.0135                  4.187861712549028
0.0035                    -0.0125                  4.242096798996742
0.0035                    -0.0115                  4.2954378558533675
0.0035                    -0.0105                  4.348052715606987
0.0035                    -0.0095                  4.4001373782745
0.0035                    -0.0085                  4.451934398632421
0.0035                    -0.0075                  4.503734093817578
0.0035                    -0.0065                  4.555779059789401
0.0035                    -0.0055                  4.607944495909722
0.0035                    -0.0045                  4.65912272201057
0.0035                    -0.0035                  4.70665969277473
0.0035                    -0.0025                  4.74720145053825
0.0035                    -0.0015                  4.777913084871235
0.0035                    -5.0E-4                  4.798346905907588
0.0035                    5.0E-4                   4.811016421397479
0.0035                    0.0015                   4.817741320296912
0.0035                    0.0025                   4.818963619372652
0.0035                    0.0035                   4.817014952165123
0.0035                    0.0045                   4.815799894998459
0.0035                    0.0055                   4.818281444884569
0.0035                    0.0065                   4.826218951337555
0.0035                    0.0075                   4.840619631678868
0.0035                    0.0085                   4.859608578749545
0.0035                    0.0095                   4.877933481794423
0.0035                    0.0105                   4.893161698750486
0.0035                    0.0115                   4.906266468019341
0.0035                    0.0125                   4.917894220564253
0.0035                    0.0135                   4.928145638806162
0.0035                    0.0145                   4.935801043605601
0.0035                    0.0155                   4.938264249030123
0.0035                    0.0165                   4.934088578238145
0.0035                    0.0175                   4.924524720623453
0.0035                    0.0185                   4.912166891371942
0.0035                    0.0195                   4.899168717722283
0.0035                    0.0205                   4.886757138760642
0.0035                    0.0215                   4.875175573277962
0.0035                    0.0225                   4.864181366212815
0.0035                    0.0235                   4.853144951470602
0.0035                    0.0245                   4.841437667597885
0.0035                    0.0255                   4.828100641116254
0.0035                    0.0265                   4.811720440169062
0.0035                    0.0275                   4.792970480542024
0.0035                    0.0285                   4.773115647793783
0.0035                    0.0295                   4.753269839136331
0.0035                    0.0305                   4.7361449470052435
0.0035                    0.0315                   4.7257288569733555
0.0045                    -0.0315                  3.187021927379254
0.0045                    -0.0305                  3.2071215568686924
0.0045                    -0.0295                  3.2427534886342055
0.0045                    -0.0285                  3.288549104679422
0.0045                    -0.0275                  3.3401654113501005
0.0045                    -0.0265                  3.3947103170868966
0.0045                    -0.0255                  3.450721586915274
0.0045                    -0.0245                  3.5077323466698154
0.0045                    -0.0235                  3.5657813706003925
0.0045                    -0.0225                  3.6250779810552953
0.0045                    -0.0215                  3.6857992963631068
0.0045                    -0.0205                  3.7479587783170327
0.0045                    -0.0195                  3.8113266664450154
0.0045                    -0.0185                  3.875413651361404
0.0045                    -0.0175                  3.939532329095501
0.0045                    -0.0165                  4.00292931415039
0.0045                    -0.0155                  4.06494576293862
0.0045                    -0.0145                  4.125140504313198
0.0045                    -0.0135                  4.183336059865166
0.0045                    -0.0125                  4.239600865518643
0.0045                    -0.0115                  4.294190768613719
0.0045                    -0.0105                  4.347458858095349
0.0045                    -0.0095                  4.3997670397702855
0.0045                    -0.0085                  4.451435631088115
0.0045                    -0.0075                  4.502701720138765
0.0045                    -0.0065                  4.5536053961299
0.0045                    -0.0055                  4.603742167380258
0.0045                    -0.0045                  4.6519244980934165
0.0045                    -0.0035                  4.696011895002886
0.0045                    -0.0025                  4.734114863170031
0.0045                    -0.0015                  4.764488423599292
0.0045                    -5.0E-4                  4.7873923120932105
0.0045                    5.0E-4                   4.8043992339764
0.0045                    0.0015                   4.814717506516863
0.0045                    0.0025                   4.818534016340455
0.0045                    0.0035                   4.819913995770709
0.0045                    0.0045                   4.823532451108729
0.0045                    0.0055                   4.830634965271633
0.0045                    0.0065                   4.839240771694547
0.0045                    0.0075                   4.847837639828666
0.0045                    0.0085                   4.85707481974345
0.0045                    0.0095                   4.867385340388675
0.0045                    0.0105                   4.878601695583954
0.0045                    0.0115                   4.89008122572364
0.0045                    0.0125                   4.900359283496535
0.0045                    0.0135                   4.907760117153901
0.0045                    0.0145                   4.910753191116181
0.0045                    0.0155                   4.908936748129765
0.0045                    0.0165                   4.9033634400940915
0.0045                    0.0175                   4.895532025192134
0.0045                    0.0185                   4.886388077359504
0.0045                    0.0195                   4.876158752708491
0.0045                    0.0205                   4.864939469964288
0.0045                    0.0215                   4.8534085241702165
0.0045                    0.0225                   4.841978005814353
0.0045                    0.0235                   4.830064818983087
0.0045                    0.0245                   4.816592932463763
0.0045                    0.0255                   4.801187739005515
0.0045                    0.0265                   4.784347415528799
0.0045                    0.0275                   4.766221351325152
0.0045                    0.0285                   4.746974751980441
0.0045                    0.0295                   4.727758498571274
0.0045                    0.0305                   4.711865475731834
0.0045                    0.0315                   4.703062250246892
0.0055                    -0.0315                  3.140004830116936
0.0055                    -0.0305                  3.1578170606351232
0.0055                    -0.0295                  3.190424139248703
0.0055                    -0.0285                  3.233634493294802
0.0055                    -0.0275                  3.2838251573726254
0.0055                    -0.0265                  3.338264992574385
0.0055                    -0.0255                  3.3952007117114857
0.0055                    -0.0245                  3.4538007823202506
0.0055                    -0.0235                  3.5138934176444483
0.0055                    -0.0225                  3.575655403031614
0.0055                    -0.0215                  3.6393528930930823
0.0055                    -0.0205                  3.705139998471205
0.0055                    -0.0195                  3.772902844665767
0.0055                    -0.0185                  3.8421601146456563
0.0055                    -0.0175                  3.912053809663565
0.0055                    -0.0165                  3.9814631515773393
0.0055                    -0.0155                  4.049232887222498
0.0055                    -0.0145                  4.114439021676554
0.0055                    -0.0135                  4.17657120772806
0.0055                    -0.0125                  4.235557175417872
0.0055                    -0.0115                  4.291679777744907
0.0055                    -0.0105                  4.3454526574439
0.0055                    -0.0095                  4.397442156505417
0.0055                    -0.0085                  4.448074606939507
0.0055                    -0.0075                  4.497500365057093
0.0055                    -0.0065                  4.545502111514078
0.0055                    -0.0055                  4.5914461951092775
0.0055                    -0.0045                  4.634405930035556
0.0055                    -0.0035                  4.673716229163209
0.0055                    -0.0025                  4.709277370625237
0.0055                    -0.0015                  4.740680223354888
0.0055                    -5.0E-4                  4.767327068169302
0.0055                    5.0E-4                   4.787953286697114
0.0055                    0.0015                   4.800759355394995
0.0055                    0.0025                   4.807934142780012
0.0055                    0.0035                   4.815545141647852
0.0055                    0.0045                   4.826883347969961
0.0055                    0.0055                   4.838741115248243
0.0055                    0.0065                   4.8458271190605515
0.0055                    0.0075                   4.847817816690943
0.0055                    0.0085                   4.849475041093159
0.0055                    0.0095                   4.854472045556502
0.0055                    0.0105                   4.862324569201899
0.0055                    0.0115                   4.870480422568618
0.0055                    0.0125                   4.875830325697316
0.0055                    0.0135                   4.87615782851481
0.0055                    0.0145                   4.8718728292918065
0.0055                    0.0155                   4.865589988460133
0.0055                    0.0165                   4.859918265339247
0.0055                    0.0175                   4.8558058411412555
0.0055                    0.0185                   4.852402790703678
0.0055                    0.0195                   4.8479540399502365
0.0055                    0.0205                   4.840774917925103
0.0055                    0.0215                   4.83090294620986
0.0055                    0.0225                   4.819490490629321
0.0055                    0.0235                   4.806995352051594
0.0055                    0.0245                   4.7927451318335965
0.0055                    0.0255                   4.776107942843694
0.0055                    0.0265                   4.758258826011437
0.0055                    0.0275                   4.74004459135236
0.0055                    0.0285                   4.721101098593475
0.0055                    0.0295                   4.702408875686478
0.0055                    0.0305                   4.687651989361974
0.0055                    0.0315                   4.68033313404062
0.0065                    -0.0315                  3.0925127835605934
0.0065                    -0.0305                  3.108507478670612
0.0065                    -0.0295                  3.138471350633852
0.0065                    -0.0285                  3.179084595226019
0.0065                    -0.0275                  3.2272991989977564
0.0065                    -0.0265                  3.2806996947389653
0.0065                    -0.0255                  3.3375355795143586
0.0065                    -0.0245                  3.396773272099528
0.0065                    -0.0235                  3.458033748733337
0.0065                    -0.0225                  3.5214078679073095
0.0065                    -0.0215                  3.5872224753321023
0.0065                    -0.0205                  3.6558068745353527
0.0065                    -0.0195                  3.727271203833584
0.0065                    -0.0185                  3.801308919266628
0.0065                    -0.0175                  3.8770650834767815
0.0065                    -0.0165                  3.953142981501049
0.0065                    -0.0155                  4.0278147163875975
0.0065                    -0.0145                  4.099414963441598
0.0065                    -0.0135                  4.1667619071566575
0.0065                    -0.0125                  4.22937717998189
0.0065                    -0.0115                  4.287414197970039
0.0065                    -0.0105                  4.341482333931618
0.0065                    -0.0095                  4.392444715559931
0.0065                    -0.0085                  4.441053111115549
0.0065                    -0.0075                  4.487553040078173
0.0065                    -0.0065                  4.531550253865354
0.0065                    -0.0055                  4.572289473868466
0.0065                    -0.0045                  4.60940281123645
0.0065                    -0.0035                  4.643607513067487
0.0065                    -0.0025                  4.676397297607032
0.0065                    -0.0015                  4.708305118755704
0.0065                    -5.0E-4                  4.737070080745453
0.0065                    5.0E-4                   4.758989278372794
0.0065                    0.0015                   4.773409246489965
0.0065                    0.0025                   4.785718467615701
0.0065                    0.0035                   4.802379998251572
0.0065                    0.0045                   4.822854965999274
0.0065                    0.0055                   4.839440922749775
0.0065                    0.0065                   4.845238044199358
0.0065                    0.0075                   4.841919125072679
0.0065                    0.0085                   4.837475614839138
0.0065                    0.0095                   4.836774856472587
0.0065                    0.0105                   4.838429668783439
0.0065                    0.0115                   4.838212895205745
0.0065                    0.0125                   4.832681348753207