% Model:              Benchmark260518.mph
% Version:            COMSOL 6.2.0.339
% Date:               May 21 2026, 03:38
% Dimension:          2
% Nodes:              4096
% Expressions:        1
% Description:        压力
% Length unit:        m
% x                       y                        p (Pa)
5.0E-4                    -0.0315                  3.0110643221142652
5.0E-4                    -0.0305                  3.0318601577688655
5.0E-4                    -0.0295                  3.0603867965272027
5.0E-4                    -0.0285                  3.091657444266644
5.0E-4                    -0.0275                  3.1242953497338153
5.0E-4                    -0.0265                  3.1578503662492756
5.0E-4                    -0.0255                  3.1921282615957596
5.0E-4                    -0.0245                  3.226976585469514
5.0E-4                    -0.0235                  3.262297744654951
5.0E-4                    -0.0225                  3.2980268351483866
5.0E-4                    -0.0215                  3.3341145910305174
5.0E-4                    -0.0205                  3.3705296123600554
5.0E-4                    -0.0195                  3.407254281241241
5.0E-4                    -0.0185                  3.4442824569711528
5.0E-4                    -0.0175                  3.481618491587612
5.0E-4                    -0.0165                  3.519273639104516
5.0E-4                    -0.0155                  3.5572622081956164
5.0E-4                    -0.0145                  3.59559749402576
5.0E-4                    -0.0135                  3.6342846589100364
5.0E-4                    -0.0125                  3.67331029191587
5.0E-4                    -0.0115                  3.7126363384153045
5.0E-4                    -0.0105                  3.7521909587226148
5.0E-4                    -0.0095                  3.791862117721152
5.0E-4                    -0.0085                  3.8315050595443605
5.0E-4                    -0.0075                  3.8709545443757296
5.0E-4                    -0.0065                  3.9100375163535945
5.0E-4                    -0.0055                  3.948588450750639
5.0E-4                    -0.0045                  3.9864670451970206
5.0E-4                    -0.0035                  4.023557001283225
5.0E-4                    -0.0025                  4.059750385011737
5.0E-4                    -0.0015                  4.094937302264034
5.0E-4                    -5.0E-4                  4.129109928606092
5.0E-4                    5.0E-4                   4.162256637650616
5.0E-4                    0.0015                   4.193867242651098
5.0E-4                    0.0025                   4.222879954142548
5.0E-4                    0.0035                   4.247956645486582
5.0E-4                    0.0045                   4.267476632576075
5.0E-4                    0.0055                   4.27980265516887
5.0E-4                    0.0065                   4.284761392762988
5.0E-4                    0.0075                   4.2848380106457755
5.0E-4                    0.0085                   4.28295536436346
5.0E-4                    0.0095                   4.280152567096296
5.0E-4                    0.0105                   4.279065555926977
5.0E-4                    0.0115                   4.307236126724116
5.0E-4                    0.0125                   4.419146616037918
5.0E-4                    0.0135                   4.58414455428232
5.0E-4                    0.0145                   4.710158887956623
5.0E-4                    0.0155                   4.790679108385961
5.0E-4                    0.0165                   4.857157556454656
5.0E-4                    0.0175                   4.907930688120915
5.0E-4                    0.0185                   4.9330210545395055
5.0E-4                    0.0195                   4.938509115121863
5.0E-4                    0.0205                   4.925774155862102
5.0E-4                    0.0215                   4.896154546483835
5.0E-4                    0.0225                   4.861345863851832
5.0E-4                    0.0235                   4.825822645909197
5.0E-4                    0.0245                   4.790533600185732
5.0E-4                    0.0255                   4.755512983582589
5.0E-4                    0.0265                   4.720951900470587
5.0E-4                    0.0275                   4.687020959131994
5.0E-4                    0.0285                   4.654021861863141
5.0E-4                    0.0295                   4.622397651905301
5.0E-4                    0.0305                   4.59328938677142
5.0E-4                    0.0315                   4.571933707276393
0.0015                    -0.0315                  2.9902332949104515
0.0015                    -0.0305                  3.0110673266641177
0.0015                    -0.0295                  3.0414979560504807
0.0015                    -0.0285                  3.0750137005200964
0.0015                    -0.0275                  3.1096742066059084
0.0015                    -0.0265                  3.1448995090925083
0.0015                    -0.0255                  3.1805235855908727
0.0015                    -0.0245                  3.2164785328053918
0.0015                    -0.0235                  3.252715148397104
0.0015                    -0.0225                  3.2891989624752473
0.0015                    -0.0215                  3.3259038814730175
0.0015                    -0.0205                  3.3628114194698058
0.0015                    -0.0195                  3.3999141837896576
0.0015                    -0.0185                  3.4372180359954188
0.0015                    -0.0175                  3.4747441661739193
0.0015                    -0.0165                  3.5125298607176223
0.0015                    -0.0155                  3.550627475636211
0.0015                    -0.0145                  3.589101064188132
0.0015                    -0.0135                  3.6280194339921854
0.0015                    -0.0125                  3.6674445974202894
0.0015                    -0.0115                  3.70741474116692
0.0015                    -0.0105                  3.7479232021626157
0.0015                    -0.0095                  3.7888978331384906
0.0015                    -0.0085                  3.8301904109840077
0.0015                    -0.0075                  3.871583681604463
0.0015                    -0.0065                  3.912816801650593
0.0015                    -0.0055                  3.9536242828868122
0.0015                    -0.0045                  3.993772076166876
0.0015                    -0.0035                  4.033074680148086
0.0015                    -0.0025                  4.071393578479089
0.0015                    -0.0015                  4.108648385217684
0.0015                    -5.0E-4                  4.1447798741508315
0.0015                    5.0E-4                   4.1794991713219485
0.0015                    0.0015                   4.212026359562989
0.0015                    0.0025                   4.241062428274718
0.0015                    0.0035                   4.264800076585838
0.0015                    0.0045                   4.281192565133443
0.0015                    0.0055                   4.289100433883286
0.0015                    0.0065                   4.289987932796738
0.0015                    0.0075                   4.287497936544452
0.0015                    0.0085                   4.28419770386364
0.0015                    0.0095                   4.279922000578933
0.0015                    0.0105                   4.27829103124443
0.0015                    0.0115                   4.2736859843281145
0.0015                    0.0125                   4.347050307443398
0.0015                    0.0135                   4.4816800104144825
0.0015                    0.0145                   4.564574280825335
0.0015                    0.0155                   4.6136247164613815
0.0015                    0.0165                   4.659369635477923
0.0015                    0.0175                   4.7087333903013455
0.0015                    0.0185                   4.761954902714867
0.0015                    0.0195                   4.813301112902598
0.0015                    0.0205                   4.846485360804417
0.0015                    0.0215                   4.85018887338164
0.0015                    0.0225                   4.8318901151138425
0.0015                    0.0235                   4.804415251460989
0.0015                    0.0245                   4.77316612360622
0.0015                    0.0255                   4.74005821123084
0.0015                    0.0265                   4.705979053675973
0.0015                    0.0275                   4.671470189004654
0.0015                    0.0285                   4.636960788729947
0.0015                    0.0295                   4.6030871430120746
0.0015                    0.0305                   4.571904518242922
0.0015                    0.0315                   4.55048301861504
0.0025                    -0.0315                  2.9615155108860445
0.0025                    -0.0305                  2.9805498215788537
0.0025                    -0.0295                  3.0110669180480376
0.0025                    -0.0285                  3.0464749586886697
0.0025                    -0.0275                  3.083564189003409
0.0025                    -0.0265                  3.1211729139263884
0.0025                    -0.0255                  3.1589266426659184
0.0025                    -0.0245                  3.1967240456831028
0.0025                    -0.0235                  3.234541070831936
0.0025                    -0.0225                  3.272367973460815
0.0025                    -0.0215                  3.3101980275157
0.0025                    -0.0205                  3.348026836861526
0.0025                    -0.0195                  3.385857843995259
0.0025                    -0.0185                  3.423711020325041
0.0025                    -0.0175                  3.461631164894586
0.0025                    -0.0165                  3.499694845581053
0.0025                    -0.0155                  3.53801433482079
0.0025                    -0.0145                  3.576737189595786
0.0025                    -0.0135                  3.616040032060419
0.0025                    -0.0125                  3.6561137794799685
0.0025                    -0.0115                  3.697136762696249
0.0025                    -0.0105                  3.7392352281984396
0.0025                    -0.0095                  3.7824361510186395
0.0025                    -0.0085                  3.8266251908106033
0.0025                    -0.0075                  3.8715308532440402
0.0025                    -0.0065                  3.9167516314601674
0.0025                    -0.0055                  3.9618225632733663
0.0025                    -0.0045                  4.006294683828292
0.0025                    -0.0035                  4.049794999337295
0.0025                    -0.0025                  4.092049223065206
0.0025                    -0.0015                  4.13283385712538
0.0025                    -5.0E-4                  4.1718105133216445
0.0025                    5.0E-4                   4.208324790077959
0.0025                    0.0015                   4.241216072432804
0.0025                    0.0025                   4.268676542611134
0.0025                    0.0035                   4.288512990679996
0.0025                    0.0045                   4.299067390803346
0.0025                    0.0055                   4.301052166010293
0.0025                    0.0065                   4.297871336315712
0.0025                    0.0075                   4.293005994801636
0.0025                    0.0085                   4.287397689571986
0.0025                    0.0095                   4.282313502125261
0.0025                    0.0105                   4.279133136762429
0.0025                    0.0115                   4.2946436475175975
0.0025                    0.0125                   4.358882498305962
0.0025                    0.0135                   4.437969276813775
0.0025                    0.0145                   4.487305073113454
0.0025                    0.0155                   4.518895842953289
0.0025                    0.0165                   4.548271785195506
0.0025                    0.0175                   4.584668537369355
0.0025                    0.0185                   4.635468221047148
0.0025                    0.0195                   4.69507449451992
0.0025                    0.0205                   4.745325081248679
0.0025                    0.0215                   4.773365016706176
0.0025                    0.0225                   4.777040939490357
0.0025                    0.0235                   4.763204812501511
0.0025                    0.0245                   4.739523568465257
0.0025                    0.0255                   4.710273723913015
0.0025                    0.0265                   4.677617193410894
0.0025                    0.0275                   4.6428235220742575
0.0025                    0.0285                   4.606928283714586
0.0025                    0.0295                   4.571551293119442
0.0025                    0.0305                   4.54047334031711
0.0025                    0.0315                   4.521107798985779
0.0035                    -0.0315                  2.929684718947216
0.0035                    -0.0305                  2.946682552919386
0.0035                    -0.0295                  2.9756052827239823
0.0035                    -0.0285                  3.0112383033599377
0.0035                    -0.0275                  3.049920451442236
0.0035                    -0.0265                  3.0896889617296943
0.0035                    -0.0255                  3.1296994514626886
0.0035                    -0.0245                  3.1696334319839474
0.0035                    -0.0235                  3.2093862089594998
0.0035                    -0.0225                  3.2489266049526826
0.0035                    -0.0215                  3.288243537683289
0.0035                    -0.0205                  3.327332668721802
0.0035                    -0.0195                  3.366199265180664
0.0035                    -0.0185                  3.404869646772104
0.0035                    -0.0175                  3.4434062560050367
0.0035                    -0.0165                  3.4819220313560972
0.0035                    -0.0155                  3.520590957760681
0.0035                    -0.0145                  3.559652242895562
0.0035                    -0.0135                  3.59940579222592
0.0035                    -0.0125                  3.6401958806185024
0.0035                    -0.0115                  3.6823786327502557
0.0035                    -0.0105                  3.726268760864565
0.0035                    -0.0095                  3.77206588069505
0.0035                    -0.0085                  3.819772260192514
0.0035                    -0.0075                  3.869129440645917
0.0035                    -0.0065                  3.9196097724201566
0.0035                    -0.0055                  3.970484990950069
0.0035                    -0.0045                  4.0209552798828945
0.0035                    -0.0035                  4.070277810144326
0.0035                    -0.0025                  4.117815151654526
0.0035                    -0.0015                  4.162957118777543
0.0035                    -5.0E-4                  4.204942776718031
0.0035                    5.0E-4                   4.242642654674123
0.0035                    0.0015                   4.274419362549242
0.0035                    0.0025                   4.298196682642468
0.0035                    0.0035                   4.312134678180762
0.0035                    0.0045                   4.31624052144142
0.0035                    0.0055                   4.31344392622457
0.0035                    0.0065                   4.307732701397818
0.0035                    0.0075                   4.301114649449928
0.0035                    0.0085                   4.294228534234901
0.0035                    0.0095                   4.289039877636006
0.0035                    0.0105                   4.287951385035677
0.0035                    0.0115                   4.310756767136533
0.0035                    0.0125                   4.361969679774969
0.0035                    0.0135                   4.410345193958129
0.0035                    0.0145                   4.440750111217933
0.0035                    0.0155                   4.462312609238766
0.0035                    0.0165                   4.4840283883816
0.0035                    0.0175                   4.511565309766338
0.0035                    0.0185                   4.551139376547227
0.0035                    0.0195                   4.600954980752114
0.0035                    0.0205                   4.650593516206891
0.0035                    0.0215                   4.688192489982782
0.0035                    0.0225                   4.706848648120866
0.0035                    0.0235                   4.706767944503845
0.0035                    0.0245                   4.6924622162269625
0.0035                    0.0255                   4.668682740576761
0.0035                    0.0265                   4.638730181153143
0.0035                    0.0275                   4.604873977943978
0.0035                    0.0285                   4.569215898664844
0.0035                    0.0295                   4.534671981240891
0.0035                    0.0305                   4.505877957246417
0.0035                    0.0315                   4.489033657813733
0.0045                    -0.0315                  2.8959965891817845
0.0045                    -0.0305                  2.911311424460561
0.0045                    -0.0295                  2.9382815830244033
0.0045                    -0.0285                  2.9729386097242028
0.0045                    -0.0275                  3.0120054806695222
0.0045                    -0.0265                  3.053160959328947
0.0045                    -0.0255                  3.095058560235586
0.0045                    -0.0245                  3.1370344160590538
0.0045                    -0.0235                  3.178792900979493
0.0045                    -0.0225                  3.220209547342476
0.0045                    -0.0215                  3.261229726972539
0.0045                    -0.0205                  3.301826047460152
0.0045                    -0.0195                  3.3419890231823914
0.0045                    -0.0185                  3.3817361034911637
0.0045                    -0.0175                  3.4211307715333543
0.0045                    -0.0165                  3.4603047453574836
0.0045                    -0.0155                  3.499476909575874
0.0045                    -0.0145                  3.5389639373460513
0.0045                    -0.0135                  3.5791791455475677
0.0045                    -0.0125                  3.620617064289979
0.0045                    -0.0115                  3.663820234063757
0.0045                    -0.0105                  3.7093222350387944
0.0045                    -0.0095                  3.757560360438238
0.0045                    -0.0085                  3.8087587664794857
0.0045                    -0.0075                  3.8628018356954694
0.0045                    -0.0065                  3.9191437145789614
0.0045                    -0.0055                  3.9768138719415136
0.0045                    -0.0045                  4.034548571473834
0.0045                    -0.0035                  4.090995552848069
0.0045                    -0.0025                  4.14485922011729
0.0045                    -0.0015                  4.194884981665503
0.0045                    -5.0E-4                  4.239709669164509
0.0045                    5.0E-4                   4.277673445781489
0.0045                    0.0015                   4.306812549520464
0.0045                    0.0025                   4.325406138878675
0.0045                    0.0035                   4.333027399712171
0.0045                    0.0045                   4.332006055480003
0.0045                    0.0055                   4.326469523026353
0.0045                    0.0065                   4.319355086566426
0.0045                    0.0075                   4.311493577226843
0.0045                    0.0085                   4.304594798835251
0.0045                    0.0095                   4.298880356757218
0.0045                    0.0105                   4.3021512560677575
0.0045                    0.0115                   4.326791295787666
0.0045                    0.0125                   4.3623898312770955
0.0045                    0.0135                   4.390221090987328
0.0045                    0.0145                   4.408669882084529
0.0045                    0.0155                   4.424908149085403
0.0045                    0.0165                   4.442857615976338
0.0045                    0.0175                   4.464910796490078
0.0045                    0.0185                   4.494197026412601
0.0045                    0.0195                   4.531247359292013
0.0045                    0.0205                   4.572170939774958
0.0045                    0.0215                   4.60872828881151
0.0045                    0.0225                   4.6330901036906615
0.0045                    0.0235                   4.641929304581746
0.0045                    0.0245                   4.636008223234581
0.0045                    0.0255                   4.618328382536587
0.0045                    0.0265                   4.592290634415491
0.0045                    0.0275                   4.560991674976675
0.0045                    0.0285                   4.527554359216477
0.0045                    0.0295                   4.4956856440130855
0.0045                    0.0305                   4.469940008639028
0.0045                    0.0315                   4.455322982044695
0.0055                    -0.0315                  2.8610037927658105
0.0055                    -0.0305                  2.8750158800126435
0.0055                    -0.0295                  2.900214710167842
0.0055                    -0.0285                  2.933478499669203
0.0055                    -0.0275                  2.9720639235706603
0.0055                    -0.0265                  3.0137338220015963
0.0055                    -0.0255                  3.056885260103038
0.0055                    -0.0245                  3.1005286982980644
0.0055                    -0.0235                  3.1441220971158677
0.0055                    -0.0225                  3.1873882753995013
0.0055                    -0.0215                  3.2301862902422034
0.0055                    -0.0205                  3.2724391150455467
0.0055                    -0.0195                  3.3141035311918965
0.0055                    -0.0185                  3.3551693069743784
0.0055                    -0.0175                  3.3956776138029356
0.0055                    -0.0165                  3.435749658832919
0.0055                    -0.0155                  3.4756158795785237
0.0055                    -0.0145                  3.515636536152617
0.0055                    -0.0135                  3.5563072717487074
0.0055                    -0.0125                  3.5982468715865807
0.0055                    -0.0115                  3.64216639715572
0.0055                    -0.0105                  3.6888166845001624
0.0055                    -0.0095                  3.738904819873347
0.0055                    -0.0085                  3.792965761954747
0.0055                    -0.0075                  3.8511851324919846
0.0055                    -0.0065                  3.913201515511906
0.0055                    -0.0055                  3.977964812201637
0.0055                    -0.0045                  4.043751847030935
0.0055                    -0.0035                  4.108383346601003
0.0055                    -0.0025                  4.169544955150119
0.0055                    -0.0015                  4.224991952995082
0.0055                    -5.0E-4                  4.272535586363065
0.0055                    5.0E-4                   4.310035810371757
0.0055                    0.0015                   4.3356644040477725
0.0055                    0.0025                   4.348758709973964
0.0055                    0.0035                   4.351098216264587
0.0055                    0.0045                   4.346887551626679
0.0055                    0.0055                   4.340189077379135
0.0055                    0.0065                   4.332362612349302
0.0055                    0.0075                   4.324460539114637
0.0055                    0.0085                   4.317155761702258
0.0055                    0.0095                   4.311944852338189
0.0055                    0.0105                   4.318598133596266
0.0055                    0.0115                   4.3369912838559
0.0055                    0.0125                   4.3572094814192
0.0055                    0.0135                   4.372663949739113
0.0055                    0.0145                   4.384454048168225
0.0055                    0.0155                   4.397681789713184
0.0055                    0.0165                   4.412299457587167
0.0055                    0.0175                   4.430146452119587
0.0055                    0.0185                   4.452429974920809
0.0055                    0.0195                   4.479610530674362
0.0055                    0.0205                   4.510620326408743
0.0055                    0.0215                   4.540671636611553
0.0055                    0.0225                   4.563803518641578
0.0055                    0.0235                   4.575737198791345
0.0055                    0.0245                   4.5750193476471885
0.0055                    0.0255                   4.56263339835923
0.0055                    0.0265                   4.541103202910827
0.0055                    0.0275                   4.513656074632574
0.0055                    0.0285                   4.4838619526337755
0.0055                    0.0295                   4.455587953851365
0.0055                    0.0305                   4.433002866397002
0.0055                    0.0315                   4.42031793431444
0.0065                    -0.0315                  2.8250081914110954
0.0065                    -0.0305                  2.838028949293074
0.0065                    -0.0295                  2.8617613583192
0.0065                    -0.0285                  2.8936401211518366
0.0065                    -0.0275                  2.931356257598692
0.0065                    -0.0265                  2.972904892832374
0.0065                    -0.0255                  3.0166693226546952
0.0065                    -0.0245                  3.061478044461559
0.0065                    -0.0235                  3.1065734319028593
0.0065                    -0.0225                  3.151507319032631
0.0065                    -0.0215                  3.1960255845389716
0.0065                    -0.0205                  3.239980669802971
0.0065                    -0.0195                  3.283280606520921
0.0065                    -0.0185                  3.3258717322303575
0.0065                    -0.0175                  3.36774942744387
0.0065                    -0.0165                  3.408989122893402
0.0065                    -0.0155                  3.4497865712560056
0.0065                    -0.0145                  3.4904937101144617
0.0065                    -0.0135                  3.5316376570631487
0.0065                    -0.0125                  3.573916226624395
0.0065                    -0.0115                  3.618170423335706
0.0065                    -0.0105                  3.6653372238018966
0.0065                    -0.0095                  3.7163799369566233
0.0065                    -0.0085                  3.7721775213524404
0.0065                    -0.0075                  3.833340616513605
0.0065                    -0.0065                  3.8999361062121984
0.0065                    -0.0055                  3.9711581516317174
0.0065                    -0.0045                  4.045078992729106
0.0065                    -0.0035                  4.118673535103891
0.0065                    -0.0025                  4.188223482347702
0.0065                    -0.0015                  4.2499610167933115
0.0065                    -5.0E-4                  4.300586392496175
0.0065                    5.0E-4                   4.337576843037955
0.0065                    0.0015                   4.359735372209385
0.0065                    0.0025                   4.368145052898451
0.0065                    0.0035                   4.3669545595189625
0.0065                    0.0045                   4.361363405647866
0.0065                    0.0055                   4.354388364755751
0.0065                    0.0065                   4.346992267044828
0.0065                    0.0075                   4.339498046141365
0.0065                    0.0085                   4.331266198615781
0.0065                    0.0095                   4.327269342048987
0.0065                    0.0105                   4.331755789472263
0.0065                    0.0115                   4.340529862735397