% Model:              Benchmark260518.mph
% Version:            COMSOL 6.2.0.339
% Date:               May 20 2026, 02:05
% Dimension:          2
% Nodes:              4096
% Expressions:        1
% Description:        压力
% Length unit:        m
% x                       y                        p (Pa)
5.0E-4                    -0.0315                  3.7013582251570676
5.0E-4                    -0.0305                  3.7226035513057734
5.0E-4                    -0.0295                  3.7515495102275693
5.0E-4                    -0.0285                  3.7830237709944456
5.0E-4                    -0.0275                  3.8159123879498926
5.0E-4                    -0.0265                  3.849813304952729
5.0E-4                    -0.0255                  3.8844349594698437
5.0E-4                    -0.0245                  3.9195634864344946
5.0E-4                    -0.0235                  3.9550712013489324
5.0E-4                    -0.0225                  3.990894072429972
5.0E-4                    -0.0215                  4.026976443657844
5.0E-4                    -0.0205                  4.063291401735576
5.0E-4                    -0.0195                  4.0998378174795915
5.0E-4                    -0.0185                  4.136625487423271
5.0E-4                    -0.0175                  4.173677130392536
5.0E-4                    -0.0165                  4.211034069819683
5.0E-4                    -0.0155                  4.248754707426941
5.0E-4                    -0.0145                  4.28692057564332
5.0E-4                    -0.0135                  4.325659938026936
5.0E-4                    -0.0125                  4.365177676596534
5.0E-4                    -0.0115                  4.405812284812118
5.0E-4                    -0.0105                  4.448062755998573
5.0E-4                    -0.0095                  4.492401968453351
5.0E-4                    -0.0085                  4.538571150261193
5.0E-4                    -0.0075                  4.584695407095609
5.0E-4                    -0.0065                  4.627562427197592
5.0E-4                    -0.0055                  4.6637515094074296
5.0E-4                    -0.0045                  4.689072271792531
5.0E-4                    -0.0035                  4.702337498113102
5.0E-4                    -0.0025                  4.70717209034231
5.0E-4                    -0.0015                  4.70686873902061
5.0E-4                    -5.0E-4                  4.703221437643929
5.0E-4                    5.0E-4                   4.69739927094254
5.0E-4                    0.0015                   4.689853038918284
5.0E-4                    0.0025                   4.6806171361748845
5.0E-4                    0.0035                   4.669840550664433
5.0E-4                    0.0045                   4.658164048681125
5.0E-4                    0.0055                   4.645900248716831
5.0E-4                    0.0065                   4.632629475405232
5.0E-4                    0.0075                   4.645658396622723
5.0E-4                    0.0085                   4.732539361822874
5.0E-4                    0.0095                   4.8549652906397
5.0E-4                    0.0105                   4.940518653049402
5.0E-4                    0.0115                   4.986501484953659
5.0E-4                    0.0125                   5.011031286509312
5.0E-4                    0.0135                   5.024358741655141
5.0E-4                    0.0145                   5.030402990285048
5.0E-4                    0.0155                   5.028803615838195
5.0E-4                    0.0165                   5.018494837798853
5.0E-4                    0.0175                   5.00158296035633
5.0E-4                    0.0185                   4.981388559809538
5.0E-4                    0.0195                   4.962153887435497
5.0E-4                    0.0205                   4.948136709719995
5.0E-4                    0.0215                   4.940206257444795
5.0E-4                    0.0225                   4.936499959451629
5.0E-4                    0.0235                   4.926176750287604
5.0E-4                    0.0245                   4.900836056202252
5.0E-4                    0.0255                   4.872774290612622
5.0E-4                    0.0265                   4.8475721385311985
5.0E-4                    0.0275                   4.820625666974805
5.0E-4                    0.0285                   4.793284561631272
5.0E-4                    0.0295                   4.766228430332974
5.0E-4                    0.0305                   4.741306454138313
5.0E-4                    0.0315                   4.7230067848068344
0.0015                    -0.0315                  3.679976033889386
0.0015                    -0.0305                  3.7013467857483424
0.0015                    -0.0295                  3.732508364732153
0.0015                    -0.0285                  3.766631132416342
0.0015                    -0.0275                  3.8018157014955047
0.0015                    -0.0265                  3.837595206404403
0.0015                    -0.0255                  3.873775433865972
0.0015                    -0.0245                  3.910217460517504
0.0015                    -0.0235                  3.94681955653221
0.0015                    -0.0225                  3.983518037660656
0.0015                    -0.0215                  4.020270878324342
0.0015                    -0.0205                  4.057049861692823
0.0015                    -0.0195                  4.093844884519822
0.0015                    -0.0185                  4.130661612641575
0.0015                    -0.0175                  4.167519149122537
0.0015                    -0.0165                  4.204450709082405
0.0015                    -0.0155                  4.241507086220549
0.0015                    -0.0145                  4.278769168521697
0.0015                    -0.0135                  4.316380459905389
0.0015                    -0.0125                  4.35460564754035
0.0015                    -0.0115                  4.393900468183302
0.0015                    -0.0105                  4.434938453650489
0.0015                    -0.0095                  4.478447727404934
0.0015                    -0.0085                  4.524734818567462
0.0015                    -0.0075                  4.572800531509634
0.0015                    -0.0065                  4.619437856089068
0.0015                    -0.0055                  4.660146840888875
0.0015                    -0.0045                  4.688622473260956
0.0015                    -0.0035                  4.7032874723092855
0.0015                    -0.0025                  4.708757468083311
0.0015                    -0.0015                  4.708227759674517
0.0015                    -5.0E-4                  4.704007847479886
0.0015                    5.0E-4                   4.697797600666082
0.0015                    0.0015                   4.690048796677581
0.0015                    0.0025                   4.680785838392705
0.0015                    0.0035                   4.670250311465658
0.0015                    0.0045                   4.659444754225625
0.0015                    0.0055                   4.650360335690312
0.0015                    0.0065                   4.648889500057804
0.0015                    0.0075                   4.667306725529951
0.0015                    0.0085                   4.754717141719877
0.0015                    0.0095                   4.872393316747198
0.0015                    0.0105                   4.942799776263304
0.0015                    0.0115                   4.978119170258706
0.0015                    0.0125                   4.99549915759799
0.0015                    0.0135                   5.005439918007151
0.0015                    0.0145                   5.011443470800754
0.0015                    0.0155                   5.012624847685801
0.0015                    0.0165                   5.003934022464133
0.0015                    0.0175                   4.981887924582699
0.0015                    0.0185                   4.952366011619597
0.0015                    0.0195                   4.927254673190848
0.0015                    0.0205                   4.910939974981123
0.0015                    0.0215                   4.900538359994821
0.0015                    0.0225                   4.894259470300443
0.0015                    0.0235                   4.886725124524636
0.0015                    0.0245                   4.874035402707838
0.0015                    0.0255                   4.855460525879597
0.0015                    0.0265                   4.831201831135424
0.0015                    0.0275                   4.804842435557301
0.0015                    0.0285                   4.7775191600959985
0.0015                    0.0295                   4.749431340728601
0.0015                    0.0305                   4.722931482252836
0.0015                    0.0315                   4.704335620344851
0.0025                    -0.0315                  3.6505514982923306
0.0025                    -0.0305                  3.6701115177454073
0.0025                    -0.0295                  3.7015851692512256
0.0025                    -0.0285                  3.7380689641841127
0.0025                    -0.0275                  3.7762261557516483
0.0025                    -0.0265                  3.8148846873969697
0.0025                    -0.0255                  3.853660528832752
0.0025                    -0.0245                  3.892385018413884
0.0025                    -0.0235                  3.930949681014894
0.0025                    -0.0225                  3.9692737797734465
0.0025                    -0.0215                  4.007299357674774
0.0025                    -0.0205                  4.044983436308549
0.0025                    -0.0195                  4.082296173658998
0.0025                    -0.0185                  4.11922575043167
0.0025                    -0.0175                  4.1557800639272156
0.0025                    -0.0165                  4.191985954038028
0.0025                    -0.0155                  4.227893013939241
0.0025                    -0.0145                  4.26359150748577
0.0025                    -0.0135                  4.299255238618645
0.0025                    -0.0125                  4.335216509305086
0.0025                    -0.0115                  4.372050574422297
0.0025                    -0.0105                  4.410607530883564
0.0025                    -0.0095                  4.451921597235875
0.0025                    -0.0085                  4.496833494090778
0.0025                    -0.0075                  4.545200940424474
0.0025                    -0.0065                  4.594722898597237
0.0025                    -0.0055                  4.640989554954304
0.0025                    -0.0045                  4.676943834655564
0.0025                    -0.0035                  4.699089397849328
0.0025                    -0.0025                  4.709156601071399
0.0025                    -0.0015                  4.709249070285688
0.0025                    -5.0E-4                  4.70331177281183
0.0025                    5.0E-4                   4.695449370970822
0.0025                    0.0015                   4.687740916357825
0.0025                    0.0025                   4.6809833636772336
0.0025                    0.0035                   4.675809210567538
0.0025                    0.0045                   4.673944049977028
0.0025                    0.0055                   4.68043325809796
0.0025                    0.0065                   4.704587844331266
0.0025                    0.0075                   4.76103762223448
0.0025                    0.0085                   4.842755647038758
0.0025                    0.0095                   4.912887943905897
0.0025                    0.0105                   4.953106745149388
0.0025                    0.0115                   4.972499855307209
0.0025                    0.0125                   4.982662506389229
0.0025                    0.0135                   4.9898989726115115
0.0025                    0.0145                   4.995183717737148
0.0025                    0.0155                   4.9956717253134375
0.0025                    0.0165                   4.984777887050754
0.0025                    0.0175                   4.958955934011772
0.0025                    0.0185                   4.925331818429893
0.0025                    0.0195                   4.895868516095925
0.0025                    0.0205                   4.875945481689062
0.0025                    0.0215                   4.863281346296024
0.0025                    0.0225                   4.854193126814778
0.0025                    0.0235                   4.845957012525142
0.0025                    0.0245                   4.835322877516016
0.0025                    0.0255                   4.819440664992813
0.0025                    0.0265                   4.798502554253062
0.0025                    0.0275                   4.774879723821092
0.0025                    0.0285                   4.749158348279818
0.0025                    0.0295                   4.721490800621364
0.0025                    0.0305                   4.695377335500471
0.0025                    0.0315                   4.678188783427354
0.0035                    -0.0315                  3.618237131596813
0.0035                    -0.0305                  3.6356402081698285
0.0035                    -0.0295                  3.6655985039222907
0.0035                    -0.0285                  3.7026470752748346
0.0035                    -0.0275                  3.7429443064845866
0.0035                    -0.0265                  3.7844196447386462
0.0035                    -0.0255                  3.8261341259404764
0.0035                    -0.0245                  3.867656998383596
0.0035                    -0.0235                  3.9087483259079376
0.0035                    -0.0225                  3.949246125157418
0.0035                    -0.0215                  3.9890315518413706
0.0035                    -0.0205                  4.028014952765773
0.0035                    -0.0195                  4.066127800801144
0.0035                    -0.0185                  4.103324700099382
0.0035                    -0.0175                  4.139592071311507
0.0035                    -0.0165                  4.1749544713302384
0.0035                    -0.0155                  4.209478465649455
0.0035                    -0.0145                  4.243286046040259
0.0035                    -0.0135                  4.2765911065036315
0.0035                    -0.0125                  4.309760191760308
0.0035                    -0.0115                  4.343393442427988
0.0035                    -0.0105                  4.378389478634688
0.0035                    -0.0095                  4.415901911950684
0.0035                    -0.0085                  4.4571014056142815
0.0035                    -0.0075                  4.502511183241328
0.0035                    -0.0065                  4.55150084543322
0.0035                    -0.0055                  4.601603341347435
0.0035                    -0.0045                  4.64727036021806
0.0035                    -0.0035                  4.681128108104658
0.0035                    -0.0025                  4.697070356609195
0.0035                    -0.0015                  4.695555632178574
0.0035                    -5.0E-4                  4.685283520599524
0.0035                    5.0E-4                   4.675712847839092
0.0035                    0.0015                   4.6719617333250945
0.0035                    0.0025                   4.675795367869403
0.0035                    0.0035                   4.687869666918281
0.0035                    0.0045                   4.709893817043156
0.0035                    0.0055                   4.745478437789114
0.0035                    0.0065                   4.797479611508125
0.0035                    0.0075                   4.860568011557067
0.0035                    0.0085                   4.917074509174859
0.0035                    0.0095                   4.950513362195256
0.0035                    0.0105                   4.9628683878561795
0.0035                    0.0115                   4.966945744116813
0.0035                    0.0125                   4.970646372063706
0.0035                    0.0135                   4.975174461248894
0.0035                    0.0145                   4.978573813284385
0.0035                    0.0155                   4.9761968232651865
0.0035                    0.0165                   4.960986327308531
0.0035                    0.0175                   4.930759934938319
0.0035                    0.0185                   4.893345261280739
0.0035                    0.0195                   4.859900499995292
0.0035                    0.0205                   4.836906038310316
0.0035                    0.0215                   4.822480048862713
0.0035                    0.0225                   4.810946642816862
0.0035                    0.0235                   4.799483455948279
0.0035                    0.0245                   4.787205470841636
0.0035                    0.0255                   4.772585823786863
0.0035                    0.0265                   4.755081553040096
0.0035                    0.0275                   4.735344449588073
0.0035                    0.0285                   4.712686655350225
0.0035                    0.0295                   4.687411899209323
0.0035                    0.0305                   4.663666892833524
0.0035                    0.0315                   4.648526944914047
0.0045                    -0.0315                  3.584238098971046
0.0045                    -0.0305                  3.599839620167905
0.0045                    -0.0295                  3.627810019556177
0.0045                    -0.0285                  3.6640825213394517
0.0045                    -0.0275                  3.705215399225437
0.0045                    -0.0265                  3.748742433624335
0.0045                    -0.0255                  3.7931461756625158
0.0045                    -0.0245                  3.837558716170988
0.0045                    -0.0235                  3.8814563414604932
0.0045                    -0.0225                  3.9244890101859227
0.0045                    -0.0215                  3.966409084942431
0.0045                    -0.0205                  4.007038241480523
0.0045                    -0.0195                  4.0462450964746965
0.0045                    -0.0185                  4.083934776375273
0.0045                    -0.0175                  4.12005868555114
0.0045                    -0.0165                  4.154635397813551
0.0045                    -0.0155                  4.187764045037386
0.0045                    -0.0145                  4.219625189042338
0.0045                    -0.0135                  4.250486871124442
0.0045                    -0.0125                  4.280731724010657
0.0045                    -0.0115                  4.310905388409107
0.0045                    -0.0105                  4.341809572297156
0.0045                    -0.0095                  4.374564416360033
0.0045                    -0.0085                  4.410435066350242
0.0045                    -0.0075                  4.450771450008207
0.0045                    -0.0065                  4.496354091448233
0.0045                    -0.0055                  4.546762085287049
0.0045                    -0.0045                  4.597790935927129
0.0045                    -0.0035                  4.637553420238116
0.0045                    -0.0025                  4.653348400939258
0.0045                    -0.0015                  4.646935846958673
0.0045                    -5.0E-4                  4.6332241051668115
0.0045                    5.0E-4                   4.626434008699954
0.0045                    0.0015                   4.634410303359688
0.0045                    0.0025                   4.658866054685845
0.0045                    0.0035                   4.698316452645804
0.0045                    0.0045                   4.7510129833554355
0.0045                    0.0055                   4.814001481000541
0.0045                    0.0065                   4.880447045468997
0.0045                    0.0075                   4.937144744035221
0.0045                    0.0085                   4.969546433895062
0.0045                    0.0095                   4.975326238879376
0.0045                    0.0105                   4.967401063481869
0.0045                    0.0115                   4.960067953473804
0.0045                    0.0125                   4.957966910300016
0.0045                    0.0135                   4.958473856948156
0.0045                    0.0145                   4.957094423309898
0.0045                    0.0155                   4.947760253726397
0.0045                    0.0165                   4.925080534107706
0.0045                    0.0175                   4.890132334121914
0.0045                    0.0185                   4.851178326858682
0.0045                    0.0195                   4.817490082713936
0.0045                    0.0205                   4.7936360939180895
0.0045                    0.0215                   4.7773102161060095
0.0045                    0.0225                   4.763684964408416
0.0045                    0.0235                   4.750513479132312
0.0045                    0.0245                   4.737384338671088
0.0045                    0.0255                   4.7237088814107
0.0045                    0.0265                   4.708846682187608
0.0045                    0.0275                   4.691856066495219
0.0045                    0.0285                   4.6717723219977625
0.0045                    0.0295                   4.649603307790967
0.0045                    0.0305                   4.6291107075689455
0.0045                    0.0315                   4.6162780770045275
0.0055                    -0.0315                  3.5489408934620457
0.0055                    -0.0305                  3.563188146878579
0.0055                    -0.0295                  3.589315144589095
0.0055                    -0.0285                  3.6242688973649497
0.0055                    -0.0275                  3.665232979610542
0.0055                    -0.0265                  3.709849261570322
0.0055                    -0.0255                  3.7563167775442947
0.0055                    -0.0245                  3.8033608065731768
0.0055                    -0.0235                  3.8500888366106842
0.0055                    -0.0225                  3.8958560940191997
0.0055                    -0.0215                  3.9401944085863665
0.0055                    -0.0205                  3.982776073569128
0.0055                    -0.0195                  4.023378819079904
0.0055                    -0.0185                  4.06185039817608
0.0055                    -0.0175                  4.098097377012668
0.0055                    -0.0165                  4.1321154277506675
0.0055                    -0.0155                  4.164030538162647
0.0055                    -0.0145                  4.194105458273406
0.0055                    -0.0135                  4.222699109122471
0.0055                    -0.0125                  4.250232693961886
0.0055                    -0.0115                  4.277200125467116
0.0055                    -0.0105                  4.304243254564686
0.0055                    -0.0095                  4.332364698871652
0.0055                    -0.0085                  4.362957137426854
0.0055                    -0.0075                  4.397972719963076
0.0055                    -0.0065                  4.4390430978228235
0.0055                    -0.0055                  4.485737498136954
0.0055                    -0.0045                  4.5327910600501795
0.0055                    -0.0035                  4.56693432901851
0.0055                    -0.0025                  4.576415210121698
0.0055                    -0.0015                  4.566698398205966
0.0055                    -5.0E-4                  4.557019133145928
0.0055                    5.0E-4                   4.56313619085328
0.0055                    0.0015                   4.590214709311193
0.0055                    0.0025                   4.637019403126971
0.0055                    0.0035                   4.69982958146632
0.0055                    0.0045                   4.773419882819539
0.0055                    0.0055                   4.850638435631146
0.0055                    0.0065                   4.921191332873649
0.0055                    0.0075                   4.9713604815118675
0.0055                    0.0085                   4.990764045573517
0.0055                    0.0095                   4.982850963385364
0.0055                    0.0105                   4.963829896611946
0.0055                    0.0115                   4.948472176271517
0.0055                    0.0125                   4.939752076439181
0.0055                    0.0135                   4.932660097753851
0.0055                    0.0145                   4.9205585784869985
0.0055                    0.0155                   4.897843502908024
0.0055                    0.0165                   4.864533771164937
0.0055                    0.0175                   4.826633479631682
0.0055                    0.0185                   4.791500413496028
0.0055                    0.0195                   4.76356838281502
0.0055                    0.0205                   4.742711213812649
0.0055                    0.0215                   4.726344986928241
0.0055                    0.0225                   4.7124776820751055
0.0055                    0.0235                   4.699690439872253
0.0055                    0.0245                   4.687363224171029
0.0055                    0.0255                   4.67523342385243
0.0055                    0.0265                   4.66209356463341
0.0055                    0.0275                   4.6463649066875075
0.0055                    0.0285                   4.628172547276214
0.0055                    0.0295                   4.609270473387932
0.0055                    0.0305                   4.592353261191586
0.0055                    0.0315                   4.581834151431069
0.0065                    -0.0315                  3.512659926029969
0.0065                    -0.0305                  3.525883193356486
0.0065                    -0.0295                  3.550463480456875
0.0065                    -0.0285                  3.584001000439736
0.0065                    -0.0275                  3.624236087625652
0.0065                    -0.0265                  3.669130379380819
0.0065                    -0.0255                  3.7169072165334462
0.0065                    -0.0245                  3.766082909883287
0.0065                    -0.0235                  3.815444516738173
0.0065                    -0.0225                  3.8640036052469404
0.0065                    -0.0215                  3.910978497967493
0.0065                    -0.0205                  3.955802599996284
0.0065                    -0.0195                  3.998112709207227
0.0065                    -0.0185                  4.037697663090382
0.0065                    -0.0175                  4.074437535633353
0.0065                    -0.0165                  4.108295498626891
0.0065                    -0.0155                  4.139390507739323
0.0065                    -0.0145                  4.168056521982246
0.0065                    -0.0135                  4.194798673662719
0.0065                    -0.0125                  4.220143396152727
0.0065                    -0.0115                  4.2445732782779615
0.0065                    -0.0105                  4.268632137855972
0.0065                    -0.0095                  4.293289149119519
0.0065                    -0.0085                  4.319943932804084
0.0065                    -0.0075                  4.350321219133766
0.0065                    -0.0065                  4.385954329277502
0.0065                    -0.0055                  4.425229976449447
0.0065                    -0.0045                  4.462130271816429
0.0065                    -0.0035                  4.485938947295696
0.0065                    -0.0025                  4.490483606015986
0.0065                    -0.0015                  4.486392567396821
0.0065                    -5.0E-4                  4.491694325136555
0.0065                    5.0E-4                   4.516118271825821
0.0065                    0.0015                   4.560201860350151
0.0065                    0.0025                   4.621211465500609
0.0065                    0.0035                   4.695001420021296
0.0065                    0.0045                   4.7754674736693605
0.0065                    0.0055                   4.854646087983507
0.0065                    0.0065                   4.922449611759799
0.0065                    0.0075                   4.967592269469686
0.0065                    0.0085                   4.982374255397241
0.0065                    0.0095                   4.969806963584856
0.0065                    0.0105                   4.944754433068714
0.0065                    0.0115                   4.922225103906589
0.0065                    0.0125                   4.904397535370476