% Model:              Benchmark260518.mph
% Version:            COMSOL 6.2.0.339
% Date:               May 20 2026, 00:11
% Dimension:          2
% Nodes:              4096
% Expressions:        1
% Description:        压力
% Length unit:        m
% x                       y                        p (Pa)
5.0E-4                    -0.0315                  3.904589128316309
5.0E-4                    -0.0305                  3.9298854393160054
5.0E-4                    -0.0295                  3.96427075498713
5.0E-4                    -0.0285                  4.001744020227988
5.0E-4                    -0.0275                  4.040998846830677
5.0E-4                    -0.0265                  4.081596760102768
5.0E-4                    -0.0255                  4.123329294018587
5.0E-4                    -0.0245                  4.166129845000565
5.0E-4                    -0.0235                  4.210014490293144
5.0E-4                    -0.0225                  4.255113310588361
5.0E-4                    -0.0215                  4.301648417435871
5.0E-4                    -0.0205                  4.349931344672008
5.0E-4                    -0.0195                  4.400398646770816
5.0E-4                    -0.0185                  4.453592769962922
5.0E-4                    -0.0175                  4.510240023583438
5.0E-4                    -0.0165                  4.571084707225122
5.0E-4                    -0.0155                  4.635357350580615
5.0E-4                    -0.0145                  4.699373082759352
5.0E-4                    -0.0135                  4.75864253649072
5.0E-4                    -0.0125                  4.805962697512948
5.0E-4                    -0.0115                  4.836704392731364
5.0E-4                    -0.0105                  4.853013788857542
5.0E-4                    -0.0095                  4.859157688938977
5.0E-4                    -0.0085                  4.863428903663651
5.0E-4                    -0.0075                  4.871766251765305
5.0E-4                    -0.0065                  4.873589374270195
5.0E-4                    -0.0055                  4.846693348452332
5.0E-4                    -0.0045                  4.786863520011738
5.0E-4                    -0.0035                  4.717689240931142
5.0E-4                    -0.0025                  4.673904277314817
5.0E-4                    -0.0015                  4.693687474854295
5.0E-4                    -5.0E-4                  4.789790759907118
5.0E-4                    5.0E-4                   4.778281458636133
5.0E-4                    0.0015                   4.677644701748683
5.0E-4                    0.0025                   4.654594047820076
5.0E-4                    0.0035                   4.655369343211087
5.0E-4                    0.0045                   4.658095615515955
5.0E-4                    0.0055                   4.665200294124972
5.0E-4                    0.0065                   4.676609915472371
5.0E-4                    0.0075                   4.692892605495978
5.0E-4                    0.0085                   4.710467280037693
5.0E-4                    0.0095                   4.7244135161558445
5.0E-4                    0.0105                   4.731588842945294
5.0E-4                    0.0115                   4.73014259088156
5.0E-4                    0.0125                   4.719582628143437
5.0E-4                    0.0135                   4.700449181588218
5.0E-4                    0.0145                   4.674088153633301
5.0E-4                    0.0155                   4.642163090054289
5.0E-4                    0.0165                   4.6062703844556925
5.0E-4                    0.0175                   4.567508800309192
5.0E-4                    0.0185                   4.526418763792856
5.0E-4                    0.0195                   4.48341428171973
5.0E-4                    0.0205                   4.4389097244380435
5.0E-4                    0.0215                   4.39324695157609
5.0E-4                    0.0225                   4.346768905976994
5.0E-4                    0.0235                   4.299803027710648
5.0E-4                    0.0245                   4.252627600009431
5.0E-4                    0.0255                   4.205532130463954
5.0E-4                    0.0265                   4.158819486074895
5.0E-4                    0.0275                   4.112805491677168
5.0E-4                    0.0285                   4.067845868881491
5.0E-4                    0.0295                   4.024640003320421
5.0E-4                    0.0305                   3.9851683926259454
5.0E-4                    0.0315                   3.956395874689595
0.0015                    -0.0315                  3.879012884869557
0.0015                    -0.0305                  3.9041819641942928
0.0015                    -0.0295                  3.940661446035602
0.0015                    -0.0285                  3.9804351504332245
0.0015                    -0.0275                  4.021288084580856
0.0015                    -0.0265                  4.062705190977132
0.0015                    -0.0255                  4.104557546984924
0.0015                    -0.0245                  4.146839764932025
0.0015                    -0.0235                  4.189615348551595
0.0015                    -0.0225                  4.2330222158132464
0.0015                    -0.0215                  4.277300874642412
0.0015                    -0.0205                  4.322832269660312
0.0015                    -0.0195                  4.370212931661313
0.0015                    -0.0185                  4.420385047274147
0.0015                    -0.0175                  4.474709534491917
0.0015                    -0.0165                  4.534691096328284
0.0015                    -0.0155                  4.600489660951215
0.0015                    -0.0145                  4.668750297777379
0.0015                    -0.0135                  4.73470209119975
0.0015                    -0.0125                  4.789557968385598
0.0015                    -0.0115                  4.827422319476685
0.0015                    -0.0105                  4.846545649292578
0.0015                    -0.0095                  4.846757807855852
0.0015                    -0.0085                  4.839147522137652
0.0015                    -0.0075                  4.836968544635382
0.0015                    -0.0065                  4.836617955777899
0.0015                    -0.0055                  4.8183344570602324
0.0015                    -0.0045                  4.768756786291126
0.0015                    -0.0035                  4.707987252000998
0.0015                    -0.0025                  4.685998468752805
0.0015                    -0.0015                  4.81669062528579
0.0015                    -5.0E-4                  5.021781019714574
0.0015                    5.0E-4                   4.9589461394431975
0.0015                    0.0015                   4.727618740321107
0.0015                    0.0025                   4.643819169195767
0.0015                    0.0035                   4.651496503956497
0.0015                    0.0045                   4.658488396489014
0.0015                    0.0055                   4.668365023930583
0.0015                    0.0065                   4.683718664755324
0.0015                    0.0075                   4.705716677346686
0.0015                    0.0085                   4.730779384783646
0.0015                    0.0095                   4.752675677690502
0.0015                    0.0105                   4.766746796885492
0.0015                    0.0115                   4.76996810956694
0.0015                    0.0125                   4.761184048516773
0.0015                    0.0135                   4.741290469887093
0.0015                    0.0145                   4.712286881906806
0.0015                    0.0155                   4.676529286060255
0.0015                    0.0165                   4.636170969594618
0.0015                    0.0175                   4.592724642568813
0.0015                    0.0185                   4.547035340008519
0.0015                    0.0195                   4.499583818457876
0.0015                    0.0205                   4.450773574460422
0.0015                    0.0215                   4.400976884050722
0.0015                    0.0225                   4.3505267988705665
0.0015                    0.0235                   4.299719169362211
0.0015                    0.0245                   4.248800642850162
0.0015                    0.0255                   4.197974723495969
0.0015                    0.0265                   4.1474218165819785
0.0015                    0.0275                   4.097323565900919
0.0015                    0.0285                   4.047996572710822
0.0015                    0.0295                   4.000353981299052
0.0015                    0.0305                   3.9572347449438254
0.0015                    0.0315                   3.9278289528368844
0.0025                    -0.0315                  3.8438989015758005
0.0025                    -0.0305                  3.8664553403636894
0.0025                    -0.0295                  3.9023595646912663
0.0025                    -0.0285                  3.943443185995479
0.0025                    -0.0275                  3.985759172694986
0.0025                    -0.0265                  4.027957685935879
0.0025                    -0.0255                  4.069676552032245
0.0025                    -0.0245                  4.110861073890253
0.0025                    -0.0235                  4.1515764182744865
0.0025                    -0.0225                  4.191973845155621
0.0025                    -0.0215                  4.23232670297375
0.0025                    -0.0205                  4.273118410177087
0.0025                    -0.0195                  4.315185953466767
0.0025                    -0.0185                  4.359904255630649
0.0025                    -0.0175                  4.409283614399221
0.0025                    -0.0165                  4.46564664679131
0.0025                    -0.0155                  4.5302098731213345
0.0025                    -0.0145                  4.600603415384905
0.0025                    -0.0135                  4.672373515810419
0.0025                    -0.0125                  4.7371261126874575
0.0025                    -0.0115                  4.78468859113704
0.0025                    -0.0105                  4.803313564184007
0.0025                    -0.0095                  4.790157857187352
0.0025                    -0.0085                  4.764043899191234
0.0025                    -0.0075                  4.747874496180222
0.0025                    -0.0065                  4.750276283108414
0.0025                    -0.0055                  4.765074683093751
0.0025                    -0.0045                  4.779536964799478
0.0025                    -0.0035                  4.816919356429732
0.0025                    -0.0025                  4.94802534853991
0.0025                    -0.0015                  5.269690727142643
0.0025                    -5.0E-4                  5.533727618479591
0.0025                    5.0E-4                   5.341547471292103
0.0025                    0.0015                   4.8883527690326805
0.0025                    0.0025                   4.656160688405148
0.0025                    0.0035                   4.647299544193546
0.0025                    0.0045                   4.659170553470346
0.0025                    0.0055                   4.676852835105608
0.0025                    0.0065                   4.699861237575513
0.0025                    0.0075                   4.729612296156635
0.0025                    0.0085                   4.763013016352177
0.0025                    0.0095                   4.794564752609177
0.0025                    0.0105                   4.817602678015685
0.0025                    0.0115                   4.827490277715847
0.0025                    0.0125                   4.822761160270255
0.0025                    0.0135                   4.803808238080376
0.0025                    0.0145                   4.772760680127256
0.0025                    0.0155                   4.732742759694673
0.0025                    0.0165                   4.686521831301842
0.0025                    0.0175                   4.636130784415314
0.0025                    0.0185                   4.582953106791967
0.0025                    0.0195                   4.527882961584119
0.0025                    0.0205                   4.471530675541503
0.0025                    0.0215                   4.41438279482934
0.0025                    0.0225                   4.356830905327326
0.0025                    0.0235                   4.299160191910493
0.0025                    0.0245                   4.241554920747422
0.0025                    0.0255                   4.184117203427817
0.0025                    0.0265                   4.126923532276027
0.0025                    0.0275                   4.070164892005746
0.0025                    0.0285                   4.014467611054392
0.0025                    0.0295                   3.961646565568919
0.0025                    0.0305                   3.9164611279119956
0.0025                    0.0315                   3.8884452250460244
0.0035                    -0.0315                  3.805357134660939
0.0035                    -0.0305                  3.8248272275896436
0.0035                    -0.0295                  3.8577801166021786
0.0035                    -0.0285                  3.8976546825237497
0.0035                    -0.0275                  3.9398526740705093
0.0035                    -0.0265                  3.981942187922306
0.0035                    -0.0255                  4.022913888700168
0.0035                    -0.0245                  4.062431816098133
0.0035                    -0.0235                  4.1004533681047475
0.0035                    -0.0225                  4.1371091573264
0.0035                    -0.0215                  4.172713428957232
0.0035                    -0.0205                  4.207859079183145
0.0035                    -0.0195                  4.243569336714688
0.0035                    -0.0185                  4.281452107410411
0.0035                    -0.0175                  4.32372781060789
0.0035                    -0.0165                  4.372880268745431
0.0035                    -0.0155                  4.430817013224227
0.0035                    -0.0145                  4.497402345665678
0.0035                    -0.0135                  4.569920369816938
0.0035                    -0.0125                  4.640230239805411
0.0035                    -0.0115                  4.692250038246542
0.0035                    -0.0105                  4.70792134655534
0.0035                    -0.0095                  4.686002268654644
0.0035                    -0.0085                  4.652162741029552
0.0035                    -0.0075                  4.636581998183386
0.0035                    -0.0065                  4.654373055596427
0.0035                    -0.0055                  4.714272607670729
0.0035                    -0.0045                  4.838633859064547
0.0035                    -0.0035                  5.085779288245932
0.0035                    -0.0025                  5.493306916398119
0.0035                    -0.0015                  5.980499062982486
0.0035                    -5.0E-4                  6.199184820318514
0.0035                    5.0E-4                   5.861592207193798
0.0035                    0.0015                   5.197158633095468
0.0035                    0.0025                   4.75058324994925
0.0035                    0.0035                   4.655309997556131
0.0035                    0.0045                   4.662985335523371
0.0035                    0.0055                   4.68773263238214
0.0035                    0.0065                   4.722123628263011
0.0035                    0.0075                   4.760046675050419
0.0035                    0.0085                   4.799873897152745
0.0035                    0.0095                   4.837731959885122
0.0035                    0.0105                   4.866611804199618
0.0035                    0.0115                   4.882057128354925
0.0035                    0.0125                   4.882784556766036
0.0035                    0.0135                   4.8680603523919626
0.0035                    0.0145                   4.838562106803939
0.0035                    0.0155                   4.79681050556915
0.0035                    0.0165                   4.745847860588977
0.0035                    0.0175                   4.688468922890652
0.0035                    0.0185                   4.626884372716681
0.0035                    0.0195                   4.562691435427547
0.0035                    0.0205                   4.497011356193178
0.0035                    0.0215                   4.43063263707873
0.0035                    0.0225                   4.364086628625554
0.0035                    0.0235                   4.297685065918751
0.0035                    0.0245                   4.231565746805672
0.0035                    0.0255                   4.165777566725737
0.0035                    0.0265                   4.1004386655730105
0.0035                    0.0275                   4.03602648760948
0.0035                    0.0285                   3.973895980192265
0.0035                    0.0295                   3.9171474129655532
0.0035                    0.0305                   3.871429181866495
0.0035                    0.0315                   3.8447050510833756
0.0045                    -0.0315                  3.7650046086469158
0.0045                    -0.0305                  3.7817239676016574
0.0045                    -0.0295                  3.811066208721326
0.0045                    -0.0285                  3.8479712233266348
0.0045                    -0.0275                  3.8882309525405176
0.0045                    -0.0265                  3.9289054745810184
0.0045                    -0.0255                  3.96830518265541
0.0045                    -0.0245                  4.005635977776709
0.0045                    -0.0235                  4.04062842027075
0.0045                    -0.0225                  4.073339870499059
0.0045                    -0.0215                  4.104113475248358
0.0045                    -0.0205                  4.133635415626219
0.0045                    -0.0195                  4.163035831085573
0.0045                    -0.0185                  4.193958557737484
0.0045                    -0.0175                  4.228496562982189
0.0045                    -0.0165                  4.268942539661543
0.0045                    -0.0155                  4.31728655677657
0.0045                    -0.0145                  4.375065769057866
0.0045                    -0.0135                  4.441995845086945
0.0045                    -0.0125                  4.510333420413725
0.0045                    -0.0115                  4.564029505766662
0.0045                    -0.0105                  4.585271507911449
0.0045                    -0.0095                  4.573324361462432
0.0045                    -0.0085                  4.5555771752557845
0.0045                    -0.0075                  4.5605060268419
0.0045                    -0.0065                  4.601437789470184
0.0045                    -0.0055                  4.698946057194891
0.0045                    -0.0045                  4.915394810412179
0.0045                    -0.0035                  5.347002737189286
0.0045                    -0.0025                  5.964684634342439
0.0045                    -0.0015                  6.522798297458384
0.0045                    -5.0E-4                  6.685954682996754
0.0045                    5.0E-4                   6.296306869629931
0.0045                    0.0015                   5.574428382362363
0.0045                    0.0025                   4.9749797709786145
0.0045                    0.0035                   4.724184097758467
0.0045                    0.0045                   4.684788804596063
0.0045                    0.0055                   4.708362009544757
0.0045                    0.0065                   4.747828915622796
0.0045                    0.0075                   4.7907382216855705
0.0045                    0.0085                   4.8356840915426815
0.0045                    0.0095                   4.8746893697276
0.0045                    0.0105                   4.9041598498491075
0.0045                    0.0115                   4.922150649933157
0.0045                    0.0125                   4.928235513254788
0.0045                    0.0135                   4.920610741914276
0.0045                    0.0145                   4.8968527864466065
0.0045                    0.0155                   4.8571548672690135
0.0045                    0.0165                   4.804145127473191
0.0045                    0.0175                   4.741303227188319
0.0045                    0.0185                   4.671910897567415
0.0045                    0.0195                   4.59858284671994
0.0045                    0.0205                   4.523209999060692
0.0045                    0.0215                   4.447042996110138
0.0045                    0.0225                   4.370827861579825
0.0045                    0.0235                   4.294937286926943
0.0045                    0.0245                   4.219507444799798
0.0045                    0.0255                   4.144630934862698
0.0045                    0.0265                   4.070652030043865
0.0045                    0.0275                   3.9985902854207387
0.0045                    0.0285                   3.9306796770918853
0.0045                    0.0295                   3.870803702805716
0.0045                    0.0305                   3.824434089603229
0.0045                    0.0315                   3.7981969912370683
0.0055                    -0.0315                  3.7234144729652217
0.0055                    -0.0305                  3.7378508860103477
0.0055                    -0.0295                  3.763711150366297
0.0055                    -0.0285                  3.7970148923654086
0.0055                    -0.0275                  3.834171697841449
0.0055                    -0.0265                  3.8722914615101836
0.0055                    -0.0255                  3.9093268656624423
0.0055                    -0.0245                  3.944064291397873
0.0055                    -0.0235                  3.975954851367394
0.0055                    -0.0225                  4.004942663478012
0.0055                    -0.0215                  4.031385145749047
0.0055                    -0.0205                  4.056057317611888
0.0055                    -0.0195                  4.080185528175848
0.0055                    -0.0185                  4.105433844830144
0.0055                    -0.0175                  4.133796730822887
0.0055                    -0.0165                  4.167381372685296
0.0055                    -0.0155                  4.20827535643774
0.0055                    -0.0145                  4.257916916497631
0.0055                    -0.0135                  4.316435540432633
0.0055                    -0.0125                  4.378639135035794
0.0055                    -0.0115                  4.435916558181998
0.0055                    -0.0105                  4.472890511285969
0.0055                    -0.0095                  4.4847996054512915
0.0055                    -0.0085                  4.493246578633797
0.0055                    -0.0075                  4.519742406061155
0.0055                    -0.0065                  4.581402992416692
0.0055                    -0.0055                  4.716321795650883
0.0055                    -0.0045                  5.005378023949744
0.0055                    -0.0035                  5.512723813098715
0.0055                    -0.0025                  6.135400532962207
0.0055                    -0.0015                  6.621391030008838
0.0055                    -5.0E-4                  6.740347438963452
0.0055                    5.0E-4                   6.400005280931845
0.0055                    0.0015                   5.776195708095877
0.0055                    0.0025                   5.201492484003968
0.0055                    0.0035                   4.866226043482984
0.0055                    0.0045                   4.74990146292947
0.0055                    0.0055                   4.744964746923415
0.0055                    0.0065                   4.778486857347599
0.0055                    0.0075                   4.824640121026857
0.0055                    0.0085                   4.866989939495584
0.0055                    0.0095                   4.901555060027537
0.0055                    0.0105                   4.9300898002319
0.0055                    0.0115                   4.948492832089151
0.0055                    0.0125                   4.957877491576136
0.0055                    0.0135                   4.9568617644327615
0.0055                    0.0145                   4.940464694740452
0.0055                    0.0155                   4.905677131309712
0.0055                    0.0165                   4.8534534963063525
0.0055                    0.0175                   4.78737609813202
0.0055                    0.0185                   4.711822175963074
0.0055                    0.0195                   4.630607185069096
0.0055                    0.0205                   4.546490402653718
0.0055                    0.0215                   4.461226035546783
0.0055                    0.0225                   4.375794327523237
0.0055                    0.0235                   4.2906417661648195
0.0055                    0.0245                   4.20594311567935
0.0055                    0.0255                   4.121945713981717
0.0055                    0.0265                   4.039399145578201
0.0055                    0.0275                   3.959996907526329
0.0055                    0.0285                   3.886679963510484
0.0055                    0.0295                   3.8236258181713505
0.0055                    0.0305                   3.7759689041339684
0.0055                    0.0315                   3.749525953077833
0.0065                    -0.0315                  3.680869531890043
0.0065                    -0.0305                  3.693427420078934
0.0065                    -0.0295                  3.7161977538223994
0.0065                    -0.0285                  3.7459480513934347
0.0065                    -0.0275                  3.779637880287452
0.0065                    -0.0265                  3.8146359039491706
0.0065                    -0.0255                  3.8488476690809907
0.0065                    -0.0245                  3.880833809064018
0.0065                    -0.0235                  3.909826699977757
0.0065                    -0.0225                  3.9356678448691547
0.0065                    -0.0215                  3.958745147942728
0.0065                    -0.0205                  3.979965568394332
0.0065                    -0.0195                  4.000727214602095
0.0065                    -0.0185                  4.022843595110384
0.0065                    -0.0175                  4.04836790824183
0.0065                    -0.0165                  4.079371342660345
0.0065                    -0.0155                  4.1175001054673395
0.0065                    -0.0145                  4.16316852093452
0.0065                    -0.0135                  4.214786785921117
0.0065                    -0.0125                  4.271978060058403
0.0065                    -0.0115                  4.334642005692413
0.0065                    -0.0105                  4.387069843710864
0.0065                    -0.0095                  4.419037237352862
0.0065                    -0.0085                  4.445054485629065
0.0065                    -0.0075                  4.4841116796555625
0.0065                    -0.0065                  4.566045224288338
0.0065                    -0.0055                  4.743550164325129
0.0065                    -0.0045                  5.076863369480257
0.0065                    -0.0035                  5.563910229539956
0.0065                    -0.0025                  6.067964404803488
0.0065                    -0.0015                  6.398360468646668
0.0065                    -5.0E-4                  6.438858887917352
0.0065                    5.0E-4                   6.163385523110297
0.0065                    0.0015                   5.696129712604375
0.0065                    0.0025                   5.259642102814093
0.0065                    0.0035                   4.96934491425432
0.0065                    0.0045                   4.825592541212827
0.0065                    0.0055                   4.786914435283588
0.0065                    0.0065                   4.80799570318676
0.0065                    0.0075                   4.852376008618842
0.0065                    0.0085                   4.892691369562445
0.0065                    0.0095                   4.925541121233401
0.0065                    0.0105                   4.950727941324957
0.0065                    0.0115                   4.968063047704253
0.0065                    0.0125                   4.978426740411404
0.0065                    0.0135                   4.979862740836751