% Model:              Benchmark260518.mph
% Version:            COMSOL 6.2.0.339
% Date:               May 21 2026, 01:14
% Dimension:          2
% Nodes:              4096
% Expressions:        1
% Description:        压力
% Length unit:        m
% x                       y                        p (Pa)
% mirrored_by_python_y_to_minus_y, coord_match_decimals=12
0.0005 -0.0315 4.26556036728
0.0005 -0.0305 4.30364307812
0.0005 -0.0295 4.3554187148
0.0005 -0.0285 4.4121766445
0.0005 -0.0275 4.47191741676
0.0005 -0.0265 4.53399726876
0.0005 -0.0255 4.59852302856
0.0005 -0.0245 4.66512067804
0.0005 -0.0235 4.73175157451
0.0005 -0.0225 4.79507174758
0.0005 -0.0215 4.85135651097
0.0005 -0.0205 4.89591178514
0.0005 -0.0195 4.92585380544
0.0005 -0.0185 4.94355603928
0.0005 -0.0175 4.9534917444
0.0005 -0.0165 4.95941146365
0.0005 -0.0155 4.96480580155
0.0005 -0.0145 4.97197830538
0.0005 -0.0135 4.98041454965
0.0005 -0.0125 4.99173013199
0.0005 -0.0115 5.00705440131
0.0005 -0.0105 5.02330405758
0.0005 -0.0095 5.03671900149
0.0005 -0.0085 5.04096332711
0.0005 -0.0075 5.02525734425
0.0005 -0.0065 4.97783706754
0.0005 -0.0055 4.88614455722
0.0005 -0.0045 4.77169999532
0.0005 -0.0035 4.70551587683
0.0005 -0.0025 4.7001862878
0.0005 -0.0015 4.71069577219
0.0005 -0.0005 4.7227664
0.0005 0.0005 4.73763713586
0.0005 0.0015 4.75440298518
0.0005 0.0025 4.77074546481
0.0005 0.0035 4.78397973345
0.0005 0.0045 4.79251414707
0.0005 0.0055 4.79669925864
0.0005 0.0065 4.79847938623
0.0005 0.0075 4.79997262383
0.0005 0.0085 4.80236531068
0.0005 0.0095 4.80575151078
0.0005 0.0105 4.80943439726
0.0005 0.0115 4.81264109703
0.0005 0.0125 4.81500754007
0.0005 0.0135 4.81633105528
0.0005 0.0145 4.81622000079
0.0005 0.0155 4.81377590743
0.0005 0.0165 4.80653936645
0.0005 0.0175 4.78985427351
0.0005 0.0185 4.76054321642
0.0005 0.0195 4.72037892345
0.0005 0.0205 4.67313762267
0.0005 0.0215 4.62188899043
0.0005 0.0225 4.56925672807
0.0005 0.0235 4.51691458511
0.0005 0.0245 4.46534866089
0.0005 0.0255 4.4146025023
0.0005 0.0265 4.36492657825
0.0005 0.0275 4.31676958502
0.0005 0.0285 4.27048702411
0.0005 0.0295 4.22649180417
0.0005 0.0305 4.18619270389
0.0005 0.0315 4.15652989675
0.0015 -0.0315 4.22677003157
0.0015 -0.0305 4.26491292679
0.0015 -0.0295 4.32024594453
0.0015 -0.0285 4.38101053393
0.0015 -0.0275 4.44428027684
0.0015 -0.0265 4.50975382977
0.0015 -0.0255 4.57787855916
0.0015 -0.0245 4.64881987546
0.0015 -0.0235 4.72095184739
0.0015 -0.0225 4.78981227055
0.0015 -0.0215 4.84944025124
0.0015 -0.0205 4.89396044697
0.0015 -0.0195 4.9224037011
0.0015 -0.0185 4.93985248973
0.0015 -0.0175 4.9501868205
0.0015 -0.0165 4.95545211817
0.0015 -0.0155 4.95966855642
0.0015 -0.0145 4.96714359122
0.0015 -0.0135 4.97928446885
0.0015 -0.0125 4.99613779497
0.0015 -0.0115 5.01841559472
0.0015 -0.0105 5.0419742245
0.0015 -0.0095 5.06017883177
0.0015 -0.0085 5.0678546303
0.0015 -0.0075 5.05614322688
0.0015 -0.0065 5.01230279457
0.0015 -0.0055 4.92544632672
0.0015 -0.0045 4.8016975488
0.0015 -0.0035 4.72145863002
0.0015 -0.0025 4.70872898809
0.0015 -0.0015 4.71166899609
0.0015 -0.0005 4.72190338746
0.0015 0.0005 4.735986019
0.0015 0.0015 4.75224415241
0.0015 0.0025 4.76785546521
0.0015 0.0035 4.78003720766
0.0015 0.0045 4.7874923198
0.0015 0.0055 4.79102604685
0.0015 0.0065 4.79298338657
0.0015 0.0075 4.79561737184
0.0015 0.0085 4.79981814465
0.0015 0.0095 4.80498677714
0.0015 0.0105 4.80977901086
0.0015 0.0115 4.81337432108
0.0015 0.0125 4.81576308217
0.0015 0.0135 4.8169862533
0.0015 0.0145 4.81674387681
0.0015 0.0155 4.81440280926
0.0015 0.0165 4.80843384029
0.0015 0.0175 4.794809972
0.0015 0.0185 4.76831661321
0.0015 0.0195 4.72823372382
0.0015 0.0205 4.6781790937
0.0015 0.0215 4.62248599707
0.0015 0.0225 4.56499117511
0.0015 0.0235 4.5079274558
0.0015 0.0245 4.45222280408
0.0015 0.0255 4.39815969509
0.0015 0.0265 4.3458417468
0.0015 0.0275 4.29524268021
0.0015 0.0285 4.24625476298
0.0015 0.0295 4.19912231847
0.0015 0.0305 4.15611373751
0.0015 0.0315 4.12645229506
0.0025 -0.0315 4.1733852458
0.0025 -0.0305 4.2080296385
0.0025 -0.0295 4.26339563591
0.0025 -0.0285 4.32750464771
0.0025 -0.0275 4.39500637754
0.0025 -0.0265 4.46479432858
0.0025 -0.0255 4.53738036873
0.0025 -0.0245 4.61325582545
0.0025 -0.0235 4.6911257511
0.0025 -0.0225 4.7660103262
0.0025 -0.0215 4.83016553977
0.0025 -0.0205 4.87687968499
0.0025 -0.0195 4.90617840303
0.0025 -0.0185 4.92434989046
0.0025 -0.0175 4.9350722201
0.0025 -0.0165 4.9401137445
0.0025 -0.0155 4.94518821269
0.0025 -0.0145 4.95618345838
0.0025 -0.0135 4.97508038323
0.0025 -0.0125 5.00125991905
0.0025 -0.0115 5.03188957832
0.0025 -0.0105 5.06134605258
0.0025 -0.0095 5.08365392364
0.0025 -0.0085 5.09423979866
0.0025 -0.0075 5.0879102892
0.0025 -0.0065 5.05546385746
0.0025 -0.0055 4.99045557347
0.0025 -0.0045 4.89590777966
0.0025 -0.0035 4.80442216159
0.0025 -0.0025 4.7532862996
0.0025 -0.0015 4.73701314976
0.0025 -0.0005 4.73689538188
0.0025 0.0005 4.74470202299
0.0025 0.0015 4.75508789416
0.0025 0.0025 4.76402678799
0.0025 0.0035 4.76905963039
0.0025 0.0045 4.77036398055
0.0025 0.0055 4.77007556287
0.0025 0.0065 4.77097909885
0.0025 0.0075 4.77541960393
0.0025 0.0085 4.78399364462
0.0025 0.0095 4.79498842197
0.0025 0.0105 4.80486774611
0.0025 0.0115 4.81116526254
0.0025 0.0125 4.81474758187
0.0025 0.0135 4.81674728107
0.0025 0.0145 4.81649936172
0.0025 0.0155 4.81345332871
0.0025 0.0165 4.80738155437
0.0025 0.0175 4.79568633456
0.0025 0.0185 4.77192941381
0.0025 0.0195 4.73238562331
0.0025 0.0205 4.67921974001
0.0025 0.0215 4.61747190939
0.0025 0.0225 4.55266542293
0.0025 0.0235 4.48836253588
0.0025 0.0245 4.42638633329
0.0025 0.0255 4.3673922671
0.0025 0.0265 4.31120636953
0.0025 0.0275 4.25720956079
0.0025 0.0285 4.20493714686
0.0025 0.0295 4.15519010051
0.0025 0.0305 4.11208844177
0.0025 0.0315 4.08501870818
0.0035 -0.0315 4.11470708814
0.0035 -0.0305 4.14555499333
0.0035 -0.0295 4.19796265582
0.0035 -0.0285 4.26233371097
0.0035 -0.0275 4.33227291633
0.0035 -0.0265 4.40499393039
0.0035 -0.0255 4.48007368197
0.0035 -0.0245 4.55778903593
0.0035 -0.0235 4.63732589377
0.0035 -0.0225 4.7148790316
0.0035 -0.0215 4.78323018848
0.0035 -0.0205 4.83562465991
0.0035 -0.0195 4.87022517611
0.0035 -0.0185 4.89133535637
0.0035 -0.0175 4.90421143212
0.0035 -0.0165 4.91304140431
0.0035 -0.0155 4.92429490701
0.0035 -0.0145 4.94289879808
0.0035 -0.0135 4.96967485319
0.0035 -0.0125 5.00342198824
0.0035 -0.0115 5.04060074122
0.0035 -0.0105 5.07464729708
0.0035 -0.0095 5.09939880726
0.0035 -0.0085 5.11192894278
0.0035 -0.0075 5.11092372026
0.0035 -0.0065 5.09224483861
0.0035 -0.0055 5.05072512532
0.0035 -0.0045 4.98644989345
0.0035 -0.0035 4.91234288195
0.0035 -0.0025 4.85076859248
0.0035 -0.0015 4.81250181795
0.0035 -0.0005 4.79257325268
0.0035 0.0005 4.78201025136
0.0035 0.0015 4.77357712003
0.0035 0.0025 4.76333483413
0.0035 0.0035 4.75057717239
0.0035 0.0045 4.73745162669
0.0035 0.0055 4.72766163556
0.0035 0.0065 4.72456365844
0.0035 0.0075 4.7302257166
0.0035 0.0085 4.74463526428
0.0035 0.0095 4.7647418128
0.0035 0.0105 4.78387983958
0.0035 0.0115 4.79678552202
0.0035 0.0125 4.80526254872
0.0035 0.0135 4.81123861801
0.0035 0.0145 4.8126961369
0.0035 0.0155 4.80918285017
0.0035 0.0165 4.80207037222
0.0035 0.0175 4.79008083207
0.0035 0.0185 4.76655471378
0.0035 0.0195 4.72612189644
0.0035 0.0205 4.66941068321
0.0035 0.0215 4.6013800852
0.0035 0.0225 4.52893798131
0.0035 0.0235 4.45733927579
0.0035 0.0245 4.38948879233
0.0035 0.0255 4.3261764978
0.0035 0.0265 4.26671309198
0.0035 0.0275 4.20992947218
0.0035 0.0285 4.1554489944
0.0035 0.0295 4.10507268472
0.0035 0.0305 4.06374888831
0.0035 0.0315 4.03922580829
0.0045 -0.0315 4.05355309622
0.0045 -0.0305 4.08133173429
0.0045 -0.0295 4.13037942185
0.0045 -0.0285 4.1929584615
0.0045 -0.0275 4.26287162485
0.0045 -0.0265 4.33605328954
0.0045 -0.0255 4.41052672179
0.0045 -0.0245 4.485687262
0.0045 -0.0235 4.56126072122
0.0045 -0.0225 4.63585420499
0.0045 -0.0215 4.70552305229
0.0045 -0.0205 4.76512679581
0.0045 -0.0195 4.80920468651
0.0045 -0.0185 4.83771184766
0.0045 -0.0175 4.85774348664
0.0045 -0.0165 4.87596274561
0.0045 -0.0155 4.89768131803
0.0045 -0.0145 4.92653738959
0.0045 -0.0135 4.9629758079
0.0045 -0.0125 5.00492750528
0.0045 -0.0115 5.04708766944
0.0045 -0.0105 5.08212769505
0.0045 -0.0095 5.10576554818
0.0045 -0.0085 5.11813623464
0.0045 -0.0075 5.12073068634
0.0045 -0.0065 5.11331335825
0.0045 -0.0055 5.09329621149
0.0045 -0.0045 5.05884321671
0.0045 -0.0035 5.01299060348
0.0045 -0.0025 4.96410663947
0.0045 -0.0015 4.91997764678
0.0045 -0.0005 4.88177531365
0.0045 0.0005 4.84557945571
0.0045 0.0015 4.80780456897
0.0045 0.0025 4.76846384338
0.0045 0.0035 4.73117305257
0.0045 0.0045 4.70020978003
0.0045 0.0055 4.67873401139
0.0045 0.0065 4.66870607771
0.0045 0.0075 4.67123318847
0.0045 0.0085 4.6869145761
0.0045 0.0095 4.7131412505
0.0045 0.0105 4.74129918948
0.0045 0.0115 4.76451020921
0.0045 0.0125 4.78350614171
0.0045 0.0135 4.79751519166
0.0045 0.0145 4.80289511713
0.0045 0.0155 4.79997757059
0.0045 0.0165 4.7916466684
0.0045 0.0175 4.77778663489
0.0045 0.0185 4.75213077817
0.0045 0.0195 4.70839064739
0.0045 0.0205 4.64640872972
0.0045 0.0215 4.57156484468
0.0045 0.0225 4.4921583477
0.0045 0.0235 4.41518065051
0.0045 0.0245 4.34406504811
0.0045 0.0255 4.27888859051
0.0045 0.0265 4.21794478711
0.0045 0.0275 4.15964026541
0.0045 0.0285 4.1040701467
0.0045 0.0295 4.053839958
0.0045 0.0305 4.01392119769
0.0045 0.0315 3.99091222676
0.0055 -0.0315 3.990920254
0.0055 -0.0305 4.01652144021
0.0055 -0.0295 4.06281768873
0.0055 -0.0285 4.12309782591
0.0055 -0.0275 4.19136530308
0.0055 -0.0265 4.26280838242
0.0055 -0.0255 4.3340691323
0.0055 -0.0245 4.40344002656
0.0055 -0.0235 4.47089703679
0.0055 -0.0225 4.53772730421
0.0055 -0.0215 4.6043555413
0.0055 -0.0205 4.66914622987
0.0055 -0.0195 4.72400127166
0.0055 -0.0185 4.76410393346
0.0055 -0.0175 4.795902558
0.0055 -0.0165 4.82593277099
0.0055 -0.0155 4.85896314454
0.0055 -0.0145 4.89908740703
0.0055 -0.0135 4.94726917939
0.0055 -0.0125 4.99980125506
0.0055 -0.0115 5.04829302087
0.0055 -0.0105 5.08418682686
0.0055 -0.0095 5.10551191666
0.0055 -0.0085 5.11605527548
0.0055 -0.0075 5.11979441317
0.0055 -0.0065 5.1189052997
0.0055 -0.0055 5.11364342087
0.0055 -0.0045 5.10190844195
0.0055 -0.0035 5.08124629099
0.0055 -0.0025 5.05129623062
0.0055 -0.0015 5.01298914638
0.0055 -0.0005 4.96600572284
0.0055 0.0005 4.90901720191
0.0055 0.0015 4.84412294159
0.0055 0.0025 4.77860544895
0.0055 0.0035 4.7212027558
0.0055 0.0045 4.67720622106
0.0055 0.0055 4.64745445223
0.0055 0.0065 4.6306850348
0.0055 0.0075 4.62603447203
0.0055 0.0085 4.63458283816
0.0055 0.0095 4.6571685145
0.0055 0.0105 4.68938498569
0.0055 0.0115 4.72371292363
0.0055 0.0125 4.7549428522
0.0055 0.0135 4.77793045593
0.0055 0.0145 4.78815128705
0.0055 0.0155 4.78642812604
0.0055 0.0165 4.77672819354
0.0055 0.0175 4.75987784439
0.0055 0.0185 4.73046700042
0.0055 0.0195 4.68119078041
0.0055 0.0205 4.61121016114
0.0055 0.0215 4.52817796612
0.0055 0.0225 4.4431463219
0.0055 0.0235 4.36431449496
0.0055 0.0245 4.29396938577
0.0055 0.0255 4.23006428162
0.0055 0.0265 4.16944125898
0.0055 0.0275 4.11038186975
0.0055 0.0285 4.05376070922
0.0055 0.0295 4.00299834212
0.0055 0.0305 3.9632602165
0.0055 0.0315 3.94072416675
0.0065 -0.0315 3.9268394661
0.0065 -0.0305 3.95129744799
0.0065 -0.0295 3.99580235296
0.0065 -0.0285 4.05410982415
0.0065 -0.0275 4.12022733163
0.0065 -0.0265 4.18886430482
0.0065 -0.0255 4.25578896406
0.0065 -0.0245 4.31861738115
0.0065 -0.0235 4.37756003115
0.0065 -0.0225 4.43548965374
0.0065 -0.0215 4.49599800874
0.0065 -0.0205 4.56137590491
0.0065 -0.0195 4.62441430308
0.0065 -0.0185 4.6772156994
0.0065 -0.0175 4.72137214144
0.0065 -0.0165 4.76166765857
0.0065 -0.0155 4.80476981456
0.0065 -0.0145 4.85526387393
0.0065 -0.0135 4.91377236907
0.0065 -0.0125 4.97585633414
0.0065 -0.0115 5.03204873244
0.0065 -0.0105 5.07316295754
0.0065 -0.0095 5.09667917825
0.0065 -0.0085 5.10745110379
0.0065 -0.0075 5.11190885089
0.0065 -0.0065 5.11422570901
0.0065 -0.0055 5.11631875122
0.0065 -0.0045 5.11686511924
0.0065 -0.0035 5.11136145053
0.0065 -0.0025 5.09500107438
0.0065 -0.0015 5.06419486609
0.0065 -0.0005 5.01627097146
0.0065 0.0005 4.95058219936
0.0065 0.0015 4.87215086227
0.0065 0.0025 4.79286228187
0.0065 0.0035 4.72451597869
0.0065 0.0045 4.672685487
0.0065 0.0055 4.6375561876
0.0065 0.0065 4.61645724946
0.0065 0.0075 4.60623097609
0.0065 0.0085 4.6058502452
0.0065 0.0095 4.61816091091
0.0065 0.0105 4.64622301074
0.0065 0.0115 4.68584563067
0.0065 0.0125 4.72626339646
0.0065 0.0135 4.75736277996
0.0065 0.0145 4.77310125892
0.0065 0.0155 4.77309365728
0.0065 0.0165 4.7615107357
0.0065 0.0175 4.74019886198
0.0065 0.0185 4.70435489049
0.0065 0.0195 4.64651670009
0.0065 0.0205 4.56590247285
0.0065 0.0215 4.47400544828
0.0065 0.0225 4.38617671254
0.0065 0.0235 4.31000439709
0.0065 0.0245 4.24412659477
0.0065 0.0255 4.18349486042
0.0065 0.0265 4.12378764223
0.0065 0.0275 4.06357755108
0.0065 0.0285 4.00497187229
0.0065 0.0295 3.95244618021
0.0065 0.0305 3.91163317498
0.0065 0.0315 3.88868118923
0.0075 -0.0315 3.86136918133
0.0075 -0.0305 3.88548318387
0.0075 -0.0295 3.92924160956
0.0075 -0.0285 3.98626744307
0.0075 -0.0275 4.05046163421
0.0075 -0.0265 4.11630282365
0.0075 -0.0255 4.17931267539
0.0075 -0.0245 4.23708000692
0.0075 -0.0235 4.29050198969
0.0075 -0.0225 4.34314258071
0.0075 -0.0215 4.3993242815
0.0075 -0.0205 4.46181830122
0.0075 -0.0195 4.52708804538
0.0075 -0.0185 4.58802282747
0.0075 -0.0175 4.64074451981
0.0075 -0.0165 4.68844089166
0.0075 -0.0155 4.73837687303
0.0075 -0.0145 4.79425541596
0.0075 -0.0135 4.8565199214
0.0075 -0.0125 4.9219446494
0.0075 -0.0115 4.98314556257
0.0075 -0.0105 5.03251607345
0.0075 -0.0095 5.06563527364
0.0075 -0.0085 5.08383719601
0.0075 -0.0075 5.09325849806
0.0075 -0.0065 5.09993599287
0.0075 -0.0055 5.1066017191
0.0075 -0.0045 5.11219354402
0.0075 -0.0035 5.11250951254
0.0075 -0.0025 5.1023647767
0.0075 -0.0015 5.07712302414
0.0075 -0.0005 5.03365743655
0.0075 0.0005 4.97134684034
0.0075 0.0015 4.89335537876
0.0075 0.0025 4.80985536367
0.0075 0.0035 4.734435466
0.0075 0.0045 4.67555666442
0.0075 0.0055 4.63533374563
0.0075 0.0065 4.61162631261
0.0075 0.0075 4.59952901021
0.0075 0.0085 4.59502600573
0.0075 0.0095 4.59932650543
0.0075 0.0105 4.61882424028
0.0075 0.0115 4.65599243222
0.0075 0.0125 4.70129023522
0.0075 0.0135 4.74028040281
0.0075 0.0145 4.76324589456
0.0075 0.0155 4.76671735261
0.0075 0.0165 4.75285622519
0.0075 0.0175 4.72400719715
0.0075 0.0185 4.67659078479
0.0075 0.0195 4.60501194665
0.0075 0.0205 4.51167482968
0.0075 0.0215 4.4129345901
0.0075 0.0225 4.3266649822
0.0075 0.0235 4.25717067676
0.0075 0.0245 4.19776196361
0.0075 0.0255 4.14038783246
0.0075 0.0265 4.08063116516
0.0075 0.0275 4.01820405098
0.0075 0.0285 3.95662821601
0.0075 0.0295 3.90137349768
0.0075 0.0305 3.85857167592
0.0075 0.0315 3.83453299232
0.0085 -0.0315 3.79444366278
0.0085 -0.0305 3.81883838813
0.0085 -0.0295 3.86280508359
0.0085 -0.0285 3.91937713162
0.0085 -0.0275 3.98216796011
0.0085 -0.0265 4.04572921705
0.0085 -0.0255 4.10587100603
0.0085 -0.0245 4.16114513157
0.0085 -0.0235 4.21316600103
0.0085 -0.0225 4.26521154704
0.0085 -0.0215 4.32030395882
0.0085 -0.0205 4.37961017959
0.0085 -0.0195 4.4425741271
0.0085 -0.0185 4.5043610817
0.0085 -0.0175 4.56011882503
0.0085 -0.0165 4.61157969432
0.0085 -0.0155 4.66247250766
0.0085 -0.0145 4.71527989768
0.0085 -0.0135 4.77190782129
0.0085 -0.0125 4.83153108644
0.0085 -0.0115 4.89027365853
0.0085 -0.0105 4.94361648777
0.0085 -0.0095 4.98751074939
0.0085 -0.0085 5.01999501044
0.0085 -0.0075 5.04297201398
0.0085 -0.0065 5.06144579573
0.0085 -0.0055 5.07800306017
0.0085 -0.0045 5.09076256951
0.0085 -0.0035 5.09606397998
0.0085 -0.0025 5.09007501688
0.0085 -0.0015 5.06995996855
0.0085 -0.0005 5.0332497366
0.0085 0.0005 4.9781660399
0.0085 0.0015 4.90507246742
0.0085 0.0025 4.82137021513
0.0085 0.0035 4.74116902522
0.0085 0.0045 4.67615898161
0.0085 0.0055 4.63161833058
0.0085 0.0065 4.60658530137
0.0085 0.0075 4.59493729554
0.0085 0.0085 4.59020194289
0.0085 0.0095 4.59113247291
0.0085 0.0105 4.60398055006
0.0085 0.0115 4.63594044467
0.0085 0.0125 4.6823624436
0.0085 0.0135 4.72804755042
0.0085 0.0145 4.75951550398
0.0085 0.0155 4.76901120032
0.0085 0.0165 4.75371460021
0.0085 0.0175 4.71340811487
0.0085 0.0185 4.64763870544
0.0085 0.0195 4.55800613404
0.0085 0.0205 4.45385990884
0.0085 0.0215 4.35361048511
0.0085 0.0225 4.27207860457
0.0085 0.0235 4.20905434242
0.0085 0.0245 4.15428736384
0.0085 0.0255 4.09802704738
0.0085 0.0265 4.03673218152
0.0085 0.0275 3.97162603266
0.0085 0.0285 3.90690357013
0.0085 0.0295 3.84872610373
0.0085 0.0305 3.80354678048
0.0085 0.0315 3.77808340035
0.0095 -0.0315 3.72566509342
0.0095 -0.0305 3.75090885257
0.0095 -0.0295 3.79593927699
0.0095 -0.0285 3.85290818337
0.0095 -0.0275 3.91483085386
0.0095 -0.0265 3.97646310778
0.0095 -0.0255 4.03461826942
0.0095 -0.0245 4.08947216997
0.0095 -0.0235 4.14255012125
0.0095 -0.0225 4.19528194208
0.0095 -0.0215 4.24951817606
0.0095 -0.0205 4.30693095066
0.0095 -0.0195 4.36748571893
0.0095 -0.0185 4.42694185803
0.0095 -0.0175 4.48167147712
0.0095 -0.0165 4.53096846717
0.0095 -0.0155 4.57479526059
0.0095 -0.0145 4.61593043734
0.0095 -0.0135 4.65824372639
0.0095 -0.0125 4.70320408588
0.0095 -0.0115 4.75010667759
0.0095 -0.0105 4.79701150979
0.0095 -0.0095 4.84180724303
0.0095 -0.0085 4.8833311716
0.0095 -0.0075 4.92212728029
0.0095 -0.0065 4.96108274633
0.0095 -0.0055 5.00122118183
0.0095 -0.0045 5.03546992279
0.0095 -0.0035 5.05545785187
0.0095 -0.0025 5.05874232101
0.0095 -0.0015 5.04552601261
0.0095 -0.0005 5.01475619932
0.0095 0.0005 4.96451154515
0.0095 0.0015 4.89550400797
0.0095 0.0025 4.81481788746
0.0095 0.0035 4.73519948139
0.0095 0.0045 4.66900292523
0.0095 0.0055 4.62364297417
0.0095 0.0065 4.59924608688
0.0095 0.0075 4.58941433843
0.0095 0.0085 4.58631914555
0.0095 0.0095 4.58686561708
0.0095 0.0105 4.59612084871
0.0095 0.0115 4.62340812919
0.0095 0.0125 4.66839837583
0.0095 0.0135 4.71732508515
0.0095 0.0145 4.75485856605
0.0095 0.0155 4.76997639074
0.0095 0.0165 4.75488792881
0.0095 0.0175 4.70320077937
0.0095 0.0185 4.61566560216
0.0095 0.0195 4.50714540739
0.0095 0.0205 4.39709258899
0.0095 0.0215 4.3003496842
0.0095 0.0225 4.22382307626
0.0095 0.0235 4.16357071772
0.0095 0.0245 4.10940645858
0.0095 0.0255 4.05167687078
0.0095 0.0265 3.98793434957
0.0095 0.0275 3.9207471763
0.0095 0.0285 3.85390615421
0.0095 0.0295 3.79339715662
0.0095 0.0305 3.74602858391
0.0095 0.0315 3.71922506162
0.0105 -0.0315 3.65459479066
0.0105 -0.0305 3.68094865142
0.0105 -0.0295 3.7275913107
0.0105 -0.0285 3.78567509841
0.0105 -0.0275 3.84729031247
0.0105 -0.0265 3.90700256511
0.0105 -0.0255 3.9632955334
0.0105 -0.0245 4.01786893999
0.0105 -0.0235 4.07158933494
0.0105 -0.0225 4.1241943321
0.0105 -0.0215 4.17774026175
0.0105 -0.0205 4.23495674942
0.0105 -0.0195 4.29441735611
0.0105 -0.0185 4.3514069296
0.0105 -0.0175 4.4012909978
0.0105 -0.0165 4.44075614877
0.0105 -0.0155 4.46991582921
0.0105 -0.0145 4.49296073039
0.0105 -0.0135 4.51498142286
0.0105 -0.0125 4.5393558425
0.0105 -0.0115 4.56736364477
0.0105 -0.0105 4.59834077148
0.0105 -0.0095 4.63114152702
0.0105 -0.0085 4.66693426321
0.0105 -0.0075 4.71069520184
0.0105 -0.0065 4.76730707781
0.0105 -0.0055 4.83825454279
0.0105 -0.0045 4.90950301338
0.0105 -0.0035 4.96069543017
0.0105 -0.0025 4.98583754191
0.0105 -0.0015 4.98657241054
0.0105 -0.0005 4.96449034702
0.0105 0.0005 4.9204406704
0.0105 0.0015 4.857959307
0.0105 0.0025 4.78493122587
0.0105 0.0035 4.71234523752
0.0105 0.0045 4.65155218941
0.0105 0.0055 4.61024363373
0.0105 0.0065 4.58922332448
0.0105 0.0075 4.58245472634
0.0105 0.0085 4.58174271683
0.0105 0.0095 4.58324077502
0.0105 0.0105 4.59112575708
0.0105 0.0115 4.61472548404
0.0105 0.0125 4.65566528321
0.0105 0.0135 4.70248732642
0.0105 0.0145 4.73979566783
0.0105 0.0155 4.75600103746
0.0105 0.0165 4.74232359825
0.0105 0.0175 4.68421637766
0.0105 0.0185 4.57903952383
0.0105 0.0195 4.45434559488
0.0105 0.0205 4.33953387998
0.0105 0.0215 4.24537598455
0.0105 0.0225 4.17170010997
0.0105 0.0235 4.11196882146
0.0105 0.0245 4.05618523044
0.0105 0.0255 3.99623212894
0.0105 0.0265 3.93112231241
0.0105 0.0275 3.86349025443
0.0105 0.0285 3.79601916248
0.0105 0.0295 3.73415831431
0.0105 0.0305 3.6853954135
0.0105 0.0315 3.65781439994
0.0115 -0.0315 3.58095773005
0.0115 -0.0305 3.60799164356
0.0115 -0.0295 3.6560122684
0.0115 -0.0285 3.71545250627
0.0115 -0.0275 3.77723811042
0.0115 -0.0265 3.83551053803
0.0115 -0.0255 3.88981603096
0.0115 -0.0245 3.94265112031
0.0115 -0.0235 3.99465889775
0.0115 -0.0225 4.04609096283
0.0115 -0.0215 4.10021386979
0.0115 -0.0205 4.15863608202
0.0115 -0.0195 4.21736189704
0.0115 -0.0185 4.26962265739
0.0115 -0.0175 4.30891256191
0.0115 -0.0165 4.33227333544
0.0115 -0.0155 4.34209217524
0.0115 -0.0145 4.34390824554
0.0115 -0.0135 4.34356475428
0.0115 -0.0125 4.34559609763
0.0115 -0.0115 4.35242045755
0.0115 -0.0105 4.36441899702
0.0115 -0.0095 4.38091791421
0.0115 -0.0085 4.40503888758
0.0115 -0.0075 4.44415316565
0.0115 -0.0065 4.50518441643
0.0115 -0.0055 4.59584533557
0.0115 -0.0045 4.70235868584
0.0115 -0.0035 4.7934260478
0.0115 -0.0025 4.85305730223
0.0115 -0.0015 4.87912395496
0.0115 -0.0005 4.87474635765
0.0115 0.0005 4.84466677079
0.0115 0.0015 4.79546857372
0.0115 0.0025 4.7358580944
0.0115 0.0035 4.67585807841
0.0115 0.0045 4.62564145276
0.0115 0.0055 4.59244341724
0.0115 0.0065 4.57723339953
0.0115 0.0075 4.57420188944
0.0115 0.0085 4.57576110609
0.0115 0.0095 4.57862621654
0.0115 0.0105 4.58620640887
0.0115 0.0115 4.60636554135
0.0115 0.0125 4.64060481948
0.0115 0.0135 4.67986263502
0.0115 0.0145 4.71122236219
0.0115 0.0155 4.72533248354
0.0115 0.0165 4.71343944813
0.0115 0.0175 4.65402881704
0.0115 0.0185 4.53974178971
0.0115 0.0195 4.40270966833
0.0115 0.0205 4.28029960313
0.0115 0.0215 4.1841695032
0.0115 0.0225 4.10943248815
0.0115 0.0235 4.04817614559
0.0115 0.0245 3.99064213537
0.0115 0.0255 3.9302394494
0.0115 0.0265 3.86632226117
0.0115 0.0275 3.79946406795
0.0115 0.0285 3.7319582924
0.0115 0.0295 3.66980054417
0.0115 0.0305 3.6209110321
0.0115 0.0315 3.59369639371
0.0125 -0.0315 3.50459157118
0.0125 -0.0305 3.53109765671
0.0125 -0.0295 3.5789564179
0.0125 -0.0285 3.63893864061
0.0125 -0.0275 3.7011216452
0.0125 -0.0265 3.7592492863
0.0125 -0.0255 3.81222376354
0.0125 -0.0245 3.86185964507
0.0125 -0.0235 3.90982724891
0.0125 -0.0225 3.95904632151
0.0125 -0.0215 4.0137995208
0.0125 -0.0205 4.07297878154
0.0125 -0.0195 4.12863183297
0.0125 -0.0185 4.17114928938
0.0125 -0.0175 4.19460135825
0.0125 -0.0165 4.19873360407
0.0125 -0.0155 4.18799660372
0.0125 -0.0145 4.16899556823
0.0125 -0.0135 4.14814663362
0.0125 -0.0125 4.13037523145
0.0125 -0.0115 4.11889647361
0.0125 -0.0105 4.11563639065
0.0125 -0.0095 4.12229343494
0.0125 -0.0085 4.14353284161
0.0125 -0.0075 4.18057623158
0.0125 -0.0065 4.23681317703
0.0125 -0.0055 4.32878875731
0.0125 -0.0045 4.4513975437
0.0125 -0.0035 4.57302696464
0.0125 -0.0025 4.66899157403
0.0125 -0.0015 4.72864478112
0.0125 -0.0005 4.75233748029
0.0125 0.0005 4.74588629604
0.0125 0.0015 4.71736144802
0.0125 0.0025 4.676124986
0.0125 0.0035 4.63232550412
0.0125 0.0045 4.59572833969
0.0125 0.0055 4.57301264821
0.0125 0.0065 4.56457262294
0.0125 0.0075 4.56488650247
0.0125 0.0085 4.56812393349
0.0125 0.0095 4.57216201734
0.0125 0.0105 4.57952154125
0.0125 0.0115 4.59571032313
0.0125 0.0125 4.62129614755
0.0125 0.0135 4.64974240378
0.0125 0.0145 4.6731170474
0.0125 0.0155 4.68550315615
0.0125 0.0165 4.67488766044
0.0125 0.0175 4.61626255428
0.0125 0.0185 4.50029118578
0.0125 0.0195 4.35551968009
0.0125 0.0205 4.2222883388
0.0125 0.0215 4.11858650253
0.0125 0.0225 4.03957171066
0.0125 0.0235 3.97519598357
0.0125 0.0245 3.91644510184
0.0125 0.0255 3.85777125887
0.0125 0.0265 3.79636333256
0.0125 0.0275 3.7298986199
0.0125 0.0285 3.66167588945
0.0125 0.0295 3.59971274711
0.0125 0.0305 3.55228630585
0.0125 0.0315 3.52681870788
0.0135 -0.0315 3.4255655868
0.0135 -0.0305 3.44975093381
0.0135 -0.0295 3.4945190294
0.0135 -0.0285 3.55246169148
0.0135 -0.0275 3.61440580944
0.0135 -0.0265 3.67372972751
0.0135 -0.0255 3.72671221347
0.0135 -0.0245 3.77275848961
0.0135 -0.0235 3.8160260838
0.0135 -0.0225 3.86270654847
0.0135 -0.0215 3.91632695382
0.0135 -0.0205 3.97277713999
0.0135 -0.0195 4.02027293342
0.0135 -0.0185 4.04801040689
0.0135 -0.0175 4.05281678376
0.0135 -0.0165 4.0374089183
0.0135 -0.0155 4.00804640814
0.0135 -0.0145 3.97195683012
0.0135 -0.0135 3.93562984692
0.0135 -0.0125 3.90417410004
0.0135 -0.0115 3.88151459648
0.0135 -0.0105 3.871217927
0.0135 -0.0095 3.87761982639
0.0135 -0.0085 3.90470007504
0.0135 -0.0075 3.94524749034
0.0135 -0.0065 3.99745199637
0.0135 -0.0055 4.08219711445
0.0135 -0.0045 4.20391702795
0.0135 -0.0035 4.33992406253
0.0135 -0.0025 4.46426605744
0.0135 -0.0015 4.5582227293
0.0135 -0.0005 4.61565151945
0.0135 0.0005 4.63906829209
0.0135 0.0015 4.63564725891
0.0135 0.0025 4.61515444408
0.0135 0.0035 4.58856048576
0.0135 0.0045 4.56605284268
0.0135 0.0055 4.55388862971
0.0135 0.0065 4.55166175397
0.0135 0.0075 4.55458826334
0.0135 0.0085 4.55894098887
0.0135 0.0095 4.5636583904
0.0135 0.0105 4.57040537361
0.0135 0.0115 4.58206523525
0.0135 0.0125 4.59845360534
0.0135 0.0135 4.61625876645
0.0135 0.0145 4.63241991024
0.0135 0.0155 4.64292718874
0.0135 0.0165 4.63196965615
0.0135 0.0175 4.57400460806
0.0135 0.0185 4.46024069198
0.0135 0.0195 4.31304697125
0.0135 0.0205 4.16926741263
0.0135 0.0215 4.05324056728
0.0135 0.0225 3.9670924037
0.0135 0.0235 3.8998230285
0.0135 0.0245 3.84012022804
0.0135 0.0255 3.78220911818
0.0135 0.0265 3.72179320008
0.0135 0.0275 3.65536228859
0.0135 0.0285 3.58668365512
0.0135 0.0295 3.52535635269
0.0135 0.0305 3.48072321512
0.0135 0.0315 3.45840596221
0.0145 -0.0315 3.34438858394
0.0145 -0.0305 3.36429746727
0.0145 -0.0295 3.40229403235
0.0145 -0.0285 3.45383954335
0.0145 -0.0275 3.51259522458
0.0145 -0.0265 3.57280455257
0.0145 -0.0255 3.62718595944
0.0145 -0.0245 3.671374213
0.0145 -0.0235 3.71167237407
0.0145 -0.0225 3.75648366347
0.0145 -0.0215 3.80735444168
0.0145 -0.0205 3.85602357968
0.0145 -0.0195 3.88881264768
0.0145 -0.0185 3.89773946831
0.0145 -0.0175 3.88322703869
0.0145 -0.0165 3.85045287696
0.0145 -0.0155 3.80680495162
0.0145 -0.0145 3.75961339605
0.0145 -0.0135 3.71507878101
0.0145 -0.0125 3.67831484686
0.0145 -0.0115 3.65387279041
0.0145 -0.0105 3.64615332823
0.0145 -0.0095 3.6598020596
0.0145 -0.0085 3.69438437622
0.0145 -0.0075 3.73914444608
0.0145 -0.0065 3.79193641216
0.0145 -0.0055 3.87233903733
0.0145 -0.0045 3.98956254191
0.0145 -0.0035 4.13078388899
0.0145 -0.0025 4.27445035008
0.0145 -0.0015 4.39772080344
0.0145 -0.0005 4.48744875389
0.0145 0.0005 4.5406931422
0.0145 0.0015 4.5620319261
0.0145 0.0025 4.56111284475
0.0145 0.0035 4.55000738825
0.0145 0.0045 4.53967157212
0.0145 0.0055 4.53604020667
0.0145 0.0065 4.53845503885
0.0145 0.0075 4.54335965341
0.0145 0.0085 4.54858330472
0.0145 0.0095 4.55374721416
0.0145 0.0105 4.55967905999
0.0145 0.0115 4.56698167798
0.0145 0.0125 4.5754503938
0.0145 0.0135 4.58513106527
0.0145 0.0145 4.59576164851
0.0145 0.0155 4.60291006164
0.0145 0.0165 4.58963789813
0.0145 0.0175 4.53202788809
0.0145 0.0185 4.42147741487
0.0145 0.0195 4.27479535425
0.0145 0.0205 4.12370264916
0.0145 0.0215 3.99499749231
0.0145 0.0225 3.89834947838
0.0145 0.0235 3.82645664093
0.0145 0.0245 3.76530015795
0.0145 0.0255 3.70579828351
0.0145 0.0265 3.64408534375
0.0145 0.0275 3.57831507458
0.0145 0.0285 3.51093297313
0.0145 0.0295 3.45107748799
0.0145 0.0305 3.41006470467
0.0145 0.0315 3.39221933108
0.0155 -0.0315 3.26177714119
0.0155 -0.0305 3.27598610725
0.0155 -0.0295 3.3041187313
0.0155 -0.0285 3.34459032348
0.0155 -0.0275 3.39517498354
0.0155 -0.0265 3.45313113355
0.0155 -0.0255 3.50903054237
0.0155 -0.0245 3.55526520048
0.0155 -0.0235 3.5969881354
0.0155 -0.0225 3.64108085916
0.0155 -0.0215 3.68675358778
0.0155 -0.0205 3.72205998194
0.0155 -0.0195 3.73471616223
0.0155 -0.0185 3.72264129676
0.0155 -0.0175 3.69006597842
0.0155 -0.0165 3.64399069852
0.0155 -0.0155 3.59205115828
0.0155 -0.0145 3.541079859
0.0155 -0.0135 3.49672922574
0.0155 -0.0125 3.46377147524
0.0155 -0.0115 3.44661219525
0.0155 -0.0105 3.4493236716
0.0155 -0.0095 3.47521840369
0.0155 -0.0085 3.51760735161
0.0155 -0.0075 3.56531070894
0.0155 -0.0065 3.62084081128
0.0155 -0.0055 3.70176503932
0.0155 -0.0045 3.81829589686
0.0155 -0.0035 3.96451886702
0.0155 -0.0025 4.12344471504
0.0155 -0.0015 4.27034690493
0.0155 -0.0005 4.38665730008
0.0155 0.0005 4.46435479911
0.0155 0.0015 4.50539244941
0.0155 0.0025 4.51948527765
0.0155 0.0035 4.52008777661
0.0155 0.0045 4.51880846988
0.0155 0.0055 4.52092153901
0.0155 0.0065 4.52594403267
0.0155 0.0075 4.53195418252
0.0155 0.0085 4.53803177752
0.0155 0.0095 4.54408746861
0.0155 0.0105 4.54965117496
0.0155 0.0115 4.55337222256
0.0155 0.0125 4.55603541893
0.0155 0.0135 4.56033609886
0.0155 0.0145 4.56675148116
0.0155 0.0155 4.56987114128
0.0155 0.0165 4.5534135619
0.0155 0.0175 4.49593271802
0.0155 0.0185 4.38851125247
0.0155 0.0195 4.24362982206
0.0155 0.0205 4.08802057658
0.0155 0.0215 3.94837830452
0.0155 0.0225 3.83915096974
0.0155 0.0235 3.7584957562
0.0155 0.0245 3.69357659868
0.0155 0.0255 3.63199625457
0.0155 0.0265 3.56887522397
0.0155 0.0275 3.50417599586
0.0155 0.0285 3.43974526555
0.0155 0.0295 3.38305987161
0.0155 0.0305 3.34619112024
0.0155 0.0315 3.33312684629
0.0165 -0.0315 3.17839702957
0.0165 -0.0305 3.18647558359
0.0165 -0.0295 3.20362354527
0.0165 -0.0285 3.23068548715
0.0165 -0.0275 3.26945397728
0.0165 -0.0265 3.32092120992
0.0165 -0.0255 3.37649807564
0.0165 -0.0245 3.42742366391
0.0165 -0.0235 3.47430988017
0.0165 -0.0225 3.51848388558
0.0165 -0.0215 3.55450807366
0.0165 -0.0205 3.57016729258
0.0165 -0.0195 3.55985624043
0.0165 -0.0185 3.52759121114
0.0165 -0.0175 3.48061098412
0.0165 -0.0165 3.42700372461
0.0165 -0.0155 3.3738751627
0.0165 -0.0145 3.32699424861
0.0165 -0.0135 3.29106050495
0.0165 -0.0125 3.26998449861