% Model:              Benchmark260518.mph
% Version:            COMSOL 6.2.0.339
% Date:               May 21 2026, 06:51
% Dimension:          2
% Nodes:              4096
% Expressions:        1
% Description:        压力
% Length unit:        m
% x                       y                        p (Pa)
5.0E-4                    -0.0315                  3.573658088312704
5.0E-4                    -0.0305                  3.6018884704504406
5.0E-4                    -0.0295                  3.6402830811598488
5.0E-4                    -0.0285                  3.6820103559432287
5.0E-4                    -0.0275                  3.725551065145262
5.0E-4                    -0.0265                  3.7703459273066
5.0E-4                    -0.0255                  3.8160281388533046
5.0E-4                    -0.0245                  3.8623662058975965
5.0E-4                    -0.0235                  3.9091933917505
5.0E-4                    -0.0225                  3.956389672870187
5.0E-4                    -0.0215                  4.003860694974578
5.0E-4                    -0.0205                  4.051542908701743
5.0E-4                    -0.0195                  4.099398240477058
5.0E-4                    -0.0185                  4.1474067133173715
5.0E-4                    -0.0175                  4.1955750915428265
5.0E-4                    -0.0165                  4.243929694395732
5.0E-4                    -0.0155                  4.292514399103206
5.0E-4                    -0.0145                  4.341391994693143
5.0E-4                    -0.0135                  4.3906236583698615
5.0E-4                    -0.0125                  4.440266068597386
5.0E-4                    -0.0115                  4.490288393986739
5.0E-4                    -0.0105                  4.540587147448381
5.0E-4                    -0.0095                  4.590132278340791
5.0E-4                    -0.0085                  4.635528555508555
5.0E-4                    -0.0075                  4.672358681168998
5.0E-4                    -0.0065                  4.69625243528534
5.0E-4                    -0.0055                  4.706957936176377
5.0E-4                    -0.0045                  4.709242689622611
5.0E-4                    -0.0035                  4.706572072475652
5.0E-4                    -0.0025                  4.700519845678553
5.0E-4                    -0.0015                  4.692284980373751
5.0E-4                    -5.0E-4                  4.705609599624333
5.0E-4                    5.0E-4                   4.773782787514538
5.0E-4                    0.0015                   4.865058558498564
5.0E-4                    0.0025                   4.928003302179008
5.0E-4                    0.0035                   4.962804813512297
5.0E-4                    0.0045                   4.983944826262428
5.0E-4                    0.0055                   4.997774336043891
5.0E-4                    0.0065                   5.005286668225471
5.0E-4                    0.0075                   5.004193588086725
5.0E-4                    0.0085                   4.994875347260654
5.0E-4                    0.0095                   4.9789044463168795
5.0E-4                    0.0105                   4.95910946405996
5.0E-4                    0.0115                   4.940472230886354
5.0E-4                    0.0125                   4.9255145517944925
5.0E-4                    0.0135                   4.915297751772397
5.0E-4                    0.0145                   4.906072716996951
5.0E-4                    0.0155                   4.887563413832071
5.0E-4                    0.0165                   4.8555771347596455
5.0E-4                    0.0175                   4.8220103487126735
5.0E-4                    0.0185                   4.788754772605809
5.0E-4                    0.0195                   4.750691010375013
5.0E-4                    0.0205                   4.71083423349966
5.0E-4                    0.0215                   4.67040485872363
5.0E-4                    0.0225                   4.6312308549931505
5.0E-4                    0.0235                   4.593856276810823
5.0E-4                    0.0245                   4.557802395631595
5.0E-4                    0.0255                   4.522702112170995
5.0E-4                    0.0265                   4.488457256663597
5.0E-4                    0.0275                   4.455045392248015
5.0E-4                    0.0285                   4.422639582954797
5.0E-4                    0.0295                   4.391609910955035
5.0E-4                    0.0305                   4.36306210292217
5.0E-4                    0.0315                   4.3420602008737585
0.0015                    -0.0315                  3.5452507779710527
0.0015                    -0.0305                  3.573795731224922
0.0015                    -0.0295                  3.6153630821346634
0.0015                    -0.0285                  3.660877306720885
0.0015                    -0.0275                  3.707773714609827
0.0015                    -0.0265                  3.755393535306633
0.0015                    -0.0255                  3.803481011337622
0.0015                    -0.0245                  3.851876881832456
0.0015                    -0.0235                  3.900461929129338
0.0015                    -0.0225                  3.94913644252064
0.0015                    -0.0215                  3.9978156045140714
0.0015                    -0.0205                  4.04643052815074
0.0015                    -0.0195                  4.094933527631296
0.0015                    -0.0185                  4.1433041362820235
0.0015                    -0.0175                  4.19155639023124
0.0015                    -0.0165                  4.239748321001686
0.0015                    -0.0155                  4.287991827450661
0.0015                    -0.0145                  4.336466521475959
0.0015                    -0.0135                  4.385437637150355
0.0015                    -0.0125                  4.435261067245406
0.0015                    -0.0115                  4.486354173346591
0.0015                    -0.0105                  4.538787320791063
0.0015                    -0.0095                  4.591145127070568
0.0015                    -0.0085                  4.639316739976646
0.0015                    -0.0075                  4.677800169139074
0.0015                    -0.0065                  4.701360073857151
0.0015                    -0.0055                  4.710853901871155
0.0015                    -0.0045                  4.712085860012837
0.0015                    -0.0035                  4.708525222576394
0.0015                    -0.0025                  4.70303091134148
0.0015                    -0.0015                  4.699944186481159
0.0015                    -5.0E-4                  4.707916033424237
0.0015                    5.0E-4                   4.767674481324967
0.0015                    0.0015                   4.854200228446264
0.0015                    0.0025                   4.908100931123825
0.0015                    0.0035                   4.937527476853559
0.0015                    0.0045                   4.955066431630432
0.0015                    0.0055                   4.9670902534450905
0.0015                    0.0065                   4.974489899558072
0.0015                    0.0075                   4.973451410581214
0.0015                    0.0085                   4.9597823728663855
0.0015                    0.0095                   4.9362916961662116
0.0015                    0.0105                   4.912510806772041
0.0015                    0.0115                   4.893366438448325
0.0015                    0.0125                   4.878209919171799
0.0015                    0.0135                   4.867602207114177
0.0015                    0.0145                   4.859097774792997
0.0015                    0.0155                   4.8460902495699365
0.0015                    0.0165                   4.828198293715515
0.0015                    0.0175                   4.803893514332303
0.0015                    0.0185                   4.770323904843631
0.0015                    0.0195                   4.732560182420596
0.0015                    0.0205                   4.693614122075031
0.0015                    0.0215                   4.654397187524581
0.0015                    0.0225                   4.61637778361581
0.0015                    0.0235                   4.57978273572024
0.0015                    0.0245                   4.544218320981432
0.0015                    0.0255                   4.509259614996361
0.0015                    0.0265                   4.474605370437644
0.0015                    0.0275                   4.440156887871175
0.0015                    0.0285                   4.406012673134005
0.0015                    0.0295                   4.372653902352215
0.0015                    0.0305                   4.342026538300971
0.0015                    0.0315                   4.320934840953296
0.0025                    -0.0315                  3.50612947197375
0.0025                    -0.0305                  3.532584344744076
0.0025                    -0.0295                  3.5750554719699013
0.0025                    -0.0285                  3.62427959950086
0.0025                    -0.0275                  3.6757393995640784
0.0025                    -0.0265                  3.727818326121973
0.0025                    -0.0255                  3.7799891228718256
0.0025                    -0.0245                  3.8320374758701705
0.0025                    -0.0235                  3.88383309220683
0.0025                    -0.0225                  3.9352686410758766
0.0025                    -0.0215                  3.986244223546003
0.0025                    -0.0205                  4.03666777578492
0.0025                    -0.0195                  4.086465143587281
0.0025                    -0.0185                  4.135597255939694
0.0025                    -0.0175                  4.184080779133507
0.0025                    -0.0165                  4.232012705145083
0.0025                    -0.0155                  4.27959860160483
0.0025                    -0.0145                  4.327186051269342
0.0025                    -0.0135                  4.375301349300036
0.0025                    -0.0125                  4.424658719419407
0.0025                    -0.0115                  4.475995089750332
0.0025                    -0.0105                  4.529502123837327
0.0025                    -0.0095                  4.5836787287854985
0.0025                    -0.0085                  4.63418104943712
0.0025                    -0.0075                  4.675499828083676
0.0025                    -0.0065                  4.702234901528804
0.0025                    -0.0055                  4.715004095672812
0.0025                    -0.0045                  4.718504737384535
0.0025                    -0.0035                  4.715565887427121
0.0025                    -0.0025                  4.711609343223218
0.0025                    -0.0015                  4.715224192227663
0.0025                    -5.0E-4                  4.742257886038414
0.0025                    5.0E-4                   4.796898293982613
0.0025                    0.0015                   4.853634610163555
0.0025                    0.0025                   4.892811477866878
0.0025                    0.0035                   4.917126834050041
0.0025                    0.0045                   4.933294643703791
0.0025                    0.0055                   4.944770105293662
0.0025                    0.0065                   4.950224475208383
0.0025                    0.0075                   4.944943674227185
0.0025                    0.0085                   4.9264116638631705
0.0025                    0.0095                   4.8999975704074705
0.0025                    0.0105                   4.874341515131875
0.0025                    0.0115                   4.853725638159565
0.0025                    0.0125                   4.8380330616553415
0.0025                    0.0135                   4.825562849619476
0.0025                    0.0145                   4.814428191203594
0.0025                    0.0155                   4.802320898235874
0.0025                    0.0165                   4.786155447162348
0.0025                    0.0175                   4.762240651500605
0.0025                    0.0185                   4.730553629749882
0.0025                    0.0195                   4.695553690155602
0.0025                    0.0205                   4.6597174589739865
0.0025                    0.0215                   4.623662590895676
0.0025                    0.0225                   4.588195811445837
0.0025                    0.0235                   4.553431371914621
0.0025                    0.0245                   4.519000425280896
0.0025                    0.0255                   4.484367682154639
0.0025                    0.0265                   4.4491576150599315
0.0025                    0.0275                   4.413295124836118
0.0025                    0.0285                   4.377127571439057
0.0025                    0.0295                   4.341926840994365
0.0025                    0.0305                   4.311189705793937
0.0025                    0.0315                   4.291958323020813
0.0035                    -0.0315                  3.4630326758455814
0.0035                    -0.0305                  3.4871179018424976
0.0035                    -0.0295                  3.528358936380086
0.0035                    -0.0285                  3.579245365987175
0.0035                    -0.0275                  3.6345031433360653
0.0035                    -0.0265                  3.6912710537656976
0.0035                    -0.0255                  3.7482586940887552
0.0035                    -0.0245                  3.804897803679675
0.0035                    -0.0235                  3.8608925673022876
0.0035                    -0.0225                  3.9160429609660787
0.0035                    -0.0215                  3.9701823992118648
0.0035                    -0.0205                  4.023160843314127
0.0035                    -0.0195                  4.074850452922642
0.0035                    -0.0185                  4.1251669649801626
0.0035                    -0.0175                  4.174103626604834
0.0035                    -0.0165                  4.221772431970737
0.0035                    -0.0155                  4.268447412393776
0.0035                    -0.0145                  4.3146050802565
0.0035                    -0.0135                  4.3609472467592205
0.0035                    -0.0125                  4.408347601844202
0.0035                    -0.0115                  4.457624147433969
0.0035                    -0.0105                  4.509044725360459
0.0035                    -0.0095                  4.561605322001828
0.0035                    -0.0085                  4.612391638378538
0.0035                    -0.0075                  4.6576054887084375
0.0035                    -0.0065                  4.6921891687256725
0.0035                    -0.0055                  4.714163741186858
0.0035                    -0.0045                  4.723853179605503
0.0035                    -0.0035                  4.722984877924055
0.0035                    -0.0025                  4.721058656331707
0.0035                    -0.0015                  4.731326644635513
0.0035                    -5.0E-4                  4.761686169678582
0.0035                    5.0E-4                   4.805423997018548
0.0035                    0.0015                   4.84562327766545
0.0035                    0.0025                   4.874861037165885
0.0035                    0.0035                   4.896201085198204
0.0035                    0.0045                   4.912556765564139
0.0035                    0.0055                   4.924083853376893
0.0035                    0.0065                   4.92710956298766
0.0035                    0.0075                   4.916984926859808
0.0035                    0.0085                   4.893882838404389
0.0035                    0.0095                   4.864548340324566
0.0035                    0.0105                   4.836476638293143
0.0035                    0.0115                   4.8144212857695745
0.0035                    0.0125                   4.798103037614572
0.0035                    0.0135                   4.783753063929912
0.0035                    0.0145                   4.76821353195004
0.0035                    0.0155                   4.749692402266115
0.0035                    0.0165                   4.728965927797745
0.0035                    0.0175                   4.704427158461301
0.0035                    0.0185                   4.675116108720259
0.0035                    0.0195                   4.643948196690868
0.0035                    0.0205                   4.612619152348592
0.0035                    0.0215                   4.581301523630588
0.0035                    0.0225                   4.549776235812568
0.0035                    0.0235                   4.517921512103375
0.0035                    0.0245                   4.485204353093684
0.0035                    0.0255                   4.451113618659474
0.0035                    0.0265                   4.415465462565818
0.0035                    0.0275                   4.37853933950163
0.0035                    0.0285                   4.3413469164180665
0.0035                    0.0295                   4.306183153499933
0.0035                    0.0305                   4.277201363104213
0.0035                    0.0315                   4.2601909476668105
0.0045                    -0.0315                  3.4175983171130255
0.0045                    -0.0305                  3.4398933146258597
0.0045                    -0.0295                  3.4795346132397533
0.0045                    -0.0285                  3.5306442734959114
0.0045                    -0.0275                  3.5883364327095038
0.0045                    -0.0265                  3.649122728571675
0.0045                    -0.0255                  3.7108841857303134
0.0045                    -0.0245                  3.7724593826293527
0.0045                    -0.0235                  3.8332000960113257
0.0045                    -0.0225                  3.8926952224518434
0.0045                    -0.0215                  3.95063837823828
0.0045                    -0.0205                  4.006774096732192
0.0045                    -0.0195                  4.060885868096984
0.0045                    -0.0185                  4.112811208065013
0.0045                    -0.0175                  4.1624783364289275
0.0045                    -0.0165                  4.20995910768352
0.0045                    -0.0155                  4.255524473445351
0.0045                    -0.0145                  4.29968035511977
0.0045                    -0.0135                  4.343157506711041
0.0045                    -0.0125                  4.386824286667391
0.0045                    -0.0115                  4.431492781239657
0.0045                    -0.0105                  4.477656961441008
0.0045                    -0.0095                  4.5252244652264295
0.0045                    -0.0085                  4.573614354189001
0.0045                    -0.0075                  4.621295453841853
0.0045                    -0.0065                  4.664737434246991
0.0045                    -0.0055                  4.697723683536014
0.0045                    -0.0045                  4.713757824610859
0.0045                    -0.0035                  4.715602868985522
0.0045                    -0.0025                  4.717218985181718
0.0045                    -0.0015                  4.731692776976892
0.0045                    -5.0E-4                  4.761345094338822
0.0045                    5.0E-4                   4.797167811726591
0.0045                    0.0015                   4.828660688598871
0.0045                    0.0025                   4.853708785404915
0.0045                    0.0035                   4.874515891279165
0.0045                    0.0045                   4.891321606027085
0.0045                    0.0055                   4.901712899404161
0.0045                    0.0065                   4.901043701513846
0.0045                    0.0075                   4.886318552985448
0.0045                    0.0085                   4.859819058417086
0.0045                    0.0095                   4.828488771549352
0.0045                    0.0105                   4.79913781445302
0.0045                    0.0115                   4.7756885940664775
0.0045                    0.0125                   4.757304672320897
0.0045                    0.0135                   4.740280368578147
0.0045                    0.0145                   4.720768810473926
0.0045                    0.0155                   4.696033210143734
0.0045                    0.0165                   4.669405882005543
0.0045                    0.0175                   4.643007227286097
0.0045                    0.0185                   4.615163931943346
0.0045                    0.0195                   4.586306320165875
0.0045                    0.0205                   4.558382803512867
0.0045                    0.0215                   4.531762876635048
0.0045                    0.0225                   4.504819760742153
0.0045                    0.0235                   4.4763968804234615
0.0045                    0.0245                   4.445628720353554
0.0045                    0.0255                   4.4122266301773365
0.0045                    0.0265                   4.376465294874137
0.0045                    0.0275                   4.339254401297368
0.0045                    0.0285                   4.302358641615296
0.0045                    0.0295                   4.268621325245399
0.0045                    0.0305                   4.241944239899637
0.0045                    0.0315                   4.226870588430687
0.0055                    -0.0315                  3.37029977319897
0.0055                    -0.0305                  3.3914731813799412
0.0055                    -0.0295                  3.42991131701048
0.0055                    -0.0285                  3.4808610026534854
0.0055                    -0.0275                  3.5400573610963724
0.0055                    -0.0265                  3.603984414863087
0.0055                    -0.0255                  3.670028185134284
0.0055                    -0.0245                  3.7364392741160963
0.0055                    -0.0235                  3.8021027740234388
0.0055                    -0.0225                  3.8662850240530635
0.0055                    -0.0215                  3.928458455304897
0.0055                    -0.0205                  3.9882066805049283
0.0055                    -0.0195                  4.045184463550983
0.0055                    -0.0185                  4.099114350014987
0.0055                    -0.0175                  4.14981145246968
0.0055                    -0.0165                  4.197232508804453
0.0055                    -0.0155                  4.241540497338607
0.0055                    -0.0145                  4.283154285514521
0.0055                    -0.0135                  4.322746956541257
0.0055                    -0.0125                  4.361186345473079
0.0055                    -0.0115                  4.399452736290965
0.0055                    -0.0105                  4.438547877776297
0.0055                    -0.0095                  4.479594851108682
0.0055                    -0.0085                  4.523565761114149
0.0055                    -0.0075                  4.570722033062618
0.0055                    -0.0065                  4.618248379940391
0.0055                    -0.0055                  4.656728184442322
0.0055                    -0.0045                  4.677058981157985
0.0055                    -0.0035                  4.683961282940208
0.0055                    -0.0025                  4.692726477605576
0.0055                    -0.0015                  4.713243128383662
0.0055                    -5.0E-4                  4.7438874417244765
0.0055                    5.0E-4                   4.776896199245236
0.0055                    0.0015                   4.806417150746993
0.0055                    0.0025                   4.831374097279556
0.0055                    0.0035                   4.852274794723363
0.0055                    0.0045                   4.8680530349487565
0.0055                    0.0055                   4.875191247318027
0.0055                    0.0065                   4.869900292343347
0.0055                    0.0075                   4.851383341146351
0.0055                    0.0085                   4.822956786889135
0.0055                    0.0095                   4.790928781391664
0.0055                    0.0105                   4.76114033077433
0.0055                    0.0115                   4.735887738863718
0.0055                    0.0125                   4.7144138992578615
0.0055                    0.0135                   4.694368965204429
0.0055                    0.0145                   4.672065941829692
0.0055                    0.0155                   4.644029987183433
0.0055                    0.0165                   4.6134462119948765
0.0055                    0.0175                   4.58524479303926
0.0055                    0.0185                   4.5575418294987395
0.0055                    0.0195                   4.529359263091852
0.0055                    0.0205                   4.503427945221343
0.0055                    0.0215                   4.480211219568219
0.0055                    0.0225                   4.457132266574862
0.0055                    0.0235                   4.431610041290257
0.0055                    0.0245                   4.402498760406637
0.0055                    0.0255                   4.369773034578508
0.0055                    0.0265                   4.334280193974143
0.0055                    0.0275                   4.297584878530548
0.0055                    0.0285                   4.261947174787293
0.0055                    0.0295                   4.230250145969788
0.0055                    0.0305                   4.2058737615456785
0.0055                    0.0315                   4.19241334902749
0.0065                    -0.0315                  3.321303215347596
0.0065                    -0.0305                  3.3419106259197155
0.0065                    -0.0295                  3.3797379264613276
0.0065                    -0.0285                  3.4307240466159468
0.0065                    -0.0275                  3.491111644642711
0.0065                    -0.0265                  3.5575739081141524
0.0065                    -0.0255                  3.627333915303078
0.0065                    -0.0245                  3.698243349864952
0.0065                    -0.0235                  3.768740991734632
0.0065                    -0.0225                  3.837714540756044
0.0065                    -0.0215                  3.9043487938385892
0.0065                    -0.0205                  3.968011988426712
0.0065                    -0.0195                  4.028188408047399
0.0065                    -0.0185                  4.08444908358742
0.0065                    -0.0175                  4.136452136769581
0.0065                    -0.0165                  4.183970883390176
0.0065                    -0.0155                  4.226957597753373
0.0065                    -0.0145                  4.265652571001915
0.0065                    -0.0135                  4.300687498913605
0.0065                    -0.0125                  4.333126978852784
0.0065                    -0.0115                  4.364442145788877
0.0065                    -0.0105                  4.3965369572584985
0.0065                    -0.0095                  4.431483636710889
0.0065                    -0.0085                  4.470785616372051
0.0065                    -0.0075                  4.5145478557300045
0.0065                    -0.0065                  4.5590339334871945
0.0065                    -0.0055                  4.596024450298692
0.0065                    -0.0045                  4.619429790911633
0.0065                    -0.0035                  4.635418447254819
0.0065                    -0.0025                  4.65622020358728
0.0065                    -0.0015                  4.68512330164635
0.0065                    -5.0E-4                  4.717862924407411
0.0065                    5.0E-4                   4.750726750947675
0.0065                    0.0015                   4.781508633002312
0.0065                    0.0025                   4.8076283851116
0.0065                    0.0035                   4.827692284886236
0.0065                    0.0045                   4.8403734355253105
0.0065                    0.0055                   4.842744870649973
0.0065                    0.0065                   4.8329084795642006
0.0065                    0.0075                   4.811739315490892
0.0065                    0.0085                   4.782716283261534
0.0065                    0.0095                   4.75083905287038
0.0065                    0.0105                   4.720671106061625
0.0065                    0.0115                   4.69365265167495
0.0065                    0.0125                   4.669286961674473