% Model:              Benchmark260518.mph
% Version:            COMSOL 6.2.0.339
% Date:               May 20 2026, 17:51
% Dimension:          2
% Nodes:              4096
% Expressions:        1
% Description:        压力
% Length unit:        m
% x                       y                        p (Pa)
% mirrored_by_python_y_to_minus_y, coord_match_decimals=12
0.0005 -0.0315 4.36763502941
0.0005 -0.0305 4.38694335952
0.0005 -0.0295 4.41333922716
0.0005 -0.0285 4.44204665671
0.0005 -0.0275 4.47205208701
0.0005 -0.0265 4.50298773248
0.0005 -0.0255 4.53462345317
0.0005 -0.0245 4.56683046026
0.0005 -0.0235 4.59948469649
0.0005 -0.0225 4.63246065874
0.0005 -0.0215 4.66564762839
0.0005 -0.0205 4.698943737
0.0005 -0.0195 4.73218085405
0.0005 -0.0185 4.76513937757
0.0005 -0.0175 4.79762216604
0.0005 -0.0165 4.82890542918
0.0005 -0.0155 4.85712504462
0.0005 -0.0145 4.87999029192
0.0005 -0.0135 4.89501380183
0.0005 -0.0125 4.9019349638
0.0005 -0.0115 4.90291239557
0.0005 -0.0105 4.90110965573
0.0005 -0.0095 4.90171930704
0.0005 -0.0085 4.89817424251
0.0005 -0.0075 4.87425486211
0.0005 -0.0065 4.84603358436
0.0005 -0.0055 4.83601893675
0.0005 -0.0045 4.83696986174
0.0005 -0.0035 4.83671023055
0.0005 -0.0025 4.82794597589
0.0005 -0.0015 4.80634066486
0.0005 -0.0005 4.77183795823
0.0005 0.0005 4.72844021526
0.0005 0.0015 4.68017385053
0.0005 0.0025 4.62998909419
0.0005 0.0035 4.57872653558
0.0005 0.0045 4.52666793603
0.0005 0.0055 4.47423511159
0.0005 0.0065 4.42175261432
0.0005 0.0075 4.36952938984
0.0005 0.0085 4.31785187772
0.0005 0.0095 4.26693471052
0.0005 0.0105 4.21689175781
0.0005 0.0115 4.16773744237
0.0005 0.0125 4.11941308662
0.0005 0.0135 4.07182689162
0.0005 0.0145 4.02488338239
0.0005 0.0155 3.97849920358
0.0005 0.0165 3.93260643633
0.0005 0.0175 3.88714407561
0.0005 0.0185 3.84205149589
0.0005 0.0195 3.79728282434
0.0005 0.0205 3.75284130638
0.0005 0.0215 3.70877651949
0.0005 0.0225 3.66515178023
0.0005 0.0235 3.62202570439
0.0005 0.0245 3.57945539258
0.0005 0.0255 3.53751467581
0.0005 0.0265 3.49631643196
0.0005 0.0275 3.45604119787
0.0005 0.0285 3.41701756879
0.0005 0.0295 3.37972775126
0.0005 0.0305 3.34548955034
0.0005 0.0315 3.32043170587
0.0015 -0.0315 4.34827389173
0.0015 -0.0305 4.36763644377
0.0015 -0.0295 4.39596519013
0.0015 -0.0285 4.4269870695
0.0015 -0.0275 4.45896214902
0.0015 -0.0265 4.4915047313
0.0015 -0.0255 4.52450793833
0.0015 -0.0245 4.55793772238
0.0015 -0.0235 4.59177887478
0.0015 -0.0225 4.62601153576
0.0015 -0.0215 4.66061105311
0.0015 -0.0205 4.69553478631
0.0015 -0.0195 4.73069748754
0.0015 -0.0185 4.76594130034
0.0015 -0.0175 4.80083167481
0.0015 -0.0165 4.83410426197
0.0015 -0.0155 4.86325971395
0.0015 -0.0145 4.88561889335
0.0015 -0.0135 4.89907930512
0.0015 -0.0125 4.90473752163
0.0015 -0.0115 4.90626551732
0.0015 -0.0105 4.90560970969
0.0015 -0.0095 4.90673744493
0.0015 -0.0085 4.90209458882
0.0015 -0.0075 4.87677171795
0.0015 -0.0065 4.84711552704
0.0015 -0.0055 4.83849777257
0.0015 -0.0045 4.84167176534
0.0015 -0.0035 4.84186138996
0.0015 -0.0025 4.83598884197
0.0015 -0.0015 4.81766308084
0.0015 -0.0005 4.78460145832
0.0015 0.0005 4.74001754497
0.0015 0.0015 4.68834739402
0.0015 0.0025 4.63358738763
0.0015 0.0035 4.57777846964
0.0015 0.0045 4.52172991917
0.0015 0.0055 4.46594297781
0.0015 0.0065 4.41087299039
0.0015 0.0075 4.35689848833
0.0015 0.0085 4.30428525528
0.0015 0.0095 4.25314147112
0.0015 0.0105 4.20340919485
0.0015 0.0115 4.15490342858
0.0015 0.0125 4.10737756849
0.0015 0.0135 4.06058592196
0.0015 0.0145 4.01432357602
0.0015 0.0155 3.9684414498
0.0015 0.0165 3.92284098475
0.0015 0.0175 3.87746041388
0.0015 0.0185 3.83226514441
0.0015 0.0195 3.78725120779
0.0015 0.0205 3.74244833447
0.0015 0.0215 3.69790804841
0.0015 0.0225 3.65368286327
0.0015 0.0235 3.60981154448
0.0015 0.0245 3.56632035731
0.0015 0.0255 3.52323444169
0.0015 0.0265 3.48059602517
0.0015 0.0275 3.43849561626
0.0015 0.0285 3.39711446019
0.0015 0.0295 3.35698215771
0.0015 0.0305 3.32034429284
0.0015 0.0315 3.29526358305
0.0025 -0.0315 4.32169796292
0.0025 -0.0305 4.3393123911
0.0025 -0.0295 4.36779654632
0.0025 -0.0285 4.40079547702
0.0025 -0.0275 4.43525868142
0.0025 -0.0265 4.47019879015
0.0025 -0.0255 4.50540646809
0.0025 -0.0245 4.54090543075
0.0025 -0.0235 4.5767927884
0.0025 -0.0225 4.61318419959
0.0025 -0.0215 4.6501796765
0.0025 -0.0205 4.68783355666
0.0025 -0.0195 4.72610707556
0.0025 -0.0185 4.76472206163
0.0025 -0.0175 4.80282480269
0.0025 -0.0165 4.83849326595
0.0025 -0.0155 4.86857810901
0.0025 -0.0145 4.89022521462
0.0025 -0.0135 4.90261323424
0.0025 -0.0125 4.90838742167
0.0025 -0.0115 4.91158503474
0.0025 -0.0105 4.91419712277
0.0025 -0.0095 4.91707101748
0.0025 -0.0085 4.91150692646
0.0025 -0.0075 4.88855147067
0.0025 -0.0065 4.8618462955
0.0025 -0.0055 4.85075157369
0.0025 -0.0045 4.85060609524
0.0025 -0.0035 4.84979814893
0.0025 -0.0025 4.84491752865
0.0025 -0.0015 4.82948248546
0.0025 -0.0005 4.79866172693
0.0025 0.0005 4.7531053557
0.0025 0.0015 4.69703304496
0.0025 0.0025 4.63559387135
0.0025 0.0035 4.57238302135
0.0025 0.0045 4.5094116208
0.0025 0.0055 4.44783183502
0.0025 0.0065 4.38842806051
0.0025 0.0075 4.3317045432
0.0025 0.0085 4.2778361656
0.0025 0.0095 4.22666560502
0.0025 0.0105 4.17777319586
0.0025 0.0115 4.13059814018
0.0025 0.0125 4.0845655567
0.0025 0.0135 4.03917959492
0.0025 0.0145 3.99406952877
0.0025 0.0155 3.94899559214
0.0025 0.0165 3.9038309702
0.0025 0.0175 3.8585348353
0.0025 0.0185 3.81312639747
0.0025 0.0195 3.76766070071
0.0025 0.0205 3.72220526431
0.0025 0.0215 3.67682074063
0.0025 0.0225 3.63154676083
0.0025 0.0235 3.58639522196
0.0025 0.0245 3.54135292019
0.0025 0.0255 3.49639532412
0.0025 0.0265 3.45151504212
0.0025 0.0275 3.40678121728
0.0025 0.0285 3.36254184321
0.0025 0.0295 3.3201192892
0.0025 0.0305 3.28345015642
0.0025 0.0315 3.26069919898
0.0035 -0.0315 4.29268614779
0.0035 -0.0305 4.30823768718
0.0035 -0.0295 4.3351944416
0.0035 -0.0285 4.36850303628
0.0035 -0.0275 4.4046335885
0.0035 -0.0265 4.44181036395
0.0035 -0.0255 4.4793921919
0.0035 -0.0245 4.51727932941
0.0035 -0.0235 4.5555947502
0.0035 -0.0225 4.59454248208
0.0035 -0.0215 4.63432393007
0.0035 -0.0205 4.67505694587
0.0035 -0.0195 4.71665174158
0.0035 -0.0185 4.75859752687
0.0035 -0.0175 4.79964091407
0.0035 -0.0165 4.83744380982
0.0035 -0.0155 4.86875482285
0.0035 -0.0145 4.89100864577
0.0035 -0.0135 4.9041940951
0.0035 -0.0125 4.911283891
0.0035 -0.0115 4.91618391222
0.0035 -0.0105 4.9205535852
0.0035 -0.0095 4.92384556923
0.0035 -0.0085 4.91840854079
0.0035 -0.0075 4.89802917233
0.0035 -0.0065 4.87379743301
0.0035 -0.0055 4.86276786947
0.0035 -0.0045 4.86122586547
0.0035 -0.0035 4.85838012053
0.0035 -0.0025 4.85237556607
0.0035 -0.0015 4.83731536107
0.0035 -0.0005 4.80705606543
0.0035 0.0005 4.75991382414
0.0035 0.0015 4.69901634291
0.0035 0.0025 4.63016576905
0.0035 0.0035 4.55839250924
0.0035 0.0045 4.48718883869
0.0035 0.0055 4.41882384789
0.0035 0.0065 4.35466402088
0.0035 0.0075 4.29531569113
0.0035 0.0085 4.24069877911
0.0035 0.0095 4.19018551509
0.0035 0.0105 4.14282218438
0.0035 0.0115 4.09756557182
0.0035 0.0125 4.05346620844
0.0035 0.0135 4.00977140422
0.0035 0.0145 3.9659587122
0.0035 0.0155 3.92172422404
0.0035 0.0165 3.8769459689
0.0035 0.0175 3.83163499906
0.0035 0.0185 3.78588172351
0.0035 0.0195 3.7398047373
0.0035 0.0205 3.69351092661
0.0035 0.0215 3.64707181976
0.0035 0.0225 3.60051563435
0.0035 0.0235 3.55383176025
0.0035 0.0245 3.50698656101
0.0035 0.0255 3.45995561019
0.0035 0.0265 3.4127902222
0.0035 0.0275 3.36578092162
0.0035 0.0285 3.31986448704
0.0035 0.0295 3.27739010535
0.0035 0.0305 3.24290732715
0.0035 0.0315 3.22291107696
0.0045 -0.0315 4.26231819716
0.0045 -0.0305 4.27618960364
0.0045 -0.0295 4.30122509442
0.0045 -0.0285 4.33363719788
0.0045 -0.0275 4.37023340773
0.0045 -0.0265 4.40888200411
0.0045 -0.0255 4.44846695828
0.0045 -0.0245 4.48859508138
0.0045 -0.0235 4.52927872203
0.0045 -0.0225 4.57071536503
0.0045 -0.0215 4.61313435675
0.0045 -0.0205 4.6566484886
0.0045 -0.0195 4.70107167421
0.0045 -0.0185 4.74569489634
0.0045 -0.0175 4.78904377797
0.0045 -0.0165 4.82875462399
0.0045 -0.0155 4.86197633144
0.0045 -0.0145 4.88648144832
0.0045 -0.0135 4.90212741007
0.0045 -0.0125 4.91107013598
0.0045 -0.0115 4.91676929503
0.0045 -0.0105 4.92117915296
0.0045 -0.0095 4.9234634054
0.0045 -0.0085 4.9180259213
0.0045 -0.0075 4.90126075347
0.0045 -0.0065 4.88161187845
0.0045 -0.0055 4.87193665463
0.0045 -0.0045 4.86922137037
0.0045 -0.0035 4.86453393851
0.0045 -0.0025 4.85651240468
0.0045 -0.0015 4.83974485742
0.0045 -0.0005 4.80743802459
0.0045 0.0005 4.75676859256
0.0045 0.0015 4.68996924945
0.0045 0.0025 4.61308028276
0.0045 0.0035 4.53239166643
0.0045 0.0045 4.45297752823
0.0045 0.0055 4.37833277819
0.0045 0.0065 4.31038392945
0.0045 0.0075 4.24963970838
0.0045 0.0085 4.19549335171
0.0045 0.0095 4.14663712666
0.0045 0.0105 4.10148977205
0.0045 0.0115 4.05852995148
0.0045 0.0125 4.01648909524
0.0045 0.0135 3.97442802846
0.0045 0.0145 3.93174283044
0.0045 0.0155 3.88812996439
0.0045 0.0165 3.84352436105
0.0045 0.0175 3.79802012234
0.0045 0.0185 3.75178749096
0.0045 0.0195 3.70500234389
0.0045 0.0205 3.65779972306
0.0045 0.0215 3.61025447399
0.0045 0.0225 3.56238525166
0.0045 0.0235 3.51417628338
0.0045 0.0245 3.46561606768
0.0045 0.0255 3.41676391219
0.0045 0.0265 3.36787871363
0.0045 0.0275 3.31967217569
0.0045 0.0285 3.27371209485
0.0045 0.0295 3.23280639644
0.0045 0.0305 3.20106673087
0.0045 0.0315 3.1833840314
0.0055 -0.0315 4.23099642122
0.0055 -0.0305 4.2435908597
0.0055 -0.0295 4.26688057293
0.0055 -0.0285 4.29794909758
0.0055 -0.0275 4.33413040104
0.0055 -0.0265 4.3733598518
0.0055 -0.0255 4.41426635532
0.0055 -0.0245 4.45614461493
0.0055 -0.0235 4.49878636623
0.0055 -0.0225 4.54227003561
0.0055 -0.0215 4.58676204558
0.0055 -0.0205 4.63232043176
0.0055 -0.0195 4.67868785814
0.0055 -0.0185 4.72508895807
0.0055 -0.0175 4.77008278834
0.0055 -0.0165 4.81157882716
0.0055 -0.0155 4.84717730915
0.0055 -0.0145 4.87482907341
0.0055 -0.0135 4.89376742054
0.0055 -0.0125 4.90487793492
0.0055 -0.0115 4.91053995923
0.0055 -0.0105 4.9129524148
0.0055 -0.0095 4.91255463293
0.0055 -0.0085 4.90732493406
0.0055 -0.0075 4.89550100542
0.0055 -0.0065 4.88174929781
0.0055 -0.0055 4.87449058499
0.0055 -0.0045 4.87133249931
0.0055 -0.0035 4.86531785134
0.0055 -0.0025 4.85519635124
0.0055 -0.0015 4.83555775563
0.0055 -0.0005 4.79902038729
0.0055 0.0005 4.74237519179
0.0055 0.0015 4.66763780263
0.0055 0.0025 4.58154635879
0.0055 0.0035 4.49191053243
0.0055 0.0045 4.40538598381
0.0055 0.0055 4.32639821379
0.0055 0.0065 4.25694308987
0.0055 0.0075 4.19694295343
0.0055 0.0085 4.14492634444
0.0055 0.0095 4.09878300521
0.0055 0.0105 4.05635497543
0.0055 0.0115 4.01576966308
0.0055 0.0125 3.97557395086
0.0055 0.0135 3.93476424938
0.0055 0.0145 3.89276386991
0.0055 0.0155 3.84936004006
0.0055 0.0165 3.80460542069
0.0055 0.0175 3.75870177913
0.0055 0.0185 3.71189297853
0.0055 0.0195 3.66438875996
0.0055 0.0205 3.61632726516
0.0055 0.0215 3.56777263004
0.0055 0.0225 3.51873880521
0.0055 0.0235 3.46923303472
0.0055 0.0245 3.41932115125
0.0055 0.0255 3.3692306578
0.0055 0.0265 3.31951772671
0.0055 0.0275 3.27129987864
0.0055 0.0285 3.22646855121
0.0055 0.0295 3.1877378317
0.0055 0.0305 3.15854664787
0.0055 0.0315 3.14267057788
0.0065 -0.0315 4.19895671962
0.0065 -0.0305 4.21055986708
0.0065 -0.0295 4.23237518892
0.0065 -0.0285 4.26205877162
0.0065 -0.0275 4.29738276659
0.0065 -0.0265 4.33650087869
0.0065 -0.0255 4.37800122372
0.0065 -0.0245 4.42096477662
0.0065 -0.0235 4.46493269216
0.0065 -0.0225 4.50977863961
0.0065 -0.0215 4.55553012183
0.0065 -0.0205 4.60217040673
0.0065 -0.0195 4.64943891118
0.0065 -0.0185 4.69665874238
0.0065 -0.0175 4.74263515734
0.0065 -0.0165 4.78566331938
0.0065 -0.0155 4.8236670178
0.0065 -0.0145 4.85453698226
0.0065 -0.0135 4.87671872913
0.0065 -0.0125 4.88987461576
0.0065 -0.0115 4.89520985718
0.0065 -0.0105 4.89524659218
0.0065 -0.0095 4.89229516542
0.0065 -0.0085 4.88765994627
0.0065 -0.0075 4.88129070732
0.0065 -0.0065 4.8742856113
0.0065 -0.0055 4.86975831135
0.0065 -0.0045 4.86611546868
0.0065 -0.0035 4.8591060345
0.0065 -0.0025 4.84707169619
0.0065 -0.0015 4.82412069496
0.0065 -0.0005 4.78181416293
0.0065 0.0005 4.71645372521
0.0065 0.0015 4.63089773784
0.0065 0.0025 4.53397455507
0.0065 0.0035 4.43581147757
0.0065 0.0045 4.34445978261
0.0065 0.0055 4.26440665818
0.0065 0.0065 4.1967320396
0.0065 0.0075 4.14007363806
0.0065 0.0085 4.09183908001
0.0065 0.0095 4.04919921104
0.0065 0.0105 4.0096318021
0.0065 0.0115 3.97111934277
0.0065 0.0125 3.93219827705
0.0065 0.0135 3.8919562592
0.0065 0.0145 3.84998284003
0.0065 0.0155 3.80626015207
0.0065 0.0165 3.761010204
0.0065 0.0175 3.71454291365
0.0065 0.0185 3.6671430546
0.0065 0.0195 3.61901136939
0.0065 0.0205 3.57025525748
0.0065 0.0215 3.52091458528
0.0065 0.0225 3.47100885588
0.0065 0.0235 3.42060031557
0.0065 0.0245 3.36987851364
0.0065 0.0255 3.31927730828
0.0065 0.0265 3.2696212913
0.0065 0.0275 3.22225732538
0.0065 0.0285 3.17909837798
0.0065 0.0295 3.14256640302
0.0065 0.0305 3.11554078936
0.0065 0.0315 3.10107191421
0.0075 -0.0315 4.16631480929
0.0075 -0.0305 4.1771223345
0.0075 -0.0295 4.19768045872
0.0075 -0.0285 4.22604979167
0.0075 -0.0275 4.26033337685
0.0075 -0.0265 4.29890131277
0.0075 -0.0255 4.34039561281
0.0075 -0.0245 4.38378306388
0.0075 -0.0235 4.42838398297
0.0075 -0.0225 4.47383283263
0.0075 -0.0215 4.51997173165
0.0075 -0.0205 4.56670295451
0.0075 -0.0195 4.61382728289
0.0075 -0.0185 4.66089233538
0.0075 -0.0175 4.70706984603
0.0075 -0.0165 4.75106161093
0.0075 -0.0155 4.79104143495
0.0075 -0.0145 4.82475082398
0.0075 -0.0135 4.84994353347
0.0075 -0.0125 4.86523647387
0.0075 -0.0115 4.87112331756
0.0075 -0.0105 4.87058819249
0.0075 -0.0095 4.8671029872
0.0075 -0.0085 4.86380626522
0.0075 -0.0075 4.86252980388
0.0075 -0.0065 4.86253714819
0.0075 -0.0055 4.8606072454
0.0075 -0.0045 4.855399709
0.0075 -0.0035 4.84685520457
0.0075 -0.0025 4.83267684417
0.0075 -0.0015 4.80613038589
0.0075 -0.0005 4.75635985892
0.0075 0.0005 4.67880075151
0.0075 0.0015 4.57919778631
0.0075 0.0025 4.47019679279
0.0075 0.0035 4.36517017573
0.0075 0.0045 4.2727115146
0.0075 0.0055 4.19584469113
0.0075 0.0065 4.13347462039
0.0075 0.0075 4.08242031886
0.0075 0.0085 4.03905928561
0.0075 0.0095 4.00015438913
0.0075 0.0105 3.96309023682
0.0075 0.0115 3.92590964858
0.0075 0.0125 3.88732835848
0.0075 0.0135 3.84671724915
0.0075 0.0145 3.80399417951
0.0075 0.0155 3.75942619299
0.0075 0.0165 3.71341494443
0.0075 0.0175 3.66633370499
0.0075 0.0185 3.61844300711
0.0075 0.0195 3.56987800531
0.0075 0.0205 3.52068315188
0.0075 0.0215 3.47086884169
0.0075 0.0225 3.4204755663
0.0075 0.0235 3.36964510249
0.0075 0.0245 3.31870555184
0.0075 0.0255 3.26826969556
0.0075 0.0265 3.21932420312
0.0075 0.0275 3.17327103144
0.0075 0.0285 3.13190403064
0.0075 0.0295 3.09735781619
0.0075 0.0305 3.07210789796
0.0075 0.0315 3.05872585881
0.0085 -0.0315 4.13315335874
0.0085 -0.0305 4.14326799166
0.0085 -0.0295 4.16268882788
0.0085 -0.0285 4.18978572215
0.0085 -0.0275 4.22292445759
0.0085 -0.0265 4.26066080161
0.0085 -0.0255 4.30171109437
0.0085 -0.0245 4.34498135236
0.0085 -0.0235 4.38961196021
0.0085 -0.0225 4.43500020245
0.0085 -0.0215 4.4807790685
0.0085 -0.0205 4.52675263097
0.0085 -0.0195 4.57279724304
0.0085 -0.0185 4.6187295811
0.0085 -0.0175 4.66413552376
0.0085 -0.0165 4.70816333759
0.0085 -0.0155 4.74932159123
0.0085 -0.0145 4.78541886739
0.0085 -0.0135 4.81386332686
0.0085 -0.0125 4.83252794054
0.0085 -0.0115 4.84133411999
0.0085 -0.0105 4.8430585547
0.0085 -0.0095 4.8413687135
0.0085 -0.0085 4.84033712099
0.0085 -0.0075 4.8441921697
0.0085 -0.0065 4.85193327095
0.0085 -0.0055 4.85326198416
0.0085 -0.0045 4.84504097484
0.0085 -0.0035 4.83273170171
0.0085 -0.0025 4.81496712692
0.0085 -0.0015 4.78322351691
0.0085 -0.0005 4.72309561692
0.0085 0.0005 4.62921841771
0.0085 0.0015 4.51292941293
0.0085 0.0025 4.39277747292
0.0085 0.0035 4.28483599082
0.0085 0.0045 4.1962459464
0.0085 0.0055 4.12664930507
0.0085 0.0065 4.07199993403
0.0085 0.0075 4.02755265657
0.0085 0.0085 3.98915534843
0.0085 0.0095 3.95347131678
0.0085 0.0105 3.91795317654
0.0085 0.0115 3.88087125063
0.0085 0.0125 3.84135260366
0.0085 0.0135 3.79929149405
0.0085 0.0145 3.75508012724
0.0085 0.0155 3.70929149958
0.0085 0.0165 3.66243933133
0.0085 0.0175 3.61485899958
0.0085 0.0185 3.56669740468
0.0085 0.0195 3.51797052063
0.0085 0.0205 3.46864369714
0.0085 0.0215 3.41870633974
0.0085 0.0225 3.36823571831
0.0085 0.0235 3.31745908136
0.0085 0.0245 3.26682085717
0.0085 0.0255 3.21704642089
0.0085 0.0265 3.16918077879
0.0085 0.0275 3.12458688092
0.0085 0.0285 3.08491372999
0.0085 0.0295 3.05206906571
0.0085 0.0305 3.02824665615
0.0085 0.0315 3.01570149891
0.0095 -0.0315 4.09953742899
0.0095 -0.0305 4.10898336668
0.0095 -0.0295 4.12727551174
0.0095 -0.0285 4.15305131603
0.0095 -0.0275 4.18490881998
0.0095 -0.0265 4.2215756788
0.0095 -0.0255 4.26185131887
0.0095 -0.0245 4.30461092683
0.0095 -0.0235 4.34884838533
0.0095 -0.0225 4.39373611689
0.0095 -0.0215 4.43867758256
0.0095 -0.0205 4.48333088482
0.0095 -0.0195 4.52758714693
0.0095 -0.0185 4.57148306309
0.0095 -0.0175 4.61501847517
0.0095 -0.0165 4.65788081582
0.0095 -0.0155 4.699146183
0.0095 -0.0145 4.73707406422
0.0095 -0.0135 4.76921615955
0.0095 -0.0125 4.7931271369
0.0095 -0.0115 4.80792096371
0.0095 -0.0105 4.81491701029
0.0095 -0.0095 4.81713924352
0.0095 -0.0085 4.81965141152
0.0095 -0.0075 4.83002312037
0.0095 -0.0065 4.84784239157
0.0095 -0.0055 4.85553995398
0.0095 -0.0045 4.84421086058
0.0095 -0.0035 4.82375416124
0.0095 -0.0025 4.79755715846
0.0095 -0.0015 4.75488359778
0.0095 -0.0005 4.67965398635
0.0095 0.0005 4.56731333942
0.0095 0.0015 4.43511931397
0.0095 0.0025 4.30870489195
0.0095 0.0035 4.20422620998
0.0095 0.0045 4.12430979851
0.0095 0.0055 4.06397987986
0.0095 0.0065 4.01713703757
0.0095 0.0075 3.97862757036
0.0095 0.0085 3.94417449001
0.0095 0.0095 3.9103596532
0.0095 0.0105 3.87473441945
0.0095 0.0115 3.8360030336
0.0095 0.0125 3.7940484151
0.0095 0.0135 3.74952692581
0.0095 0.0145 3.70334103181
0.0095 0.0155 3.65625980201
0.0095 0.0165 3.60874446197
0.0095 0.0175 3.56094805018
0.0095 0.0185 3.51281870982
0.0095 0.0195 3.46422857346
0.0095 0.0205 3.41507596598
0.0095 0.0215 3.3653492838
0.0095 0.0225 3.31517002458
0.0095 0.0235 3.26483513498
0.0095 0.0245 3.2148625935
0.0095 0.0255 3.16602755855
0.0095 0.0265 3.11937419246
0.0095 0.0275 3.07620103014
0.0095 0.0285 3.03803415096
0.0095 0.0295 3.00661459015
0.0095 0.0305 2.98393791428
0.0095 0.0315 2.97204348167
0.0105 -0.0315 4.06552632369
0.0105 -0.0305 4.07426503044
0.0105 -0.0295 4.09133388604
0.0105 -0.0285 4.11562883724
0.0105 -0.0275 4.14598017006
0.0105 -0.0265 4.18129892442
0.0105 -0.0255 4.22049498862
0.0105 -0.0245 4.26245317567
0.0105 -0.0235 4.3060608422
0.0105 -0.0225 4.35028192794
0.0105 -0.0215 4.39426161492
0.0105 -0.0205 4.4374299832
0.0105 -0.0195 4.47956527061
0.0105 -0.0185 4.52078433594
0.0105 -0.0175 4.56143037774
0.0105 -0.0165 4.60181793358
0.0105 -0.0155 4.64185794346
0.0105 -0.0145 4.68069150929
0.0105 -0.0135 4.71648610558
0.0105 -0.0125 4.74678648792
0.0105 -0.0115 4.7700356322
0.0105 -0.0105 4.78525448494
0.0105 -0.0095 4.79383185573
0.0105 -0.0085 4.80208251613
0.0105 -0.0075 4.82174468036
0.0105 -0.0065 4.85305757472
0.0105 -0.0055 4.87154255554
0.0105 -0.0045 4.85983055235
0.0105 -0.0035 4.8269906722
0.0105 -0.0025 4.78308604617
0.0105 -0.0015 4.7200870903
0.0105 -0.0005 4.62338667922
0.0105 0.0005 4.49261201982
0.0105 0.0015 4.35089328486
0.0105 0.0025 4.22691070401
0.0105 0.0035 4.13250501232
0.0105 0.0045 4.06395493803
0.0105 0.0055 4.01259537969
0.0105 0.0065 3.97205878536
0.0105 0.0075 3.93767589768
0.0105 0.0085 3.90519732382
0.0105 0.0095 3.87106212226
0.0105 0.0105 3.83294400846
0.0105 0.0115 3.79046289227
0.0105 0.0125 3.7446729896
0.0105 0.0135 3.69707373921
0.0105 0.0145 3.64890495909
0.0105 0.0155 3.60086044355
0.0105 0.0165 3.55310929334
0.0105 0.0175 3.50548381118
0.0105 0.0185 3.45769929232
0.0105 0.0195 3.40951201213
0.0105 0.0205 3.36079198124
0.0105 0.0215 3.31154479219
0.0105 0.0225 3.26192731019
0.0105 0.0235 3.21227712513
0.0105 0.0245 3.16314770971
0.0105 0.0255 3.11533095196
0.0105 0.0265 3.06985631163
0.0105 0.0275 3.02796991346
0.0105 0.0285 2.99110839829
0.0105 0.0295 2.96089094243
0.0105 0.0305 2.93916428086
0.0105 0.0315 2.92780420462
0.0115 -0.0315 4.03118065105
0.0115 -0.0305 4.03912810487
0.0115 -0.0295 4.05479790162
0.0115 -0.0285 4.07735007014
0.0115 -0.0275 4.10586415401
0.0115 -0.0265 4.13946576667
0.0115 -0.0255 4.17722650389
0.0115 -0.0245 4.21810921982
0.0115 -0.0235 4.26096363282
0.0115 -0.0225 4.30458450656
0.0115 -0.0215 4.34783565981
0.0115 -0.0205 4.38981739694
0.0115 -0.0195 4.43002646041
0.0115 -0.0185 4.46845320893
0.0115 -0.0175 4.50559352578
0.0115 -0.0165 4.54234401813
0.0115 -0.0155 4.57964795758
0.0115 -0.0145 4.61789206279
0.0115 -0.0135 4.65632644665
0.0115 -0.0125 4.69285022679
0.0115 -0.0115 4.72534200798
0.0115 -0.0105 4.75089136742
0.0115 -0.0095 4.76876246341
0.0115 -0.0085 4.78594621175
0.0115 -0.0075 4.81778867394
0.0115 -0.0065 4.86382681411
0.0115 -0.0055 4.89454510885
0.0115 -0.0045 4.88566208325
0.0115 -0.0035 4.83992216671
0.0115 -0.0025 4.77040273219
0.0115 -0.0015 4.67851956368
0.0115 -0.0005 4.55731300618
0.0115 0.0005 4.41298412338
0.0115 0.0015 4.27187670715
0.0115 0.0025 4.15831641692
0.0115 0.0035 4.0765093436
0.0115 0.0045 4.01751668425
0.0115 0.0055 3.9723436554
0.0115 0.0065 3.93621485435
0.0115 0.0075 3.90435517439
0.0115 0.0085 3.87156141669
0.0115 0.0095 3.83418517938
0.0115 0.0105 3.79079541779
0.0115 0.0115 3.74266771253
0.0115 0.0125 3.69226165923
0.0115 0.0135 3.64171349289
0.0115 0.0145 3.59217506757
0.0115 0.0155 3.54386820084
0.0115 0.0165 3.49644000703
0.0115 0.0175 3.44935398828
0.0115 0.0185 3.40215482834
0.0115 0.0195 3.35456134297
0.0115 0.0205 3.30645467287
0.0115 0.0215 3.25785410461
0.0115 0.0225 3.20892725905
0.0115 0.0235 3.16002800784
0.0115 0.0245 3.11173294677
0.0115 0.0255 3.06485429692
0.0115 0.0265 3.02042451021
0.0115 0.0275 2.97966294622
0.0115 0.0285 2.94394353681
0.0115 0.0295 2.91478714017
0.0115 0.0305 2.89391204593
0.0115 0.0315 2.88304267755
0.0125 -0.0315 3.99656406755
0.0125 -0.0305 4.00361123564
0.0125 -0.0295 4.01765714399
0.0125 -0.0285 4.0381326695
0.0125 -0.0275 4.06438631127
0.0125 -0.0265 4.09579598923
0.0125 -0.0255 4.13166001317
0.0125 -0.0245 4.17111337242
0.0125 -0.0235 4.21307778927
0.0125 -0.0225 4.25626993829
0.0125 -0.0215 4.29929642638
0.0125 -0.0205 4.34084609231
0.0125 -0.0195 4.3799477528
0.0125 -0.0185 4.41621752026
0.0125 -0.0175 4.45002189674
0.0125 -0.0165 4.48255715715
0.0125 -0.0155 4.51574844218
0.0125 -0.0145 4.55151294616
0.0125 -0.0135 4.59054285144
0.0125 -0.0125 4.6319278497
0.0125 -0.0115 4.67258741525
0.0125 -0.0105 4.70837511093
0.0125 -0.0095 4.73733590233
0.0125 -0.0085 4.76604481589
0.0125 -0.0075 4.80985302876
0.0125 -0.0065 4.86614708624
0.0125 -0.0055 4.90478598532
0.0125 -0.0045 4.89901197017
0.0125 -0.0035 4.84467482725
0.0125 -0.0025 4.75192540381
0.0125 -0.0015 4.63007739161
0.0125 -0.0005 4.48587297463
0.0125 0.0005 4.33591897757
0.0125 0.0015 4.20483564115
0.0125 0.0025 4.10573896736
0.0125 0.0035 4.03472499362
0.0125 0.0045 3.98188658992
0.0125 0.0055 3.94065121237
0.0125 0.0065 3.9072404213
0.0125 0.0075 3.87591523938
0.0125 0.0085 3.83997871702
0.0125 0.0095 3.79623411599
0.0125 0.0105 3.74541064442
0.0125 0.0115 3.69077462156
0.0125 0.0125 3.63615814655
0.0125 0.0135 3.58376146002
0.0125 0.0145 3.5340202958
0.0125 0.0155 3.48630683391
0.0125 0.0165 3.4396772118
0.0125 0.0175 3.39335560193
0.0125 0.0185 3.34687101236
0.0125 0.0195 3.29998138952
0.0125 0.0205 3.25257561071
0.0125 0.0215 3.20465223048
0.0125 0.0225 3.15636665944
0.0125 0.0235 3.1080926503
0.0125 0.0245 3.06045579498
0.0125 0.0255 3.01432438473
0.0125 0.0265 2.97076658809
0.0125 0.0275 2.93099632941
0.0125 0.0285 2.89633263752
0.0125 0.0295 2.86819546097
0.0125 0.0305 2.84816483703
0.0125 0.0315 2.83779367632
0.0135 -0.0315 3.96174182459
0.0135 -0.0305 3.96777845199
0.0135 -0.0295 3.97996441693
0.0135 -0.0285 3.9980007595
0.0135 -0.0275 4.02151708224
0.0135 -0.0265 4.05017338688
0.0135 -0.0255 4.08355495622
0.0135 -0.0245 4.12107008989
0.0135 -0.0235 4.16185409598
0.0135 -0.0225 4.20470389192
0.0135 -0.0215 4.24808922417
0.0135 -0.0205 4.29029530634
0.0135 -0.0195 4.32972621669
0.0135 -0.0185 4.36532846352
0.0135 -0.0175 4.39701058216
0.0135 -0.0165 4.42589942714
0.0135 -0.0155 4.45444176611
0.0135 -0.0145 4.48607994825
0.0135 -0.0135 4.52333417709
0.0135 -0.0125 4.56704636187
0.0135 -0.0115 4.61336903791
0.0135 -0.0105 4.65638619071
0.0135 -0.0095 4.69420178912
0.0135 -0.0085 4.73287879844
0.0135 -0.0075 4.7838308072
0.0135 -0.0065 4.84270259898
0.0135 -0.0055 4.88333620626
0.0135 -0.0045 4.88074950758
0.0135 -0.0035 4.8247789086
0.0135 -0.0025 4.71810498395
0.0135 -0.0015 4.57309518733
0.0135 -0.0005 4.40989060763
0.0135 0.0005 4.25872468281
0.0135 0.0015 4.14208687327
0.0135 0.0025 4.05852205046
0.0135 0.0035 3.9973486223
0.0135 0.0045 3.95061659941
0.0135 0.0055 3.91322015631
0.0135 0.0065 3.88091810286
0.0135 0.0075 3.84756370848
0.0135 0.0085 3.80533204303
0.0135 0.0095 3.7526730843
0.0135 0.0105 3.69379411434
0.0135 0.0115 3.63363860782
0.0135 0.0125 3.57673044249
0.0135 0.0135 3.52440039826
0.0135 0.0145 3.47576970011
0.0135 0.0155 3.42926830829
0.0135 0.0165 3.38362096366
0.0135 0.0175 3.33811265047
0.0135 0.0185 3.29239800248
0.0135 0.0195 3.24625828724
0.0135 0.0205 3.19951917145
0.0135 0.0215 3.15211757214
0.0135 0.0225 3.10421003437
0.0135 0.0235 3.05624352349
0.0135 0.0245 3.00895867839
0.0135 0.0255 2.96333362825
0.0135 0.0265 2.92050010487
0.0135 0.0275 2.88166733462
0.0135 0.0285 2.84807997107
0.0135 0.0295 2.82102622645
0.0135 0.0305 2.80190902447
0.0135 0.0315 2.79207207866
0.0145 -0.0315 3.92678660425
0.0145 -0.0305 3.93171931782
0.0145 -0.0295 3.94183388929
0.0145 -0.0285 3.95708785854
0.0145 -0.0275 3.977390341
0.0145 -0.0265 4.00269481269
0.0145 -0.0255 4.03291071381
0.0145 -0.0245 4.06780087151
0.0145 -0.0235 4.10685702286
0.0145 -0.0225 4.14916314376
0.0145 -0.0215 4.1932878459
0.0145 -0.0205 4.23728513936
0.0145 -0.0195 4.27890925369
0.0145 -0.0185 4.31613900544
0.0145 -0.0175 4.3479691921
0.0145 -0.0165 4.37511120733
0.0145 -0.0155 4.40013219972
0.0145 -0.0145 4.42707462072
0.0145 -0.0135 4.45990836267
0.0145 -0.0125 4.50174894197
0.0145 -0.0115 4.54956595677
0.0145 -0.0105 4.59547229477
0.0145 -0.0095 4.63707918185
0.0145 -0.0085 4.68017701249
0.0145 -0.0075 4.73290294545
0.0145 -0.0065 4.79043538049
0.0145 -0.0055 4.83154739938
0.0145 -0.0045 4.83250895355
0.0145 -0.0035 4.77653578627
0.0145 -0.0025 4.66028872247
0.0145 -0.0015 4.49997337409
0.0145 -0.0005 4.32804218997
0.0145 0.0005 4.18386977213
0.0145 0.0015 4.08302752579
0.0145 0.0025 4.01187511668
0.0145 0.0035 3.95858384141
0.0145 0.0045 3.91756977496
0.0145 0.0055 3.88325819683
0.0145 0.0065 3.8501824987
0.0145 0.0075 3.81210072748
0.0145 0.0085 3.76173749676
0.0145 0.0095 3.70005727915
0.0145 0.0105 3.63479438102
0.0145 0.0115 3.57224334437
0.0145 0.0125 3.51603167222
0.0145 0.0135 3.46567019662
0.0145 0.0145 3.41885536049
0.0145 0.0155 3.37357633102
0.0145 0.0165 3.32878934229
0.0145 0.0175 3.2840925164
0.0145 0.0185 3.2392092011
0.0145 0.0195 3.19378189513
0.0145 0.0205 3.14747895187
0.0145 0.0215 3.10018870324
0.0145 0.0225 3.05215706197
0.0145 0.0235 3.00401700254
0.0145 0.0245 2.95671549941
0.0145 0.0255 2.91138609316
0.0145 0.0265 2.86922320699
0.0145 0.0275 2.83139772751
0.0145 0.0285 2.79903055745
0.0145 0.0295 2.77322489904
0.0145 0.0305 2.75515619724
0.0145 0.0315 2.74592530031
0.0155 -0.0315 3.89178173592
0.0155 -0.0305 3.89554550302
0.0155 -0.0295 3.90342983312
0.0155 -0.0285 3.91562292266
0.0155 -0.0275 3.93229499409
0.0155 -0.0265 3.95368183783
0.0155 -0.0255 3.98002133257
0.0155 -0.0245 4.01146893115
0.0155 -0.0235 4.04797508348
0.0155 -0.0225 4.08911013826
0.0155 -0.0215 4.13384806038
0.0155 -0.0205 4.18036831256
0.0155 -0.0195 4.22600797521
0.0155 -0.0185 4.26762550425
0.0155 -0.0175 4.30274448816
0.0155 -0.0165 4.33105025974
0.0155 -0.0155 4.35507129627
0.0155 -0.0145 4.37899301439
0.0155 -0.0135 4.40695239564
0.0155 -0.0125 4.44283572181
0.0155 -0.0115 4.48572654334
0.0155 -0.0105 4.52962761653
0.0155 -0.0095 4.57122431673
0.0155 -0.0085 4.61452341662
0.0155 -0.0075 4.66583565647
0.0155 -0.0065 4.72070893407
0.0155 -0.0055 4.76046440714
0.0155 -0.0045 4.76015251004
0.0155 -0.0035 4.70086721022
0.0155 -0.0025 4.57991942303
0.0155 -0.0015 4.41757859399
0.0155 -0.0005 4.25186742489
0.0155 0.0005 4.12057104401
0.0155 0.0015 4.03191279716
0.0155 0.0025 3.96828976711
0.0155 0.0035 3.91849552377
0.0155 0.0045 3.87914252319
0.0155 0.0055 3.84513189108
0.0155 0.0065 3.80892972932
0.0155 0.0075 3.76380639156
0.0155 0.0085 3.70580113278
0.0155 0.0095 3.63849475871
0.0155 0.0105 3.57129311029
0.0155 0.0115 3.51066449811
0.0155 0.0125 3.4575519484
0.0155 0.0135 3.40962298279
0.0155 0.0145 3.36411498758
0.0155 0.0155 3.31952548599
0.0155 0.0165 3.27548081071
0.0155 0.0175 3.2317520912
0.0155 0.0185 3.18776644863
0.0155 0.0195 3.14281099935
0.0155 0.0205 3.0963911717
0.0155 0.0215 3.04848089516
0.0155 0.0225 2.99960133332
0.0155 0.0235 2.95072561222
0.0155 0.0245 2.90308513646
0.0155 0.0255 2.85796951266
0.0155 0.0265 2.81658367281
0.0155 0.0275 2.77998633446
0.0155 0.0285 2.74910243029
0.0155 0.0295 2.72479087234
0.0155 0.0305 2.70795870792
0.0155 0.0315 2.69943866042
0.0165 -0.0315 3.85681288123
0.0165 -0.0305 3.85937895647
0.0165 -0.0295 3.86494793921
0.0165 -0.0285 3.87390390066
0.0165 -0.0275 3.88664461753
0.0165 -0.0265 3.90365577834
0.0165 -0.0255 3.92547671429
0.0165 -0.0245 3.9526437765
0.0165 -0.0235 3.98559508407
0.0165 -0.0225 4.02450770492
0.0165 -0.0215 4.06903210687
0.0165 -0.0205 4.11792060599
0.0165 -0.0195 4.16861365939
0.0165 -0.0185 4.21709469672
0.0165 -0.0175 4.25888217639
0.0165 -0.0165 4.29194021544
0.0165 -0.0155 4.31809287122
0.0165 -0.0145 4.34146556238
0.0165 -0.0135 4.36639541195