% Model:              Benchmark260518.mph
% Version:            COMSOL 6.2.0.339
% Date:               May 19 2026, 04:31
% Dimension:          2
% Nodes:              4096
% Expressions:        1
% Description:        压力
% Length unit:        m
% x                       y                        p (Pa)
5.0E-4                    -0.0315                  3.4808288802691605
5.0E-4                    -0.0305                  3.511287575661611
5.0E-4                    -0.0295                  3.5527849427430516
5.0E-4                    -0.0285                  3.597807232050994
5.0E-4                    -0.0275                  3.6447582438463897
5.0E-4                    -0.0265                  3.693067784779111
5.0E-4                    -0.0255                  3.7423578243659223
5.0E-4                    -0.0245                  3.792431064304653
5.0E-4                    -0.0235                  3.8431574203563197
5.0E-4                    -0.0225                  3.894440572453043
5.0E-4                    -0.0215                  3.9461900211981167
5.0E-4                    -0.0205                  3.9983556177511677
5.0E-4                    -0.0195                  4.050951847812574
5.0E-4                    -0.0185                  4.104007053351742
5.0E-4                    -0.0175                  4.157520431064558
5.0E-4                    -0.0165                  4.211431852890812
5.0E-4                    -0.0155                  4.265611907142084
5.0E-4                    -0.0145                  4.319882014698538
5.0E-4                    -0.0135                  4.374006672970279
5.0E-4                    -0.0125                  4.427769755023972
5.0E-4                    -0.0115                  4.481053960554976
5.0E-4                    -0.0105                  4.532784761861769
5.0E-4                    -0.0095                  4.5796706186309
5.0E-4                    -0.0085                  4.617756939709022
5.0E-4                    -0.0075                  4.64315334350359
5.0E-4                    -0.0065                  4.6559458431844805
5.0E-4                    -0.0055                  4.660997345846909
5.0E-4                    -0.0045                  4.661992244087381
5.0E-4                    -0.0035                  4.66061304375122
5.0E-4                    -0.0025                  4.65775207514017
5.0E-4                    -0.0015                  4.654016670452759
5.0E-4                    -5.0E-4                  4.650014842687717
5.0E-4                    5.0E-4                   4.646329763276995
5.0E-4                    0.0015                   4.643447275209607
5.0E-4                    0.0025                   4.641748112621604
5.0E-4                    0.0035                   4.641550476750756
5.0E-4                    0.0045                   4.643280119220491
5.0E-4                    0.0055                   4.647656602033359
5.0E-4                    0.0065                   4.6556688838461815
5.0E-4                    0.0075                   4.6683160801519294
5.0E-4                    0.0085                   4.686055963937562
5.0E-4                    0.0095                   4.70801583444961
5.0E-4                    0.0105                   4.731271622163062
5.0E-4                    0.0115                   4.750633471454012
5.0E-4                    0.0125                   4.760082423496183
5.0E-4                    0.0135                   4.755868336750349
5.0E-4                    0.0145                   4.739631184513643
5.0E-4                    0.0155                   4.717980485908158
5.0E-4                    0.0165                   4.696830524543172
5.0E-4                    0.0175                   4.675923750639547
5.0E-4                    0.0185                   4.656215524319048
5.0E-4                    0.0195                   4.643677167568647
5.0E-4                    0.0205                   4.6387728666245405
5.0E-4                    0.0215                   4.644303229436643
5.0E-4                    0.0225                   4.693154387052226
5.0E-4                    0.0235                   4.80364071484957
5.0E-4                    0.0245                   4.900008055648177
5.0E-4                    0.0255                   4.929833164137581
5.0E-4                    0.0265                   4.934669515471656
5.0E-4                    0.0275                   4.939451884812671
5.0E-4                    0.0285                   4.941897504254752
5.0E-4                    0.0295                   4.9429883627241065
5.0E-4                    0.0305                   4.9435482181292
5.0E-4                    0.0315                   4.943800689057098
0.0015                    -0.0315                  3.4502878912944226
0.0015                    -0.0305                  3.4810673297944668
0.0015                    -0.0295                  3.5259760346859528
0.0015                    -0.0285                  3.575014354452415
0.0015                    -0.0275                  3.6253418698762707
0.0015                    -0.0265                  3.6762771217559123
0.0015                    -0.0255                  3.7276081968111283
0.0015                    -0.0245                  3.779263311490066
0.0015                    -0.0235                  3.831230756699458
0.0015                    -0.0225                  3.8834929655418273
0.0015                    -0.0215                  3.9360139484525387
0.0015                    -0.0205                  3.9887774347847933
0.0015                    -0.0195                  4.041845466739277
0.0015                    -0.0185                  4.095368447203249
0.0015                    -0.0175                  4.149530640723739
0.0015                    -0.0165                  4.20447438280472
0.0015                    -0.0155                  4.260235602242586
0.0015                    -0.0145                  4.316705790662032
0.0015                    -0.0135                  4.373633627112999
0.0015                    -0.0125                  4.430608853834791
0.0015                    -0.0115                  4.486724959888726
0.0015                    -0.0105                  4.539841730269882
0.0015                    -0.0095                  4.5861590285595035
0.0015                    -0.0085                  4.622005976635339
0.0015                    -0.0075                  4.64477167927453
0.0015                    -0.0065                  4.65628694736296
0.0015                    -0.0055                  4.661500853415473
0.0015                    -0.0045                  4.662835608716307
0.0015                    -0.0035                  4.661379576424071
0.0015                    -0.0025                  4.658055203173623
0.0015                    -0.0015                  4.653695114385483
0.0015                    -5.0E-4                  4.649206556341861
0.0015                    5.0E-4                   4.6453063625315405
0.0015                    0.0015                   4.642365327416977
0.0015                    0.0025                   4.640688044635548
0.0015                    0.0035                   4.640445903027992
0.0015                    0.0045                   4.641739314964098
0.0015                    0.0055                   4.645120958037877
0.0015                    0.0065                   4.651558961999517
0.0015                    0.0075                   4.662039878750488
0.0015                    0.0085                   4.677220392106286
0.0015                    0.0095                   4.696608072861344
0.0015                    0.0105                   4.71792848923603
0.0015                    0.0115                   4.7369334987748735
0.0015                    0.0125                   4.747948888295314
0.0015                    0.0135                   4.746260926950182
0.0015                    0.0145                   4.732082948402654
0.0015                    0.0155                   4.7115306306511755
0.0015                    0.0165                   4.6909368672031
0.0015                    0.0175                   4.671373778422735
0.0015                    0.0185                   4.654107546957892
0.0015                    0.0195                   4.643093851850104
0.0015                    0.0205                   4.639323831107658
0.0015                    0.0215                   4.63660538906079
0.0015                    0.0225                   4.694059477186539
0.0015                    0.0235                   4.821726820215653
0.0015                    0.0245                   4.914627710938851
0.0015                    0.0255                   4.939169473298371
0.0015                    0.0265                   4.9399166441018805
0.0015                    0.0275                   4.942187760413143
0.0015                    0.0285                   4.943565437996866
0.0015                    0.0295                   4.944211118841469
0.0015                    0.0305                   4.94430372063099
0.0015                    0.0315                   4.944146396066667
0.0025                    -0.0315                  3.4083562681977937
0.0025                    -0.0305                  3.4367607164349128
0.0025                    -0.0295                  3.4825398815417095
0.0025                    -0.0285                  3.5353836951077433
0.0025                    -0.0275                  3.590214161541967
0.0025                    -0.0265                  3.6452417932318584
0.0025                    -0.0255                  3.699974777165761
0.0025                    -0.0245                  3.7543606021008507
0.0025                    -0.0235                  3.808498325842991
0.0025                    -0.0225                  3.862504719893319
0.0025                    -0.0215                  3.9164439055659526
0.0025                    -0.0205                  3.970348769953873
0.0025                    -0.0195                  4.024327845265976
0.0025                    -0.0185                  4.078676523014258
0.0025                    -0.0175                  4.133870710533664
0.0025                    -0.0165                  4.190424307038476
0.0025                    -0.0155                  4.248695985874237
0.0025                    -0.0145                  4.308715507954918
0.0025                    -0.0135                  4.370033048023135
0.0025                    -0.0125                  4.4314714548506275
0.0025                    -0.0115                  4.490692160512385
0.0025                    -0.0105                  4.544024111300214
0.0025                    -0.0095                  4.587689811441459
0.0025                    -0.0085                  4.619302547550156
0.0025                    -0.0075                  4.6395982605363075
0.0025                    -0.0065                  4.652186605268673
0.0025                    -0.0055                  4.659314621103329
0.0025                    -0.0045                  4.66105789810236
0.0025                    -0.0035                  4.658121612550219
0.0025                    -0.0025                  4.652464785177432
0.0025                    -0.0015                  4.646414458012343
0.0025                    -5.0E-4                  4.64144605145782
0.0025                    5.0E-4                   4.638038456671772
0.0025                    0.0015                   4.636142411687235
0.0025                    0.0025                   4.6353405641830285
0.0025                    0.0035                   4.63525806114928
0.0025                    0.0045                   4.6359255635036805
0.0025                    0.0055                   4.637955960127327
0.0025                    0.0065                   4.642253674098533
0.0025                    0.0075                   4.64962211541236
0.0025                    0.0085                   4.660630388819224
0.0025                    0.0095                   4.675310900412319
0.0025                    0.0105                   4.6928118686038784
0.0025                    0.0115                   4.710618107944778
0.0025                    0.0125                   4.724081684753174
0.0025                    0.0135                   4.72780497946468
0.0025                    0.0145                   4.719533654714742
0.0025                    0.0155                   4.702843685234031
0.0025                    0.0165                   4.683360709861088
0.0025                    0.0175                   4.664793236137703
0.0025                    0.0185                   4.64992354139717
0.0025                    0.0195                   4.641618424023806
0.0025                    0.0205                   4.641660815390638
0.0025                    0.0215                   4.66327832511818
0.0025                    0.0225                   4.7481515458180965
0.0025                    0.0235                   4.865867719735115
0.0025                    0.0245                   4.934598736469824
0.0025                    0.0255                   4.949563297951483
0.0025                    0.0265                   4.947853268879204
0.0025                    0.0275                   4.947433988290679
0.0025                    0.0285                   4.947018254868181
0.0025                    0.0295                   4.946456781260146
0.0025                    0.0305                   4.945467866023044
0.0025                    0.0315                   4.944438331266248
0.0035                    -0.0315                  3.3624893141523584
0.0035                    -0.0305                  3.3880790310391267
0.0035                    -0.0295                  3.4322316064047556
0.0035                    -0.0285                  3.4865005544422534
0.0035                    -0.0275                  3.5448616526475867
0.0035                    -0.0265                  3.604069716505676
0.0035                    -0.0255                  3.6627412610041965
0.0035                    -0.0245                  3.720464315865831
0.0035                    -0.0235                  3.7772915661057302
0.0035                    -0.0225                  3.833462564247684
0.0035                    -0.0215                  3.889211560772174
0.0035                    -0.0205                  3.944675652602431
0.0035                    -0.0195                  3.9999741460248286
0.0035                    -0.0185                  4.0554337104368745
0.0035                    -0.0175                  4.1117592748671346
0.0035                    -0.0165                  4.169909724288411
0.0035                    -0.0155                  4.230710411210933
0.0035                    -0.0145                  4.294399745771919
0.0035                    -0.0135                  4.36016806912917
0.0035                    -0.0125                  4.425697274723088
0.0035                    -0.0115                  4.486999103753272
0.0035                    -0.0105                  4.539128795646052
0.0035                    -0.0095                  4.579064959083553
0.0035                    -0.0085                  4.606873087363263
0.0035                    -0.0075                  4.626260438980868
0.0035                    -0.0065                  4.640858725083297
0.0035                    -0.0055                  4.6494959893972005
0.0035                    -0.0045                  4.65007984072705
0.0035                    -0.0035                  4.644289238167719
0.0035                    -0.0025                  4.636278064833032
0.0035                    -0.0015                  4.629613339694247
0.0035                    -5.0E-4                  4.626127785352967
0.0035                    5.0E-4                   4.625630248482242
0.0035                    0.0015                   4.626824249740882
0.0035                    0.0025                   4.628158138263433
0.0035                    0.0035                   4.628788202485402
0.0035                    0.0045                   4.6290359368372
0.0035                    0.0055                   4.62991060145778
0.0035                    0.0065                   4.632412343407394
0.0035                    0.0075                   4.637152497214005
0.0035                    0.0085                   4.644387989689889
0.0035                    0.0095                   4.654373932296255
0.0035                    0.0105                   4.667391696383853
0.0035                    0.0115                   4.682534662031823
0.0035                    0.0125                   4.697277172216786
0.0035                    0.0135                   4.707687432371932
0.0035                    0.0145                   4.709505262168688
0.0035                    0.0155                   4.701180137237778
0.0035                    0.0165                   4.685575219777177
0.0035                    0.0175                   4.668459832229946
0.0035                    0.0185                   4.655945238425399
0.0035                    0.0195                   4.6547322978081
0.0035                    0.0205                   4.672698416451543
0.0035                    0.0215                   4.728412509975785
0.0035                    0.0225                   4.823403692007254
0.0035                    0.0235                   4.911038775736769
0.0035                    0.0245                   4.95164079846715
0.0035                    0.0255                   4.95744888482781
0.0035                    0.0265                   4.955387845202746
0.0035                    0.0275                   4.953625800593649
0.0035                    0.0285                   4.951734748767491
0.0035                    0.0295                   4.949510118772806
0.0035                    0.0305                   4.946706347057919
0.0035                    0.0315                   4.944274246504328
0.0045                    -0.0315                  3.314364129901898
0.0045                    -0.0305                  3.337689690897441
0.0045                    -0.0295                  3.379603732779505
0.0045                    -0.0285                  3.433540346399985
0.0045                    -0.0275                  3.4938420839110664
0.0045                    -0.0265                  3.5564701979712825
0.0045                    -0.0255                  3.6190033943265103
0.0045                    -0.0245                  3.6802875729771483
0.0045                    -0.0235                  3.740029509968438
0.0045                    -0.0225                  3.798467323504744
0.0045                    -0.0215                  3.856064033620227
0.0045                    -0.0205                  3.9132233706386357
0.0045                    -0.0195                  3.9701615840207
0.0045                    -0.0185                  4.027090135451574
0.0045                    -0.0175                  4.084630779636363
0.0045                    -0.0165                  4.1440184000900455
0.0045                    -0.0155                  4.206633399501726
0.0045                    -0.0145                  4.273105049197987
0.0045                    -0.0135                  4.342410002719799
0.0045                    -0.0125                  4.4111646077584945
0.0045                    -0.0115                  4.47366789731868
0.0045                    -0.0105                  4.52438768499452
0.0045                    -0.0095                  4.561132201601679
0.0045                    -0.0085                  4.586552996039801
0.0045                    -0.0075                  4.605913559068169
0.0045                    -0.0065                  4.621022292506115
0.0045                    -0.0055                  4.628709942529155
0.0045                    -0.0045                  4.627013696959221
0.0045                    -0.0035                  4.619429558666607
0.0045                    -0.0025                  4.611943227689864
0.0045                    -0.0015                  4.608631707258151
0.0045                    -5.0E-4                  4.610182117580271
0.0045                    5.0E-4                   4.61478514625889
0.0045                    0.0015                   4.61983783818121
0.0045                    0.0025                   4.623336476694011
0.0045                    0.0035                   4.624618295182528
0.0045                    0.0045                   4.624494553964878
0.0045                    0.0055                   4.624579405612266
0.0045                    0.0065                   4.626189986021236
0.0045                    0.0075                   4.629816557772575
0.0045                    0.0085                   4.635425258503965
0.0045                    0.0095                   4.643009428896553
0.0045                    0.0105                   4.652903481779142
0.0045                    0.0115                   4.665289268793043
0.0045                    0.0125                   4.680036954403212
0.0045                    0.0135                   4.6956006796795124
0.0045                    0.0145                   4.708428718091408
0.0045                    0.0155                   4.714738371275486
0.0045                    0.0165                   4.713997506091005
0.0045                    0.0175                   4.71079971559435
0.0045                    0.0185                   4.714296166578943
0.0045                    0.0195                   4.735019366088382
0.0045                    0.0205                   4.780228566439756
0.0045                    0.0215                   4.848691294874471
0.0045                    0.0225                   4.913562710907345
0.0045                    0.0235                   4.95088624711816
0.0045                    0.0245                   4.962789043725327
0.0045                    0.0255                   4.962786171243976
0.0045                    0.0265                   4.961559612608175
0.0045                    0.0275                   4.959520418565605
0.0045                    0.0285                   4.956811747354109
0.0045                    0.0295                   4.952787591697749
0.0045                    0.0305                   4.9475121821432815
0.0045                    0.0315                   4.9431565818251135
0.0055                    -0.0315                  3.2645038311025187
0.0055                    -0.0305                  3.2861305368601585
0.0055                    -0.0295                  3.3259733654961523
0.0055                    -0.0285                  3.37888264713624
0.0055                    -0.0275                  3.439963585205877
0.0055                    -0.0265                  3.505095690424209
0.0055                    -0.0255                  3.571139135312636
0.0055                    -0.0245                  3.636053537994518
0.0055                    -0.0235                  3.698860772095772
0.0055                    -0.0225                  3.759513308904762
0.0055                    -0.0215                  3.8186391000305338
0.0055                    -0.0205                  3.877126166187454
0.0055                    -0.0195                  3.9356490118229472
0.0055                    -0.0185                  3.9944498815044307
0.0055                    -0.0175                  4.053702512871752
0.0055                    -0.0165                  4.114252370078566
0.0055                    -0.0155                  4.1777928850967125
0.0055                    -0.0145                  4.24567604397927
0.0055                    -0.0135                  4.317217708133352
0.0055                    -0.0125                  4.388475162389069
0.0055                    -0.0115                  4.452309804732373
0.0055                    -0.0105                  4.502401242672428
0.0055                    -0.0095                  4.537004028281182
0.0055                    -0.0085                  4.560916639609564
0.0055                    -0.0075                  4.57990656910314
0.0055                    -0.0065                  4.59381933670779
0.0055                    -0.0055                  4.599387773118321
0.0055                    -0.0045                  4.596459737718673
0.0055                    -0.0035                  4.590471965098153
0.0055                    -0.0025                  4.587905506599723
0.0055                    -0.0015                  4.591342534614384
0.0055                    -5.0E-4                  4.599062720463857
0.0055                    5.0E-4                   4.607985440574389
0.0055                    0.0015                   4.615502300043556
0.0055                    0.0025                   4.619904423708318
0.0055                    0.0035                   4.621062885854435
0.0055                    0.0045                   4.620568375408718
0.0055                    0.0055                   4.620592710500905
0.0055                    0.0065                   4.622521553995592
0.0055                    0.0075                   4.626587835824907
0.0055                    0.0085                   4.632474741761097
0.0055                    0.0095                   4.640012989659018
0.0055                    0.0105                   4.649448854208734
0.0055                    0.0115                   4.661376480849717
0.0055                    0.0125                   4.676709103068149
0.0055                    0.0135                   4.695631385902559
0.0055                    0.0145                   4.717255913944062
0.0055                    0.0155                   4.74056287018681
0.0055                    0.0165                   4.765961221391242
0.0055                    0.0175                   4.79660100356115
0.0055                    0.0185                   4.8384309141904795
0.0055                    0.0195                   4.8938118770482
0.0055                    0.0205                   4.951841396428458
0.0055                    0.0215                   4.990519757585542
0.0055                    0.0225                   4.994473193262136
0.0055                    0.0235                   4.979688508705604
0.0055                    0.0245                   4.96983342462582
0.0055                    0.0255                   4.9676933962712875
0.0055                    0.0265                   4.967274206091717
0.0055                    0.0275                   4.96517880822127
0.0055                    0.0285                   4.961573458715092
0.0055                    0.0295                   4.955379201351576
0.0055                    0.0305                   4.94710690503123
0.0055                    0.0315                   4.940425508682286
0.0065                    -0.0315                  3.2132302380859668
0.0065                    -0.0305                  3.233498355006448
0.0065                    -0.0295                  3.2715222711390837
0.0065                    -0.0285                  3.3232062770905992
0.0065                    -0.0275                  3.3844395473019215
0.0065                    -0.0265                  3.4513919154262362
0.0065                    -0.0255                  3.520612768988823
0.0065                    -0.0245                  3.5892823271706176
0.0065                    -0.0235                  3.655489409335555
0.0065                    -0.0225                  3.7184691291528518
0.0065                    -0.0215                  3.778689371292523
0.0065                    -0.0205                  3.8375752368069502
0.0065                    -0.0195                  3.8968110156412097
0.0065                    -0.0185                  3.957414088305615
0.0065                    -0.0175                  4.019320956038552
0.0065                    -0.0165                  4.08217122271312
0.0065                    -0.0155                  4.146669008347915
0.0065                    -0.0145                  4.214831257196115
0.0065                    -0.0135                  4.287580273109669
0.0065                    -0.0125                  4.361127659501962
0.0065                    -0.0115                  4.426810529272331
0.0065                    -0.0105                  4.476709495564995
0.0065                    -0.0095                  4.510096996839711
0.0065                    -0.0085                  4.533161036102146
0.0065                    -0.0075                  4.551116410766766
0.0065                    -0.0065                  4.563483859298657
0.0065                    -0.0055                  4.567882142341453
0.0065                    -0.0045                  4.566306611237398
0.0065                    -0.0035                  4.565396204126572
0.0065                    -0.0025                  4.569761194846913
0.0065                    -0.0015                  4.5790192036737976
0.0065                    -5.0E-4                  4.590390048120323
0.0065                    5.0E-4                   4.601050279919633
0.0065                    0.0015                   4.608779965071573
0.0065                    0.0025                   4.612221769337742
0.0065                    0.0035                   4.6120372107007235
0.0065                    0.0045                   4.611085969011292
0.0065                    0.0055                   4.612151151646181
0.0065                    0.0065                   4.61604655323726
0.0065                    0.0075                   4.622144010998803
0.0065                    0.0085                   4.629851487074615
0.0065                    0.0095                   4.639147717788038
0.0065                    0.0105                   4.650419446295077
0.0065                    0.0115                   4.6643920480651
0.0065                    0.0125                   4.681978092001859
0.0065                    0.0135                   4.70386705469748