% Model:              Benchmark260518.mph
% Version:            COMSOL 6.2.0.339
% Date:               May 19 2026, 20:17
% Dimension:          2
% Nodes:              4096
% Expressions:        1
% Description:        压力
% Length unit:        m
% x                       y                        p (Pa)
5.0E-4                    -0.0315                  3.8684965986671624
5.0E-4                    -0.0305                  3.890489846114799
5.0E-4                    -0.0295                  3.9204714122175703
5.0E-4                    -0.0285                  3.953175393375662
5.0E-4                    -0.0275                  3.9872894795559546
5.0E-4                    -0.0265                  4.022320604500533
5.0E-4                    -0.0255                  4.057991140907953
5.0E-4                    -0.0245                  4.094113352354065
5.0E-4                    -0.0235                  4.130583335053931
5.0E-4                    -0.0225                  4.16731861332112
5.0E-4                    -0.0215                  4.204223481534321
5.0E-4                    -0.0205                  4.241247769060993
5.0E-4                    -0.0195                  4.2783641554695695
5.0E-4                    -0.0185                  4.315521440791773
5.0E-4                    -0.0175                  4.352663796920149
5.0E-4                    -0.0165                  4.389719912408288
5.0E-4                    -0.0155                  4.426561102149262
5.0E-4                    -0.0145                  4.462930029982562
5.0E-4                    -0.0135                  4.498629567422343
5.0E-4                    -0.0125                  4.533463992716003
5.0E-4                    -0.0115                  4.566397969122523
5.0E-4                    -0.0105                  4.595532754418684
5.0E-4                    -0.0095                  4.618803612722774
5.0E-4                    -0.0085                  4.6344388047214515
5.0E-4                    -0.0075                  4.641860740921404
5.0E-4                    -0.0065                  4.642841030170168
5.0E-4                    -0.0055                  4.640675160694948
5.0E-4                    -0.0045                  4.63731220430448
5.0E-4                    -0.0035                  4.6329082726387085
5.0E-4                    -0.0025                  4.627318755095146
5.0E-4                    -0.0015                  4.620764515836905
5.0E-4                    -5.0E-4                  4.635280251427999
5.0E-4                    5.0E-4                   4.713242360842393
5.0E-4                    0.0015                   4.827720564572503
5.0E-4                    0.0025                   4.913312854329407
5.0E-4                    0.0035                   4.96235131088692
5.0E-4                    0.0045                   4.99161039643535
5.0E-4                    0.0055                   5.009868131889665
5.0E-4                    0.0065                   5.017986282195434
5.0E-4                    0.0075                   5.013125577891511
5.0E-4                    0.0085                   4.9975067469723555
5.0E-4                    0.0095                   4.976920368891104
5.0E-4                    0.0105                   4.950236419514411
5.0E-4                    0.0115                   4.920995517916141
5.0E-4                    0.0125                   4.899139977765387
5.0E-4                    0.0135                   4.887265530961299
5.0E-4                    0.0145                   4.880187469996695
5.0E-4                    0.0155                   4.86139306281838
5.0E-4                    0.0165                   4.822102528313296
5.0E-4                    0.0175                   4.779757006730863
5.0E-4                    0.0185                   4.738173953111262
5.0E-4                    0.0195                   4.69020437852049
5.0E-4                    0.0205                   4.639349844107983
5.0E-4                    0.0215                   4.587549723742218
5.0E-4                    0.0225                   4.537428651023555
5.0E-4                    0.0235                   4.489583141164331
5.0E-4                    0.0245                   4.443381718021869
5.0E-4                    0.0255                   4.3983635269627746
5.0E-4                    0.0265                   4.354365342204937
5.0E-4                    0.0275                   4.31139497148825
5.0E-4                    0.0285                   4.26973423566443
5.0E-4                    0.0295                   4.229869525601217
5.0E-4                    0.0305                   4.193180994710367
5.0E-4                    0.0315                   4.166223227966997
0.0015                    -0.0315                  3.8463913323583876
0.0015                    -0.0305                  3.868567680966137
0.0015                    -0.0295                  3.9008908273967022
0.0015                    -0.0285                  3.9364040371033484
0.0015                    -0.0275                  3.9730911843266945
0.0015                    -0.0265                  4.010362645271549
0.0015                    -0.0255                  4.047985279520459
0.0015                    -0.0245                  4.085829548404135
0.0015                    -0.0235                  4.123806635736098
0.0015                    -0.0225                  4.161853117971631
0.0015                    -0.0215                  4.199919840221677
0.0015                    -0.0205                  4.237982255668594
0.0015                    -0.0195                  4.276049800186675
0.0015                    -0.0185                  4.314161054592475
0.0015                    -0.0175                  4.352380508059028
0.0015                    -0.0165                  4.390786787325751
0.0015                    -0.0155                  4.429421109535724
0.0015                    -0.0145                  4.468244516643417
0.0015                    -0.0135                  4.50703356140871
0.0015                    -0.0125                  4.544967097373583
0.0015                    -0.0115                  4.580231492385181
0.0015                    -0.0105                  4.610224195007367
0.0015                    -0.0095                  4.6323146386635745
0.0015                    -0.0085                  4.644983302350623
0.0015                    -0.0075                  4.648952209722285
0.0015                    -0.0065                  4.64720815220674
0.0015                    -0.0055                  4.643132866037191
0.0015                    -0.0045                  4.638154460797923
0.0015                    -0.0035                  4.632855189584149
0.0015                    -0.0025                  4.628312750766705
0.0015                    -0.0015                  4.626369792364879
0.0015                    -5.0E-4                  4.633572119501663
0.0015                    5.0E-4                   4.705702863627024
0.0015                    0.0015                   4.8181362695437
0.0015                    0.0025                   4.891372967230858
0.0015                    0.0035                   4.9305091202062385
0.0015                    0.0045                   4.952581912569283
0.0015                    0.0055                   4.967653105874185
0.0015                    0.0065                   4.976963913089592
0.0015                    0.0075                   4.975051930880615
0.0015                    0.0085                   4.955765166915699
0.0015                    0.0095                   4.921331519325183
0.0015                    0.0105                   4.882899248857782
0.0015                    0.0115                   4.853330259972191
0.0015                    0.0125                   4.834615076266353
0.0015                    0.0135                   4.8223922013411356
0.0015                    0.0145                   4.815392160177614
0.0015                    0.0155                   4.804766593647994
0.0015                    0.0165                   4.785743931101168
0.0015                    0.0175                   4.756940707152394
0.0015                    0.0185                   4.715780410557348
0.0015                    0.0195                   4.668017222582574
0.0015                    0.0205                   4.617698646054253
0.0015                    0.0215                   4.567084534108113
0.0015                    0.0225                   4.518423511333328
0.0015                    0.0235                   4.471771797465525
0.0015                    0.0245                   4.426328017501283
0.0015                    0.0255                   4.381437724258536
0.0015                    0.0265                   4.336792485354905
0.0015                    0.0275                   4.292386194726472
0.0015                    0.0285                   4.248425210254318
0.0015                    0.0295                   4.205530947087764
0.0015                    0.0305                   4.166182395630159
0.0015                    0.0315                   4.139148000332799
0.0025                    -0.0315                  3.81590839632662
0.0025                    -0.0305                  3.836368489799845
0.0025                    -0.0295                  3.869217899674354
0.0025                    -0.0285                  3.907422668161086
0.0025                    -0.0275                  3.9475387856686943
0.0025                    -0.0265                  3.988289552111747
0.0025                    -0.0255                  4.029212772971194
0.0025                    -0.0245                  4.070105524252735
0.0025                    -0.0235                  4.110852214015664
0.0025                    -0.0225                  4.151380633409205
0.0025                    -0.0215                  4.191659546467694
0.0025                    -0.0205                  4.231700482675333
0.0025                    -0.0195                  4.271572939277387
0.0025                    -0.0185                  4.311423272725457
0.0025                    -0.0175                  4.35147754575851
0.0025                    -0.0165                  4.392021450099353
0.0025                    -0.0155                  4.433343838844282
0.0025                    -0.0145                  4.475567162707972
0.0025                    -0.0135                  4.518242898153872
0.0025                    -0.0125                  4.559815890655757
0.0025                    -0.0115                  4.597358593516494
0.0025                    -0.0105                  4.627308753492347
0.0025                    -0.0095                  4.646901646173856
0.0025                    -0.0085                  4.65604645224998
0.0025                    -0.0075                  4.657449677468359
0.0025                    -0.0065                  4.65414628460123
0.0025                    -0.0055                  4.648174627880558
0.0025                    -0.0045                  4.641257011813725
0.0025                    -0.0035                  4.6354155364349126
0.0025                    -0.0025                  4.633523678301659
0.0025                    -0.0015                  4.640490357337367
0.0025                    -5.0E-4                  4.675688434684057
0.0025                    5.0E-4                   4.749291881988611
0.0025                    0.0015                   4.8271123629100785
0.0025                    0.0025                   4.878676286366552
0.0025                    0.0035                   4.907456422618148
0.0025                    0.0045                   4.924871513340046
0.0025                    0.0055                   4.937700250223235
0.0025                    0.0065                   4.944497641090786
0.0025                    0.0075                   4.93815237456284
0.0025                    0.0085                   4.912559748568182
0.0025                    0.0095                   4.872499734933515
0.0025                    0.0105                   4.832418487183758
0.0025                    0.0115                   4.802950566615331
0.0025                    0.0125                   4.783068968467897
0.0025                    0.0135                   4.768035318133895
0.0025                    0.0145                   4.756721783292868
0.0025                    0.0155                   4.746383394919912
0.0025                    0.0165                   4.7307042038922145
0.0025                    0.0175                   4.703931957965514
0.0025                    0.0185                   4.665463567966157
0.0025                    0.0195                   4.62059307844503
0.0025                    0.0205                   4.5739518824752325
0.0025                    0.0215                   4.527585255129582
0.0025                    0.0225                   4.482645171027527
0.0025                    0.0235                   4.438643148148385
0.0025                    0.0245                   4.394644649346299
0.0025                    0.0255                   4.349983563456369
0.0025                    0.0265                   4.304401263730241
0.0025                    0.0275                   4.258005274851739
0.0025                    0.0285                   4.211345742989453
0.0025                    0.0295                   4.166065328179214
0.0025                    0.0305                   4.126630823675459
0.0025                    0.0315                   4.102080153391504
0.0035                    -0.0315                  3.7821312796357858
0.0035                    -0.0305                  3.8006519928953018
0.0035                    -0.0295                  3.8323093475099292
0.0035                    -0.0285                  3.871554545208364
0.0035                    -0.0275                  3.914451221953156
0.0035                    -0.0265                  3.9588199237711237
0.0035                    -0.0255                  4.003630575688352
0.0035                    -0.0245                  4.0483829142814445
0.0035                    -0.0235                  4.092800983320908
0.0035                    -0.0225                  4.1367246964110524
0.0035                    -0.0215                  4.180080487987534
0.0035                    -0.0205                  4.222880054014449
0.0035                    -0.0195                  4.265230628628494
0.0035                    -0.0185                  4.307351622944361
0.0035                    -0.0175                  4.349581955792428
0.0035                    -0.0165                  4.392354914606247
0.0035                    -0.0155                  4.436094322676252
0.0035                    -0.0145                  4.480948675965866
0.0035                    -0.0135                  4.526307387813755
0.0035                    -0.0125                  4.570141615600857
0.0035                    -0.0115                  4.608708555029562
0.0035                    -0.0105                  4.638058424695287
0.0035                    -0.0095                  4.655926941278022
0.0035                    -0.0085                  4.663772564090678
0.0035                    -0.0075                  4.665215979174331
0.0035                    -0.0065                  4.662159145449765
0.0035                    -0.0055                  4.655683664594605
0.0035                    -0.0045                  4.648198102705168
0.0035                    -0.0035                  4.64351175095745
0.0035                    -0.0025                  4.646816149605722
0.0035                    -0.0015                  4.667632975568045
0.0035                    -5.0E-4                  4.714220525991884
0.0035                    5.0E-4                   4.776655550363544
0.0035                    0.0015                   4.830928195435661
0.0035                    0.0025                   4.865838368490248
0.0035                    0.0035                   4.88688929581147
0.0035                    0.0045                   4.901584723172801
0.0035                    0.0055                   4.912601567249987
0.0035                    0.0065                   4.915880709124544
0.0035                    0.0075                   4.903212279921819
0.0035                    0.0085                   4.8711869172165265
0.0035                    0.0095                   4.827774958323659
0.0035                    0.0105                   4.78585514947801
0.0035                    0.0115                   4.75310238608518
0.0035                    0.0125                   4.729554629091124
0.0035                    0.0135                   4.711642222897632
0.0035                    0.0145                   4.695120191783103
0.0035                    0.0155                   4.676429233792273
0.0035                    0.0165                   4.654899935629171
0.0035                    0.0175                   4.62736166857753
0.0035                    0.0185                   4.591217028097806
0.0035                    0.0195                   4.551492128444967
0.0035                    0.0205                   4.512194001417486
0.0035                    0.0215                   4.473407471678593
0.0035                    0.0225                   4.434430565430284
0.0035                    0.0235                   4.3942426975351845
0.0035                    0.0245                   4.352150471933827
0.0035                    0.0255                   4.307853396495021
0.0035                    0.0265                   4.261458222265075
0.0035                    0.0275                   4.213550865194418
0.0035                    0.0285                   4.165522322243293
0.0035                    0.0295                   4.120306064075286
0.0035                    0.0305                   4.083197234766921
0.0035                    0.0315                   4.061571033259868
0.0045                    -0.0315                  3.7463971755057375
0.0045                    -0.0305                  3.763357751948564
0.0045                    -0.0295                  3.7934512485037
0.0045                    -0.0285                  3.832503807733197
0.0045                    -0.0275                  3.8770142553071993
0.0045                    -0.0265                  3.9244102162072236
0.0045                    -0.0255                  3.9730647807365598
0.0045                    -0.0245                  4.022011754250796
0.0045                    -0.0235                  4.0706586159737705
0.0045                    -0.0225                  4.1186358848893585
0.0045                    -0.0215                  4.165740031588285
0.0045                    -0.0205                  4.211913618996099
0.0045                    -0.0195                  4.257237580203497
0.0045                    -0.0185                  4.301929389069596
0.0045                    -0.0175                  4.346335450708917
0.0045                    -0.0165                  4.390885556208156
0.0045                    -0.0155                  4.435962143660129
0.0045                    -0.0145                  4.4816460019723126
0.0045                    -0.0135                  4.527306237326844
0.0045                    -0.0125                  4.571017023888789
0.0045                    -0.0115                  4.6093089546542405
0.0045                    -0.0105                  4.639032589254754
0.0045                    -0.0095                  4.658181561365092
0.0045                    -0.0085                  4.668138613775299
0.0045                    -0.0075                  4.672185490427374
0.0045                    -0.0065                  4.670814931963393
0.0045                    -0.0055                  4.664737033704586
0.0045                    -0.0045                  4.657344747078547
0.0045                    -0.0035                  4.65498656350314
0.0045                    -0.0025                  4.665474291211193
0.0045                    -0.0015                  4.694698407943539
0.0045                    -5.0E-4                  4.739726459716237
0.0045                    5.0E-4                   4.787274518820638
0.0045                    0.0015                   4.82440946012558
0.0045                    0.0025                   4.849274084184273
0.0045                    0.0035                   4.867066718740102
0.0045                    0.0045                   4.88082973067955
0.0045                    0.0055                   4.889682673670978
0.0045                    0.0065                   4.887748395384463
0.0045                    0.0075                   4.8679114894550635
0.0045                    0.0085                   4.830072328986777
0.0045                    0.0095                   4.782943809608
0.0045                    0.0105                   4.737612839478791
0.0045                    0.0115                   4.700479090173636
0.0045                    0.0125                   4.673026999795846
0.0045                    0.0135                   4.652069741856
0.0045                    0.0145                   4.630591785379974
0.0045                    0.0155                   4.603525672259019
0.0045                    0.0165                   4.573259308432207
0.0045                    0.0175                   4.541301901129097
0.0045                    0.0185                   4.5063041245043545
0.0045                    0.0195                   4.472188087223675
0.0045                    0.0205                   4.441215937517335
0.0045                    0.0215                   4.410884673082661
0.0045                    0.0225                   4.3783693797926935
0.0045                    0.0235                   4.342290114209568
0.0045                    0.0245                   4.302251870963239
0.0045                    0.0255                   4.258519392154208
0.0045                    0.0265                   4.211836411725992
0.0045                    0.0275                   4.163541812672375
0.0045                    0.0285                   4.115907770946757
0.0045                    0.0295                   4.072514045871492
0.0045                    0.0305                   4.038322280804114
0.0045                    0.0315                   4.019101782986637
0.0055                    -0.0315                  3.709299725916949
0.0055                    -0.0305                  3.7250876443503014
0.0055                    -0.0295                  3.753777917551069
0.0055                    -0.0285                  3.792167240747167
0.0055                    -0.0275                  3.8373825392181287
0.0055                    -0.0265                  3.8869703784801395
0.0055                    -0.0255                  3.93900646524676
0.0055                    -0.0245                  3.9920858267521044
0.0055                    -0.0235                  4.045205759119778
0.0055                    -0.0225                  4.097662894080836
0.0055                    -0.0215                  4.1490057570087995
0.0055                    -0.0205                  4.199008994425563
0.0055                    -0.0195                  4.247639769590567
0.0055                    -0.0185                  4.295015843035718
0.0055                    -0.0175                  4.341362018618536
0.0055                    -0.0165                  4.386945207974091
0.0055                    -0.0155                  4.431962104643016
0.0055                    -0.0145                  4.476366696220165
0.0055                    -0.0135                  4.519643753840962
0.0055                    -0.0125                  4.560604746985353
0.0055                    -0.0115                  4.597382508829285
0.0055                    -0.0105                  4.628498361962519
0.0055                    -0.0095                  4.651919678222409
0.0055                    -0.0085                  4.667610624784551
0.0055                    -0.0075                  4.676326931025532
0.0055                    -0.0065                  4.676286327489927
0.0055                    -0.0055                  4.668740510833452
0.0055                    -0.0045                  4.660563460648801
0.0055                    -0.0035                  4.660715836880186
0.0055                    -0.0025                  4.67569484785462
0.0055                    -0.0015                  4.705881163621822
0.0055                    -5.0E-4                  4.744412400530496
0.0055                    5.0E-4                   4.780872679781445
0.0055                    0.0015                   4.808990118565241
0.0055                    0.0025                   4.830197208254599
0.0055                    0.0035                   4.847476425359577
0.0055                    0.0045                   4.860650016476114
0.0055                    0.0055                   4.86600200821595
0.0055                    0.0065                   4.857082744261137
0.0055                    0.0075                   4.829706757744745
0.0055                    0.0085                   4.786433658748178
0.0055                    0.0095                   4.735554189117882
0.0055                    0.0105                   4.686948202262758
0.0055                    0.0115                   4.6465440478272075
0.0055                    0.0125                   4.61542245230301
0.0055                    0.0135                   4.589905313319857
0.0055                    0.0145                   4.56375563797834
0.0055                    0.0155                   4.531609010972627
0.0055                    0.0165                   4.495273089990119
0.0055                    0.0175                   4.460280034328363
0.0055                    0.0185                   4.426985791109319
0.0055                    0.0195                   4.3968498503735844
0.0055                    0.0205                   4.370944413165249
0.0055                    0.0215                   4.346171881124713
0.0055                    0.0225                   4.318594399710943
0.0055                    0.0235                   4.285851270030119
0.0055                    0.0245                   4.247644764483976
0.0055                    0.0255                   4.20472295066269
0.0055                    0.0265                   4.158512428964308
0.0055                    0.0275                   4.111032869775611
0.0055                    0.0285                   4.065036465802732
0.0055                    0.0295                   4.0241030517479475
0.0055                    0.0305                   3.992584070268666
0.0055                    0.0315                   3.9751986626535536
0.0065                    -0.0315                  3.6711757915778525
0.0065                    -0.0305                  3.686113058097005
0.0065                    -0.0295                  3.7136887938368357
0.0065                    -0.0285                  3.751353870592699
0.0065                    -0.0275                  3.796774409685974
0.0065                    -0.0265                  3.8478168979272027
0.0065                    -0.0255                  3.902578332449383
0.0065                    -0.0245                  3.959420363961014
0.0065                    -0.0235                  4.016970320263374
0.0065                    -0.0225                  4.074115991483817
0.0065                    -0.0215                  4.1300277006925405
0.0065                    -0.0205                  4.184177765021844
0.0065                    -0.0195                  4.236309623505548
0.0065                    -0.0185                  4.286348238810317
0.0065                    -0.0175                  4.334293162840339
0.0065                    -0.0165                  4.3801406558960005
0.0065                    -0.0155                  4.423826536043001
0.0065                    -0.0145                  4.465192033330642
0.0065                    -0.0135                  4.504017116263334
0.0065                    -0.0125                  4.540169412520793
0.0065                    -0.0115                  4.573921181917848
0.0065                    -0.0105                  4.60552142310384
0.0065                    -0.0095                  4.63405459454826
0.0065                    -0.0085                  4.657092876188995
0.0065                    -0.0075                  4.669567413894996
0.0065                    -0.0065                  4.667833433907603
0.0065                    -0.0055                  4.656997319656649
0.0065                    -0.0045                  4.648061415861839
0.0065                    -0.0035                  4.650665248305441
0.0065                    -0.0025                  4.66878200179862
0.0065                    -0.0015                  4.698610959696945
0.0065                    -5.0E-4                  4.73217225716877
0.0065                    5.0E-4                   4.763092743434587
0.0065                    0.0015                   4.789018115170792
0.0065                    0.0025                   4.810360554373362
0.0065                    0.0035                   4.827420672614442
0.0065                    0.0045                   4.838181867863845
0.0065                    0.0055                   4.837591892970314
0.0065                    0.0065                   4.8205847882337345
0.0065                    0.0075                   4.78620303606141
0.0065                    0.0085                   4.738442964625382
0.0065                    0.0095                   4.68478152098392
0.0065                    0.0105                   4.633741190224991
0.0065                    0.0115                   4.590723314844359
0.0065                    0.0125                   4.555585267576517
0.0065                    0.0135                   4.524918002252063