% Model:              Benchmark260518.mph
% Version:            COMSOL 6.2.0.339
% Date:               May 21 2026, 15:38
% Dimension:          2
% Nodes:              4096
% Expressions:        1
% Description:        压力
% Length unit:        m
% x                       y                        p (Pa)
% mirrored_by_python_y_to_minus_y, coord_match_decimals=12
0.0005 -0.0315 4.95582308555
0.0005 -0.0305 4.96742902764
0.0005 -0.0295 4.9760503536
0.0005 -0.0285 4.98197628571
0.0005 -0.0275 4.98807156766
0.0005 -0.0265 4.99375230401
0.0005 -0.0255 4.99906279712
0.0005 -0.0245 5.00505557052
0.0005 -0.0235 5.01043352367
0.0005 -0.0225 5.0117114527
0.0005 -0.0215 5.00702849143
0.0005 -0.0205 4.9948257206
0.0005 -0.0195 4.96989041869
0.0005 -0.0185 4.92260048597
0.0005 -0.0175 4.84272320046
0.0005 -0.0165 4.74822155526
0.0005 -0.0155 4.69178953698
0.0005 -0.0145 4.68294486291
0.0005 -0.0135 4.68724648007
0.0005 -0.0125 4.69182345826
0.0005 -0.0115 4.69960613678
0.0005 -0.0105 4.71314223369
0.0005 -0.0095 4.73132799882
0.0005 -0.0085 4.74911612455
0.0005 -0.0075 4.76094197116
0.0005 -0.0065 4.76448397755
0.0005 -0.0055 4.76183278825
0.0005 -0.0045 4.75752551006
0.0005 -0.0035 4.75484456046
0.0005 -0.0025 4.75389391632
0.0005 -0.0015 4.75202843261
0.0005 -0.0005 4.74531747569
0.0005 0.0005 4.72990241151
0.0005 0.0015 4.70140262916
0.0005 0.0025 4.65614122282
0.0005 0.0035 4.59828452023
0.0005 0.0045 4.53586302179
0.0005 0.0055 4.47439802726
0.0005 0.0065 4.41760494395
0.0005 0.0075 4.3660396491
0.0005 0.0085 4.31877665318
0.0005 0.0095 4.27486971477
0.0005 0.0105 4.23354320164
0.0005 0.0115 4.19415760496
0.0005 0.0125 4.15623120207
0.0005 0.0135 4.11939799065
0.0005 0.0145 4.08339463751
0.0005 0.0155 4.04806817229
0.0005 0.0165 4.01334741137
0.0005 0.0175 3.97920536341
0.0005 0.0185 3.94563917685
0.0005 0.0195 3.91265159184
0.0005 0.0205 3.88023595424
0.0005 0.0215 3.84837370257
0.0005 0.0225 3.81704149474
0.0005 0.0235 3.78622235369
0.0005 0.0245 3.75591168976
0.0005 0.0255 3.72612759345
0.0005 0.0265 3.69692535622
0.0005 0.0275 3.66840779201
0.0005 0.0285 3.64078004713
0.0005 0.0295 3.61437212057
0.0005 0.0305 3.59011208117
0.0005 0.0315 3.5722888714
0.0015 -0.0315 4.89024154334
0.0015 -0.0305 4.89995315654
0.0015 -0.0295 4.91785287342
0.0015 -0.0285 4.93668199356
0.0015 -0.0275 4.95449537801
0.0015 -0.0265 4.97070745372
0.0015 -0.0255 4.9837611001
0.0015 -0.0245 4.99183114601
0.0015 -0.0235 4.99394617043
0.0015 -0.0225 4.99121869542
0.0015 -0.0215 4.98531558714
0.0015 -0.0205 4.97535578787
0.0015 -0.0195 4.95593282739
0.0015 -0.0185 4.91570159652
0.0015 -0.0175 4.84371854537
0.0015 -0.0165 4.74602745665
0.0015 -0.0155 4.68984650938
0.0015 -0.0145 4.68643242436
0.0015 -0.0135 4.68718734949
0.0015 -0.0125 4.68964248863
0.0015 -0.0115 4.69570026433
0.0015 -0.0105 4.70833727316
0.0015 -0.0095 4.72623987989
0.0015 -0.0085 4.74345872949
0.0015 -0.0075 4.75401499465
0.0015 -0.0065 4.75620600687
0.0015 -0.0055 4.7531132675
0.0015 -0.0045 4.74981033679
0.0015 -0.0035 4.74938697868
0.0015 -0.0025 4.75115755007
0.0015 -0.0015 4.75103412472
0.0015 -0.0005 4.74363693448
0.0015 0.0005 4.72475116656
0.0015 0.0015 4.69051089735
0.0015 0.0025 4.63680974376
0.0015 0.0035 4.56979313989
0.0015 0.0045 4.50137978114
0.0015 0.0055 4.43814561408
0.0015 0.0065 4.38275636079
0.0015 0.0075 4.33427590019
0.0015 0.0085 4.2908104789
0.0015 0.0095 4.250700704
0.0015 0.0105 4.2127519096
0.0015 0.0115 4.17616456043
0.0015 0.0125 4.14040455762
0.0015 0.0135 4.10514243514
0.0015 0.0145 4.07022564053
0.0015 0.0155 4.03564157237
0.0015 0.0165 4.00145919586
0.0015 0.0175 3.9677651723
0.0015 0.0185 3.93461820922
0.0015 0.0195 3.90202983571
0.0015 0.0205 3.86996749307
0.0015 0.0215 3.83837051123
0.0015 0.0225 3.80717019483
0.0015 0.0235 3.77630550793
0.0015 0.0245 3.74573324929
0.0015 0.0255 3.71543483811
0.0015 0.0265 3.68542026724
0.0015 0.0275 3.65574154731
0.0015 0.0285 3.62652239035
0.0015 0.0295 3.59814116206
0.0015 0.0305 3.57218380455
0.0015 0.0315 3.55434598266
0.0025 -0.0315 4.82889678661
0.0025 -0.0305 4.8401538751
0.0025 -0.0295 4.86179032838
0.0025 -0.0285 4.88975294443
0.0025 -0.0275 4.91859183257
0.0025 -0.0265 4.94466404982
0.0025 -0.0255 4.96452992165
0.0025 -0.0245 4.97541731315
0.0025 -0.0235 4.97770902932
0.0025 -0.0225 4.97448530071
0.0025 -0.0215 4.96843472001
0.0025 -0.0205 4.95986548228
0.0025 -0.0195 4.94536076803
0.0025 -0.0185 4.91614992429
0.0025 -0.0175 4.8647045881
0.0025 -0.0165 4.79238299966
0.0025 -0.0155 4.72881884441
0.0025 -0.0145 4.69973134038
0.0025 -0.0135 4.69137219916
0.0025 -0.0125 4.68981405144
0.0025 -0.0115 4.69463399381
0.0025 -0.0105 4.70610803488
0.0025 -0.0095 4.72096150108
0.0025 -0.0085 4.73274276527
0.0025 -0.0075 4.73696760143
0.0025 -0.0065 4.73415847738
0.0025 -0.0055 4.72867443219
0.0025 -0.0045 4.72557153457
0.0025 -0.0035 4.72737944778
0.0025 -0.0025 4.73273550941
0.0025 -0.0015 4.73543932404
0.0025 -0.0005 4.72621509819
0.0025 0.0005 4.69849517647
0.0025 0.0015 4.65045214543
0.0025 0.0025 4.58392579542
0.0025 0.0035 4.50841611528
0.0025 0.0045 4.43631173796
0.0025 0.0055 4.37399898846
0.0025 0.0065 4.32241482739
0.0025 0.0075 4.27944757975
0.0025 0.0085 4.24215408858
0.0025 0.0095 4.20807643451
0.0025 0.0105 4.17551008397
0.0025 0.0115 4.14335761154
0.0025 0.0125 4.1109986864
0.0025 0.0135 4.07819496883
0.0025 0.0145 4.04500616456
0.0025 0.0155 4.0116800269
0.0025 0.0165 3.97851516577
0.0025 0.0175 3.94574697091
0.0025 0.0185 3.913490134
0.0025 0.0195 3.88173805072
0.0025 0.0205 3.85039738323
0.0025 0.0215 3.81933243795
0.0025 0.0225 3.78840265833
0.0025 0.0235 3.75748751834
0.0025 0.0245 3.7264993772
0.0025 0.0255 3.69538789761
0.0025 0.0265 3.66414705665
0.0025 0.0275 3.63284452617
0.0025 0.0285 3.60175426802
0.0025 0.0295 3.57184038814
0.0025 0.0305 3.54590551896
0.0025 0.0315 3.52974031602
0.0035 -0.0315 4.76743770138
0.0035 -0.0305 4.7813236249
0.0035 -0.0295 4.80731232767
0.0035 -0.0285 4.8416234539
0.0035 -0.0275 4.87906535948
0.0035 -0.0265 4.91388355774
0.0035 -0.0255 4.94094346223
0.0035 -0.0245 4.9569809113
0.0035 -0.0235 4.96205996772
0.0035 -0.0225 4.95963811811
0.0035 -0.0215 4.95363585034
0.0035 -0.0205 4.9458154281
0.0035 -0.0195 4.93511710023
0.0035 -0.0185 4.9166478979
0.0035 -0.0175 4.88424473838
0.0035 -0.0165 4.83757006087
0.0035 -0.0155 4.7863674229
0.0035 -0.0145 4.74714052828
0.0035 -0.0135 4.7259591724
0.0035 -0.0125 4.71708266473
0.0035 -0.0115 4.71672614474
0.0035 -0.0105 4.72114759609
0.0035 -0.0095 4.72434600649
0.0035 -0.0085 4.72149628783
0.0035 -0.0075 4.71220000343
0.0035 -0.0065 4.70005694897
0.0035 -0.0055 4.68961874847
0.0035 -0.0045 4.68428371205
0.0035 -0.0035 4.68553256654
0.0035 -0.0025 4.69114942745
0.0035 -0.0015 4.69307565279
0.0035 -0.0005 4.6783314643
0.0035 0.0005 4.6379703814
0.0035 0.0015 4.57409328737
0.0035 0.0025 4.49777812836
0.0035 0.0035 4.42137779033
0.0035 0.0045 4.35273488316
0.0035 0.0055 4.295698973
0.0035 0.0065 4.25026645195
0.0035 0.0075 4.21374457489
0.0035 0.0085 4.18296590698
0.0035 0.0095 4.15515853889
0.0035 0.0105 4.12814638811
0.0035 0.0115 4.10050333739
0.0035 0.0125 4.07153694358
0.0035 0.0135 4.04118328042
0.0035 0.0145 4.00982669853
0.0035 0.0155 3.97803161312
0.0035 0.0165 3.94630489864
0.0035 0.0175 3.91496103204
0.0035 0.0185 3.88409257
0.0035 0.0195 3.85361435608
0.0035 0.0205 3.82333647122
0.0035 0.0215 3.79303376128
0.0035 0.0225 3.76249729823
0.0035 0.0235 3.73156516754
0.0035 0.0245 3.70013721758
0.0035 0.0255 3.66818508655
0.0035 0.0265 3.63577889762
0.0035 0.0275 3.60318140476
0.0035 0.0285 3.57111768373
0.0035 0.0295 3.54130454202
0.0035 0.0305 3.51699242739
0.0035 0.0315 3.50280954651
0.0045 -0.0315 4.70504311449
0.0045 -0.0305 4.72141095857
0.0045 -0.0295 4.75174586466
0.0045 -0.0285 4.79153586064
0.0045 -0.0275 4.83552231108
0.0045 -0.0265 4.87777193338
0.0045 -0.0255 4.91243958226
0.0045 -0.0245 4.935365113
0.0045 -0.0235 4.94541958839
0.0045 -0.0225 4.94537701066
0.0045 -0.0215 4.94005383921
0.0045 -0.0205 4.93278158118
0.0045 -0.0195 4.92439105322
0.0045 -0.0185 4.91332933987
0.0045 -0.0175 4.89712120868
0.0045 -0.0165 4.87633558769
0.0045 -0.0155 4.8531099656
0.0045 -0.0145 4.82977812977
0.0045 -0.0135 4.81004250089
0.0045 -0.0125 4.7944777144
0.0045 -0.0115 4.77992741845
0.0045 -0.0105 4.76302311375
0.0045 -0.0095 4.74154106791
0.0045 -0.0085 4.7164185826
0.0045 -0.0075 4.69139360662
0.0045 -0.0065 4.6699281361
0.0045 -0.0055 4.65367776293
0.0045 -0.0045 4.64296329639
0.0045 -0.0035 4.6377682926
0.0045 -0.0025 4.63596479283
0.0045 -0.0015 4.62933861586
0.0045 -0.0005 4.60323962176
0.0045 0.0005 4.54962073712
0.0045 0.0015 4.47666355339
0.0045 0.0025 4.39890580864
0.0045 0.0035 4.32798241889
0.0045 0.0045 4.26804934446
0.0045 0.0055 4.21883276791
0.0045 0.0065 4.17960716813
0.0045 0.0075 4.14831361263
0.0045 0.0085 4.12255568844
0.0045 0.0095 4.09943606439
0.0045 0.0105 4.07643603024
0.0045 0.0115 4.0518902622
0.0045 0.0125 4.02514773877
0.0045 0.0135 3.99649759194
0.0045 0.0145 3.96671706446
0.0045 0.0155 3.93660988918
0.0045 0.0165 3.90673582593
0.0045 0.0175 3.87732546431
0.0045 0.0185 3.84832795456
0.0045 0.0195 3.81951215319
0.0045 0.0205 3.79056930111
0.0045 0.0215 3.76119503774
0.0045 0.0225 3.73114374092
0.0045 0.0235 3.70025863709
0.0045 0.0245 3.66848818849
0.0045 0.0255 3.63590756193
0.0045 0.0265 3.60277879021
0.0045 0.0275 3.56970122724
0.0045 0.0285 3.53787572885
0.0045 0.0295 3.50936185319
0.0045 0.0305 3.48711144958
0.0045 0.0315 3.47463879049
0.0055 -0.0315 4.64145792279
0.0055 -0.0305 4.65985868593
0.0055 -0.0295 4.69386160785
0.0055 -0.0285 4.73835031312
0.0055 -0.0275 4.78777057939
0.0055 -0.0265 4.83639464833
0.0055 -0.0255 4.87845857893
0.0055 -0.0245 4.90915200083
0.0055 -0.0235 4.9260455255
0.0055 -0.0225 4.93042184101
0.0055 -0.0215 4.92706662953
0.0055 -0.0205 4.92074350615
0.0055 -0.0195 4.91364511656
0.0055 -0.0185 4.90646556386
0.0055 -0.0175 4.90097966252
0.0055 -0.0165 4.90080563525
0.0055 -0.0155 4.90793034419
0.0055 -0.0145 4.9164975056
0.0055 -0.0135 4.91686346733
0.0055 -0.0125 4.90219888481
0.0055 -0.0115 4.86926059029
0.0055 -0.0105 4.82165900261
0.0055 -0.0095 4.76934590296
0.0055 -0.0085 4.72231773489
0.0055 -0.0075 4.6851052769
0.0055 -0.0065 4.65714868652
0.0055 -0.0055 4.6358031106
0.0055 -0.0045 4.6183244537
0.0055 -0.0035 4.60258113326
0.0055 -0.0025 4.5863453677
0.0055 -0.0015 4.56380070221
0.0055 -0.0005 4.52356497025
0.0055 0.0005 4.46013403809
0.0055 0.0015 4.38537175333
0.0055 0.0025 4.31320799745
0.0055 0.0035 4.25019173019
0.0055 0.0045 4.19781820873
0.0055 0.0055 4.15477901939
0.0055 0.0065 4.12007516515
0.0055 0.0075 4.09192029984
0.0055 0.0085 4.06840057681
0.0055 0.0095 4.04690057875
0.0055 0.0105 4.02492933492
0.0055 0.0115 4.0007659876
0.0055 0.0125 3.97421414757
0.0055 0.0135 3.94612046995
0.0055 0.0145 3.91755618442
0.0055 0.0155 3.8893117168
0.0055 0.0165 3.86171888976
0.0055 0.0175 3.83471491131
0.0055 0.0185 3.80798654717
0.0055 0.0195 3.78110954254
0.0055 0.0205 3.75366033231
0.0055 0.0215 3.725291536
0.0055 0.0225 3.69577576685
0.0055 0.0235 3.6650270796
0.0055 0.0245 3.63311514259
0.0055 0.0255 3.6002961637
0.0055 0.0265 3.56709000968
0.0055 0.0275 3.53441323847
0.0055 0.0285 3.50371071637
0.0055 0.0295 3.47698195187
0.0055 0.0305 3.45670802452
0.0055 0.0315 3.44560842883
0.0065 -0.0315 4.57644669772
0.0065 -0.0305 4.59644227297
0.0065 -0.0295 4.63337918392
0.0065 -0.0285 4.68175094269
0.0065 -0.0275 4.73582590505
0.0065 -0.0265 4.79003500342
0.0065 -0.0255 4.83888173088
0.0065 -0.0245 4.87741043269
0.0065 -0.0235 4.90232107691
0.0065 -0.0225 4.91329004255
0.0065 -0.0215 4.91383897807
0.0065 -0.0205 4.90927325362
0.0065 -0.0195 4.90319703513
0.0065 -0.0185 4.89777773195
0.0065 -0.0175 4.89730065888
0.0065 -0.0165 4.90999443345
0.0065 -0.0155 4.94062550065
0.0065 -0.0145 4.979028058
0.0065 -0.0135 5.00343139039
0.0065 -0.0125 4.99488882218
0.0065 -0.0115 4.9483318141
0.0065 -0.0105 4.87623641047
0.0065 -0.0095 4.80079570911
0.0065 -0.0085 4.73836472141
0.0065 -0.0075 4.6920382982
0.0065 -0.0065 4.6577960524
0.0065 -0.0055 4.63066623812
0.0065 -0.0045 4.60594646146
0.0065 -0.0035 4.5794658701
0.0065 -0.0025 4.54764205294
0.0065 -0.0015 4.50756246291
0.0065 -0.0005 4.45551292387
0.0065 0.0005 4.38857135958
0.0065 0.0015 4.31572165689
0.0065 0.0025 4.25036773284
0.0065 0.0035 4.19501276543
0.0065 0.0045 4.1477959628
0.0065 0.0055 4.10836669841
0.0065 0.0065 4.0756912393
0.0065 0.0075 4.04839390035
0.0065 0.0085 4.02448782312
0.0065 0.0095 4.00114076293
0.0065 0.0105 3.97628610189
0.0065 0.0115 3.94912422482
0.0065 0.0125 3.9205237256
0.0065 0.0135 3.89191025743
0.0065 0.0145 3.86435973989
0.0065 0.0155 3.8382284364
0.0065 0.0165 3.8133002626
0.0065 0.0175 3.78904103544
0.0065 0.0185 3.76479775184
0.0065 0.0195 3.73994673754
0.0065 0.0205 3.71398561209
0.0065 0.0215 3.68658358945
0.0065 0.0225 3.65760165241
0.0065 0.0235 3.62709407263
0.0065 0.0245 3.59531048264
0.0065 0.0255 3.56272020708
0.0065 0.0265 3.53006962229
0.0065 0.0275 3.49844846892
0.0065 0.0285 3.46931239343
0.0065 0.0295 3.44444453029
0.0065 0.0305 3.425916192
0.0065 0.0315 3.41591909803
0.0075 -0.0315 4.50985084137
0.0075 -0.0305 4.53110828851
0.0075 -0.0295 4.57041206037
0.0075 -0.0285 4.62202220271
0.0075 -0.0275 4.6801073419
0.0075 -0.0265 4.73921255531
0.0075 -0.0255 4.79409068685
0.0075 -0.0245 4.83992244564
0.0075 -0.0235 4.87299600596
0.0075 -0.0225 4.89182615852
0.0075 -0.0215 4.89818279634
0.0075 -0.0205 4.89668728705
0.0075 -0.0195 4.89228175564
0.0075 -0.0185 4.88845457262
0.0075 -0.0175 4.89007483419
0.0075 -0.0165 4.90776835119
0.0075 -0.0155 4.94987405801
0.0075 -0.0145 5.00512052361
0.0075 -0.0135 5.04415104292
0.0075 -0.0125 5.04164691995
0.0075 -0.0115 4.99363866155
0.0075 -0.0105 4.91627446466
0.0075 -0.0095 4.83269347939
0.0075 -0.0085 4.76028095061
0.0075 -0.0075 4.70449944161
0.0075 -0.0065 4.66194149468
0.0075 -0.0055 4.62651591846
0.0075 -0.0045 4.5921264325
0.0075 -0.0035 4.55340189069
0.0075 -0.0025 4.50706729679
0.0075 -0.0015 4.45414688862
0.0075 -0.0005 4.39688382087
0.0075 0.0005 4.33357597694
0.0075 0.0015 4.26656141916
0.0075 0.0025 4.20558332042
0.0075 0.0035 4.15496511009
0.0075 0.0045 4.11255003588
0.0075 0.0055 4.07621702219
0.0075 0.0065 4.04453441839
0.0075 0.0075 4.01674198236
0.0075 0.0085 3.99042672557
0.0075 0.0095 3.96201400475
0.0075 0.0105 3.93065975637
0.0075 0.0115 3.89781342954
0.0075 0.0125 3.8656043454
0.0075 0.0135 3.83597929101
0.0075 0.0145 3.80951607979
0.0075 0.0155 3.78573620526
0.0075 0.0165 3.76367399734
0.0075 0.0175 3.74222759034
0.0075 0.0185 3.72039554647
0.0075 0.0195 3.69739428841
0.0075 0.0205 3.67270830633
0.0075 0.0215 3.64610112797
0.0075 0.0225 3.61759456075
0.0075 0.0235 3.587435551
0.0075 0.0245 3.55607053695
0.0075 0.0255 3.52414563964
0.0075 0.0265 3.49253052941
0.0075 0.0275 3.46233763643
0.0075 0.0285 3.43491293475
0.0075 0.0295 3.41180966102
0.0075 0.0305 3.39478979216
0.0075 0.0315 3.38569306757
0.0085 -0.0315 4.44159378207
0.0085 -0.0305 4.46389955864
0.0085 -0.0295 4.50522386317
0.0085 -0.0285 4.55965751832
0.0085 -0.0275 4.62128034387
0.0085 -0.0265 4.68469527485
0.0085 -0.0255 4.74484538452
0.0085 -0.0245 4.79706354858
0.0085 -0.0235 4.83749312318
0.0085 -0.0225 4.86397766188
0.0085 -0.0215 4.87697882093
0.0085 -0.0205 4.88005046266
0.0085 -0.0195 4.87875682961
0.0085 -0.0185 4.87760710731
0.0085 -0.0175 4.88076366347
0.0085 -0.0165 4.89787651842
0.0085 -0.0155 4.93855417418
0.0085 -0.0145 4.99346038659
0.0085 -0.0135 5.03430157696
0.0085 -0.0125 5.03868148368
0.0085 -0.0115 5.00380385512
0.0085 -0.0105 4.93878169847
0.0085 -0.0095 4.85918852852
0.0085 -0.0085 4.78214728097
0.0085 -0.0075 4.71698712248
0.0085 -0.0065 4.66352586089
0.0085 -0.0055 4.61625351349
0.0085 -0.0045 4.56864045972
0.0085 -0.0035 4.51592962351
0.0085 -0.0025 4.45736160429
0.0085 -0.0015 4.39820596198
0.0085 -0.0005 4.34241257555
0.0085 0.0005 4.28643636378
0.0085 0.0015 4.22813117859
0.0085 0.0025 4.17225214629
0.0085 0.0035 4.12431013402
0.0085 0.0045 4.0847561332
0.0085 0.0055 4.05085836324
0.0085 0.0065 4.02037234505
0.0085 0.0075 3.99157614411
0.0085 0.0085 3.96142251335
0.0085 0.0095 3.92609901409
0.0085 0.0105 3.88655089152
0.0085 0.0115 3.84718329174
0.0085 0.0125 3.8114001353
0.0085 0.0135 3.78105679082
0.0085 0.0145 3.75586318392
0.0085 0.0155 3.73445796309
0.0085 0.0165 3.71508528537
0.0085 0.0175 3.69610608995
0.0085 0.0185 3.6762278161
0.0085 0.0195 3.654581008
0.0085 0.0205 3.63072978594
0.0085 0.0215 3.60461666781
0.0085 0.0225 3.57648177064
0.0085 0.0235 3.54677572906
0.0085 0.0245 3.51609732803
0.0085 0.0255 3.48517730119
0.0085 0.0265 3.45489347171
0.0085 0.0275 3.42628620287
0.0085 0.0285 3.4005580855
0.0085 0.0295 3.37906807838
0.0085 0.0305 3.36335296645
0.0085 0.0315 3.35500730293
0.0095 -0.0315 4.3716112928
0.0095 -0.0305 4.39488106916
0.0095 -0.0295 4.43807650386
0.0095 -0.0285 4.49513552316
0.0095 -0.0275 4.56002049616
0.0095 -0.0265 4.62732199049
0.0095 -0.0255 4.69206489883
0.0095 -0.0245 4.74967860983
0.0095 -0.0235 4.79627531967
0.0095 -0.0225 4.82930753131
0.0095 -0.0215 4.84848162321
0.0095 -0.0205 4.85673972814
0.0095 -0.0195 4.85963785451
0.0095 -0.0185 4.86203474012
0.0095 -0.0175 4.86678216557
0.0095 -0.0165 4.87979138986
0.0095 -0.0155 4.90874281777
0.0095 -0.0145 4.94956190236
0.0095 -0.0135 4.98495093904
0.0095 -0.0125 4.99904815675
0.0095 -0.0115 4.98286514631
0.0095 -0.0105 4.93552219443
0.0095 -0.0095 4.86725098336
0.0095 -0.0085 4.79273498513
0.0095 -0.0075 4.72208977482
0.0095 -0.0065 4.65791826926
0.0095 -0.0055 4.59728338964
0.0095 -0.0045 4.53563300319
0.0095 -0.0035 4.47100695753
0.0095 -0.0025 4.40540736474
0.0095 -0.0015 4.34479083921
0.0095 -0.0005 4.29181738853
0.0095 0.0005 4.24216616672
0.0095 0.0015 4.19247455945
0.0095 0.0025 4.14361098796
0.0095 0.0035 4.09869831539
0.0095 0.0045 4.06008012579
0.0095 0.0055 4.0271629455
0.0095 0.0065 3.99686474171
0.0095 0.0075 3.96562050458
0.0095 0.0085 3.93013650181
0.0095 0.0095 3.88806923508
0.0095 0.0105 3.84206757511
0.0095 0.0115 3.79838959736
0.0095 0.0125 3.76081149192
0.0095 0.0135 3.73041443497
0.0095 0.0145 3.70652541187
0.0095 0.0155 3.6870406103
0.0095 0.0165 3.66962219259
0.0095 0.0175 3.65224885775
0.0095 0.0185 3.6334218261
0.0095 0.0195 3.6123019128
0.0095 0.0205 3.58863980611
0.0095 0.0215 3.56263552581
0.0095 0.0225 3.53476385421
0.0095 0.0235 3.50562024404
0.0095 0.0245 3.47584975181
0.0095 0.0255 3.44615537114
0.0095 0.0265 3.41733935196
0.0095 0.0275 3.39033478282
0.0095 0.0285 3.36621322415
0.0095 0.0295 3.34618324947
0.0095 0.0305 3.33161322075
0.0095 0.0315 3.32391300861
0.0105 -0.0315 4.29984038268
0.0105 -0.0305 4.32407783311
0.0105 -0.0295 4.36913650339
0.0105 -0.0285 4.42878656799
0.0105 -0.0275 4.49683410235
0.0105 -0.0265 4.56777914877
0.0105 -0.0255 4.63662651693
0.0105 -0.0245 4.69883929708
0.0105 -0.0235 4.75049413428
0.0105 -0.0225 4.78880164264
0.0105 -0.0215 4.8130304675
0.0105 -0.0205 4.82585113665
0.0105 -0.0195 4.83251721492
0.0105 -0.0185 4.83777973771
0.0105 -0.0175 4.8430773444
0.0105 -0.0165 4.8495651774
0.0105 -0.0155 4.86258918009
0.0105 -0.0145 4.88536702648
0.0105 -0.0135 4.91312525842
0.0105 -0.0125 4.9337903772
0.0105 -0.0115 4.93225548755
0.0105 -0.0105 4.90223346628
0.0105 -0.0095 4.84921793893
0.0105 -0.0085 4.7829987647
0.0105 -0.0075 4.7122809434
0.0105 -0.0065 4.64133104842
0.0105 -0.0055 4.57037799177
0.0105 -0.0045 4.49843315036
0.0105 -0.0035 4.42651436668
0.0105 -0.0025 4.35823799451
0.0105 -0.0015 4.29774070167
0.0105 -0.0005 4.24592171792
0.0105 0.0005 4.20013320875
0.0105 0.0015 4.15733240049
0.0105 0.0025 4.11516387284
0.0105 0.0035 4.07351099497
0.0105 0.0045 4.03483105716
0.0105 0.0055 4.00068326233
0.0105 0.0065 3.96870480679
0.0105 0.0075 3.9338972213
0.0105 0.0085 3.89278256055
0.0105 0.0095 3.84580430881
0.0105 0.0105 3.79716296173
0.0105 0.0115 3.75305352905
0.0105 0.0125 3.71645063054
0.0105 0.0135 3.68718714943
0.0105 0.0145 3.66428172959
0.0105 0.0155 3.64563254577
0.0105 0.0165 3.62887780111
0.0105 0.0175 3.61171442901
0.0105 0.0185 3.59261753703
0.0105 0.0195 3.57092312423
0.0105 0.0205 3.54669421005
0.0105 0.0215 3.52043625728
0.0105 0.0225 3.49278177995
0.0105 0.0235 3.46432451313
0.0105 0.0245 3.435615856
0.0105 0.0255 3.40724243575
0.0105 0.0265 3.3799011437
0.0105 0.0275 3.35442986904
0.0105 0.0285 3.3318001172
0.0105 0.0295 3.31310358217
0.0105 0.0305 3.29956948052
0.0105 0.0315 3.29244931248
0.0115 -0.0315 4.22623812046
0.0115 -0.0305 4.25145479466
0.0115 -0.0295 4.2984162154
0.0115 -0.0285 4.36070424499
0.0115 -0.0275 4.43193167181
0.0115 -0.0265 4.50644810148
0.0115 -0.0255 4.57916096629
0.0115 -0.0245 4.64548051393
0.0115 -0.0235 4.70140032268
0.0115 -0.0225 4.74391480194
0.0115 -0.0215 4.77194634828
0.0115 -0.0205 4.7878779377
0.0115 -0.0195 4.79658456783
0.0115 -0.0185 4.80268007996
0.0115 -0.0175 4.80660081665
0.0115 -0.0165 4.80625235122
0.0115 -0.0155 4.80665061581
0.0115 -0.0145 4.81615208261
0.0115 -0.0135 4.83532519463
0.0115 -0.0125 4.85498051663
0.0115 -0.0115 4.86111002504
0.0115 -0.0105 4.84498619094
0.0115 -0.0095 4.80678042355
0.0115 -0.0085 4.75151664691
0.0115 -0.0075 4.68534013807
0.0115 -0.0065 4.61301908158
0.0115 -0.0055 4.53744693579
0.0115 -0.0045 4.46084701184
0.0115 -0.0035 4.38618451181
0.0115 -0.0025 4.31729668135
0.0115 -0.0015 4.25699602265
0.0115 -0.0005 4.20572362778
0.0115 0.0005 4.16224440673
0.0115 0.0015 4.12355419278
0.0115 0.0025 4.08562349278
0.0115 0.0035 4.04636491591
0.0115 0.0045 4.00687395966
0.0115 0.0055 3.96939765077
0.0115 0.0065 3.93355551744
0.0115 0.0075 3.89512080386
0.0115 0.0085 3.85088270838
0.0115 0.0095 3.80269810136
0.0115 0.0105 3.75553052884
0.0115 0.0115 3.71411646451
0.0115 0.0125 3.67985631708
0.0115 0.0135 3.6522785112
0.0115 0.0145 3.63012858262
0.0115 0.0155 3.61118964623
0.0115 0.0165 3.59342563785
0.0115 0.0175 3.57472761122
0.0115 0.0185 3.55377542614
0.0115 0.0195 3.53031458974
0.0115 0.0205 3.50487405301
0.0115 0.0215 3.47818365531
0.0115 0.0225 3.45081582526
0.0115 0.0235 3.42315845264
0.0115 0.0245 3.39555765597
0.0115 0.0255 3.36846480776
0.0115 0.0265 3.34250270004
0.0115 0.0275 3.31845293135
0.0115 0.0285 3.29721345985
0.0115 0.0295 3.27977127391
0.0115 0.0305 3.26721943659
0.0115 0.0315 3.2606513268
0.0125 -0.0315 4.15074314708
0.0125 -0.0305 4.17690674017
0.0125 -0.0295 4.22574601199
0.0125 -0.0285 4.290688152
0.0125 -0.0275 4.36514672801
0.0125 -0.0265 4.44328815334
0.0125 -0.0255 4.51985461587
0.0125 -0.0245 4.59010010829
0.0125 -0.0235 4.64982729618
0.0125 -0.0225 4.69575030276
0.0125 -0.0215 4.72644093064
0.0125 -0.0205 4.74389726125
0.0125 -0.0195 4.75275283917
0.0125 -0.0185 4.75772787666
0.0125 -0.0175 4.75911520474
0.0125 -0.0165 4.75422472163
0.0125 -0.0155 4.74854900963
0.0125 -0.0145 4.75099734256
0.0125 -0.0135 4.76196163731
0.0125 -0.0125 4.77560731584
0.0125 -0.0115 4.78254378004
0.0125 -0.0105 4.77411339742
0.0125 -0.0095 4.74698345597
0.0125 -0.0085 4.70216777823
0.0125 -0.0075 4.6432745885
0.0125 -0.0065 4.57459043149
0.0125 -0.0055 4.50025195814
0.0125 -0.0045 4.42421789687
0.0125 -0.0035 4.35039226915
0.0125 -0.0025 4.28230215348
0.0125 -0.0015 4.22254288884
0.0125 -0.0005 4.17189580119
0.0125 0.0005 4.1295563234
0.0125 0.0015 4.09196307079
0.0125 0.0025 4.05494071396
0.0125 0.0035 4.0167060912
0.0125 0.0045 3.97650624215
0.0125 0.0055 3.93529235657
0.0125 0.0065 3.89458523417
0.0125 0.0075 3.85307264059
0.0125 0.0085 3.80849377221
0.0125 0.0095 3.76262589263
0.0125 0.0105 3.71988928206
0.0125 0.0115 3.68260888611
0.0125 0.0125 3.65098323249
0.0125 0.0135 3.62492323831
0.0125 0.0145 3.60295954579
0.0125 0.0155 3.58269202434
0.0125 0.0165 3.5623292564
0.0125 0.0175 3.54033227691
0.0125 0.0185 3.51600943249
0.0125 0.0195 3.48993138662
0.0125 0.0205 3.4630755346
0.0125 0.0215 3.43608562229
0.0125 0.0225 3.40915652474
0.0125 0.0235 3.38231360836
0.0125 0.0245 3.35570185515
0.0125 0.0255 3.32971637075
0.0125 0.0265 3.30497699841
0.0125 0.0275 3.28224227235
0.0125 0.0285 3.26233843097
0.0125 0.0295 3.24613381342
0.0125 0.0305 3.23456694681
0.0125 0.0315 3.22855639445
0.0135 -0.0315 4.07329705536
0.0135 -0.0305 4.10025276702
0.0135 -0.0295 4.15076566401
0.0135 -0.0285 4.21821742494
0.0135 -0.0275 4.29588169582
0.0135 -0.0265 4.37774144444
0.0135 -0.0255 4.45831548169
0.0135 -0.0245 4.53258627049
0.0135 -0.0235 4.59601535703
0.0135 -0.0225 4.64491317776
0.0135 -0.0215 4.67745652198
0.0135 -0.0205 4.69531982039
0.0135 -0.0195 4.7031861534
0.0135 -0.0185 4.70620538325
0.0135 -0.0175 4.70537335407
0.0135 -0.0165 4.69874391387
0.0135 -0.0155 4.69148354561
0.0135 -0.0145 4.6906143478
0.0135 -0.0135 4.69533156612
0.0135 -0.0125 4.70204120576
0.0135 -0.0115 4.70550033676
0.0135 -0.0105 4.69905229642
0.0135 -0.0095 4.67827453989
0.0135 -0.0085 4.64173709402
0.0135 -0.0075 4.59084333366
0.0135 -0.0065 4.52878807972
0.0135 -0.0055 4.45965370661
0.0135 -0.0045 4.38777081611
0.0135 -0.0035 4.31719763517
0.0135 -0.0025 4.25138779968
0.0135 -0.0015 4.19296265302
0.0135 -0.0005 4.14280056212
0.0135 0.0005 4.09998473404
0.0135 0.0015 4.06143454297
0.0135 0.0025 4.02370757972
0.0135 0.0035 3.98484256625
0.0135 0.0045 3.94360177206
0.0135 0.0055 3.900119654
0.0135 0.0065 3.85604079586
0.0135 0.0075 3.81256730259
0.0135 0.0085 3.76916705703
0.0135 0.0095 3.72687786768
0.0135 0.0105 3.68871142426
0.0135 0.0115 3.65569785281
0.0135 0.0125 3.62719902505
0.0135 0.0135 3.60239517595
0.0135 0.0145 3.57980146543
0.0135 0.0155 3.55729633984
0.0135 0.0165 3.53293473017
0.0135 0.0175 3.50616714626
0.0135 0.0185 3.47778575623
0.0135 0.0195 3.4491761667
0.0135 0.0205 3.42139270961
0.0135 0.0215 3.39449493943
0.0135 0.0225 3.36806709464
0.0135 0.0235 3.34182577185
0.0135 0.0245 3.31589648549
0.0135 0.0255 3.2907616446
0.0135 0.0265 3.26709449619
0.0135 0.0275 3.2456245569
0.0135 0.0285 3.22707401105
0.0135 0.0295 3.21215732437
0.0135 0.0305 3.20162865923
0.0135 0.0315 3.19620858097
0.0145 -0.0315 3.99387524644
0.0145 -0.0305 4.02126992111
0.0145 -0.0295 4.07294288213
0.0145 -0.0285 4.14245551314
0.0145 -0.0275 4.22308630364
0.0145 -0.0265 4.30868401776
0.0145 -0.0255 4.39350635454
0.0145 -0.0245 4.47215762464
0.0145 -0.0235 4.5396054569
0.0145 -0.0225 4.59160289281
0.0145 -0.0215 4.62586856568
0.0145 -0.0205 4.64386590053
0.0145 -0.0195 4.65058541421
0.0145 -0.0185 4.65182988547
0.0145 -0.0175 4.64968308405
0.0145 -0.0165 4.64301619783
0.0145 -0.0155 4.6358334345
0.0145 -0.0145 4.63311830748
0.0145 -0.0135 4.63362043538
0.0145 -0.0125 4.63468052509
0.0145 -0.0115 4.63342651952
0.0145 -0.0105 4.62574863865
0.0145 -0.0095 4.60772975708
0.0145 -0.0085 4.57691195912
0.0145 -0.0075 4.53314567113
0.0145 -0.0065 4.47843267895
0.0145 -0.0055 4.41614651707
0.0145 -0.0045 4.35019695512
0.0145 -0.0035 4.28438934849
0.0145 -0.0025 4.22202416491
0.0145 -0.0015 4.1654495304
0.0145 -0.0005 4.11549422157
0.0145 0.0005 4.07130316319
0.0145 0.0015 4.03068660709
0.0145 0.0025 3.99132966579
0.0145 0.0035 3.95095568057
0.0145 0.0045 3.90791987274
0.0145 0.0055 3.86310368973
0.0145 0.0065 3.8184987282
0.0145 0.0075 3.7750659588
0.0145 0.0085 3.73311569169
0.0145 0.0095 3.69366466581
0.0145 0.0105 3.65884532061
0.0145 0.0115 3.62964377188
0.0145 0.0125 3.60426648697
0.0145 0.0135 3.58024151374
0.0145 0.0145 3.55636191605
0.0145 0.0155 3.53101160856
0.0145 0.0165 3.50155586291
0.0145 0.0175 3.46936449898
0.0145 0.0185 3.43776522336
0.0145 0.0195 3.40799859892
0.0145 0.0205 3.38031621814
0.0145 0.0215 3.35381414273
0.0145 0.0225 3.32759757065
0.0145 0.0235 3.30145929579
0.0145 0.0245 3.27579414024
0.0145 0.0255 3.25127564067
0.0145 0.0265 3.22861574447
0.0145 0.0275 3.20845622945
0.0145 0.0285 3.19135763203
0.0145 0.0295 3.17783838865
0.0145 0.0305 3.16843863778
0.0145 0.0315 3.16365930859
0.0155 -0.0315 3.91251176668
0.0155 -0.0305 3.93974798378
0.0155 -0.0295 3.99164933003
0.0155 -0.0285 4.06231311898
0.0155 -0.0275 4.14529292307
0.0155 -0.0265 4.23443615793
0.0155 -0.0255 4.32374252246
0.0155 -0.0245 4.40735618473
0.0155 -0.0235 4.4796267653
0.0155 -0.0225 4.53559548378
0.0155 -0.0215 4.57237665336
0.0155 -0.0205 4.59120511683
0.0155 -0.0195 4.59743951844
0.0155 -0.0185 4.59760625469
0.0155 -0.0175 4.59490763922
0.0155 -0.0165 4.58884046942
0.0155 -0.0155 4.58192703797
0.0155 -0.0145 4.57770025227
0.0155 -0.0135 4.5751303417
0.0155 -0.0125 4.57200030354
0.0155 -0.0115 4.5668107544
0.0155 -0.0105 4.55725485798
0.0155 -0.0095 4.5400718977
0.0155 -0.0085 4.51264188794
0.0155 -0.0075 4.47416857782
0.0155 -0.0065 4.42585450051
0.0155 -0.0055 4.37025634966
0.0155 -0.0045 4.31056920099
0.0155 -0.0035 4.25006086564
0.0155 -0.0025 4.19158564904
0.0155 -0.0015 4.13712034686
0.0155 -0.0005 4.08739955714
0.0155 0.0005 4.04187061079
0.0155 0.0015 3.99905378307
0.0155 0.0025 3.95713627069
0.0155 0.0035 3.91455049362
0.0155 0.0045 3.8700509678
0.0155 0.0055 3.82465989845
0.0155 0.0065 3.78086660133
0.0155 0.0075 3.73913186323
0.0155 0.0085 3.69880656897
0.0155 0.0095 3.66049168729
0.0155 0.0105 3.62667511693
0.0155 0.0115 3.59934858303
0.0155 0.0125 3.57662245059
0.0155 0.0135 3.5538080244
0.0155 0.0145 3.5281263817
0.0155 0.0155 3.49858147606
0.0155 0.0165 3.46409397567
0.0155 0.0175 3.42847537219
0.0155 0.0185 3.39619342411
0.0155 0.0195 3.36731469769
0.0155 0.0205 3.34054822762
0.0155 0.0215 3.31411398383
0.0155 0.0225 3.28735047529
0.0155 0.0235 3.26066928633
0.0155 0.0245 3.23491849278
0.0155 0.0255 3.21093266006
0.0155 0.0265 3.18936000744
0.0155 0.0275 3.1706633866
0.0155 0.0285 3.15518400466
0.0155 0.0295 3.14321118783
0.0155 0.0305 3.13505015887
0.0155 0.0315 3.13096834263
0.0165 -0.0315 3.8293462522
0.0165 -0.0305 3.85557794859
0.0165 -0.0295 3.90630532836
0.0165 -0.0285 3.97661274501
0.0165 -0.0275 4.06074901259
0.0165 -0.0265 4.15284518851
0.0165 -0.0255 4.24674121759
0.0165 -0.0245 4.33606574152
0.0165 -0.0235 4.4144374168
0.0165 -0.0225 4.4760418873
0.0165 -0.0215 4.51713950873
0.0165 -0.0205 4.53847091
0.0165 -0.0195 4.54555070849
0.0165 -0.0185 4.54564221992
0.0165 -0.0175 4.54313820678
0.0165 -0.0165 4.53796613644
0.0165 -0.0155 4.53120861267
0.0165 -0.0145 4.5255026376
0.0165 -0.0135 4.5203422822
0.0165 -0.0125 4.51413107073