% Model:              Benchmark260518.mph
% Version:            COMSOL 6.2.0.339
% Date:               May 21 2026, 04:04
% Dimension:          2
% Nodes:              4096
% Expressions:        1
% Description:        压力
% Length unit:        m
% x                       y                        p (Pa)
5.0E-4                    -0.0315                  3.6523068243326287
5.0E-4                    -0.0305                  3.7027256425968695
5.0E-4                    -0.0295                  3.771418288127242
5.0E-4                    -0.0285                  3.8456867208626186
5.0E-4                    -0.0275                  3.9226967433022444
5.0E-4                    -0.0265                  4.0012429704918135
5.0E-4                    -0.0255                  4.080437068599288
5.0E-4                    -0.0245                  4.159683543856609
5.0E-4                    -0.0235                  4.238523150180461
5.0E-4                    -0.0225                  4.316606749712513
5.0E-4                    -0.0215                  4.393809237569903
5.0E-4                    -0.0205                  4.4688625416258825
5.0E-4                    -0.0195                  4.537380229564832
5.0E-4                    -0.0185                  4.59364970094277
5.0E-4                    -0.0175                  4.631673315189109
5.0E-4                    -0.0165                  4.650828160670815
5.0E-4                    -0.0155                  4.657910426716777
5.0E-4                    -0.0145                  4.658812897718331
5.0E-4                    -0.0135                  4.656187159086688
5.0E-4                    -0.0125                  4.651114926572527
5.0E-4                    -0.0115                  4.644477228804996
5.0E-4                    -0.0105                  4.637871755039111
5.0E-4                    -0.0095                  4.633083493621834
5.0E-4                    -0.0085                  4.630543283016659
5.0E-4                    -0.0075                  4.628312948768454
5.0E-4                    -0.0065                  4.62307040233718
5.0E-4                    -0.0055                  4.6119902169590805
5.0E-4                    -0.0045                  4.5943601844132695
5.0E-4                    -0.0035                  4.5720313338196235
5.0E-4                    -0.0025                  4.547335866731262
5.0E-4                    -0.0015                  4.523348541657174
5.0E-4                    -5.0E-4                  4.540107059516433
5.0E-4                    5.0E-4                   4.673681976484134
5.0E-4                    0.0015                   4.868834545361548
5.0E-4                    0.0025                   5.003903097120895
5.0E-4                    0.0035                   5.067761097402126
5.0E-4                    0.0045                   5.087836165149638
5.0E-4                    0.0055                   5.083779173205873
5.0E-4                    0.0065                   5.069733092904039
5.0E-4                    0.0075                   5.052951371903733
5.0E-4                    0.0085                   5.036666531721897
5.0E-4                    0.0095                   5.021824225323667
5.0E-4                    0.0105                   5.008225935628859
5.0E-4                    0.0115                   4.99508063459397
5.0E-4                    0.0125                   4.981189930876386
5.0E-4                    0.0135                   4.964879449459374
5.0E-4                    0.0145                   4.940674529850022
5.0E-4                    0.0155                   4.902234295338494
5.0E-4                    0.0165                   4.865011557557047
5.0E-4                    0.0175                   4.853578896017503
5.0E-4                    0.0185                   4.85612026273844
5.0E-4                    0.0195                   4.852749366299493
5.0E-4                    0.0205                   4.841613342831092
5.0E-4                    0.0215                   4.820701215645627
5.0E-4                    0.0225                   4.791566264407148
5.0E-4                    0.0235                   4.757809200098468
5.0E-4                    0.0245                   4.721777336446651
5.0E-4                    0.0255                   4.685578628339953
5.0E-4                    0.0265                   4.650167053945585
5.0E-4                    0.0275                   4.615559072132343
5.0E-4                    0.0285                   4.5818692081621695
5.0E-4                    0.0295                   4.549552870907634
5.0E-4                    0.0305                   4.51980156972925
5.0E-4                    0.0315                   4.497916420831663
0.0015                    -0.0315                  3.6019169460383864
0.0015                    -0.0305                  3.6533784411071664
0.0015                    -0.0295                  3.7287745393465554
0.0015                    -0.0285                  3.8112561150221507
0.0015                    -0.0275                  3.8959310982482056
0.0015                    -0.0265                  3.9814489164180347
0.0015                    -0.0255                  4.0671561880840175
0.0015                    -0.0245                  4.152574323864069
0.0015                    -0.0235                  4.2373168228073474
0.0015                    -0.0225                  4.321046116352232
0.0015                    -0.0215                  4.4030132317984085
0.0015                    -0.0205                  4.480806315373229
0.0015                    -0.0195                  4.549384565140558
0.0015                    -0.0185                  4.603169251423088
0.0015                    -0.0175                  4.637131472632786
0.0015                    -0.0165                  4.653261173007557
0.0015                    -0.0155                  4.659581057744392
0.0015                    -0.0145                  4.6604674144221665
0.0015                    -0.0135                  4.6575272524445
0.0015                    -0.0125                  4.651148489086801
0.0015                    -0.0115                  4.641755709990429
0.0015                    -0.0105                  4.631572288469883
0.0015                    -0.0095                  4.623597598930134
0.0015                    -0.0085                  4.619400318809452
0.0015                    -0.0075                  4.617697811194067
0.0015                    -0.0065                  4.615005294135139
0.0015                    -0.0055                  4.607746437292246
0.0015                    -0.0045                  4.594432437868693
0.0015                    -0.0035                  4.577119010151968
0.0015                    -0.0025                  4.5610554615789765
0.0015                    -0.0015                  4.559476088352945
0.0015                    -5.0E-4                  4.59531889239139
0.0015                    5.0E-4                   4.743664776340097
0.0015                    0.0015                   4.9402961397773195
0.0015                    0.0025                   5.05932951388217
0.0015                    0.0035                   5.112669639629019
0.0015                    0.0045                   5.124073394904479
0.0015                    0.0055                   5.113490415149325
0.0015                    0.0065                   5.092958959157749
0.0015                    0.0075                   5.069263091024539
0.0015                    0.0085                   5.045773789454781
0.0015                    0.0095                   5.023839618491076
0.0015                    0.0105                   5.0037873700587125
0.0015                    0.0115                   4.985191607551467
0.0015                    0.0125                   4.966967395458203
0.0015                    0.0135                   4.947263714729271
0.0015                    0.0145                   4.922183807557224
0.0015                    0.0155                   4.886547210404524
0.0015                    0.0165                   4.861897558186624
0.0015                    0.0175                   4.859024507882737
0.0015                    0.0185                   4.858509051559947
0.0015                    0.0195                   4.852707939324754
0.0015                    0.0205                   4.8396067325286065
0.0015                    0.0215                   4.817344876265535
0.0015                    0.0225                   4.787266945113961
0.0015                    0.0235                   4.752863484774013
0.0015                    0.0245                   4.716027350703367
0.0015                    0.0255                   4.678346099599416
0.0015                    0.0265                   4.640649992784255
0.0015                    0.0275                   4.6033160139657054
0.0015                    0.0285                   4.566563757112422
0.0015                    0.0295                   4.530898021383567
0.0015                    0.0305                   4.498346485284155
0.0015                    0.0315                   4.476017622335841
0.0025                    -0.0315                  3.5327623872818776
0.0025                    -0.0305                  3.5808387656845015
0.0025                    -0.0295                  3.6591555133402496
0.0025                    -0.0285                  3.7504350396551454
0.0025                    -0.0275                  3.8461027460337447
0.0025                    -0.0265                  3.943031298701241
0.0025                    -0.0255                  4.040051401514682
0.0025                    -0.0245                  4.13644759472358
0.0025                    -0.0235                  4.231469373102791
0.0025                    -0.0225                  4.323959616589573
0.0025                    -0.0215                  4.411723945472677
0.0025                    -0.0205                  4.490972972684346
0.0025                    -0.0195                  4.556554834390099
0.0025                    -0.0185                  4.604790807303836
0.0025                    -0.0175                  4.634891302881952
0.0025                    -0.0165                  4.651456640225434
0.0025                    -0.0155                  4.659916563591867
0.0025                    -0.0145                  4.660543449710155
0.0025                    -0.0135                  4.652620981358424
0.0025                    -0.0125                  4.636902327023478
0.0025                    -0.0115                  4.6167929598470145
0.0025                    -0.0105                  4.597619935986192
0.0025                    -0.0095                  4.58421356884716
0.0025                    -0.0085                  4.579384165567049
0.0025                    -0.0075                  4.582902936581129
0.0025                    -0.0065                  4.591771798116162
0.0025                    -0.0055                  4.601790747545763
0.0025                    -0.0045                  4.60998211209165
0.0025                    -0.0035                  4.61801700310965
0.0025                    -0.0025                  4.634270546264396
0.0025                    -0.0015                  4.6761915044605615
0.0025                    -5.0E-4                  4.771638218229721
0.0025                    5.0E-4                   4.913135785148933
0.0025                    0.0015                   5.042118667243034
0.0025                    0.0025                   5.121881034377812
0.0025                    0.0035                   5.155576793578864
0.0025                    0.0045                   5.1574426483827365
0.0025                    0.0055                   5.141059193159557
0.0025                    0.0065                   5.114327560201349
0.0025                    0.0075                   5.0832489513475645
0.0025                    0.0085                   5.051660553522964
0.0025                    0.0095                   5.021566534468373
0.0025                    0.0105                   4.993891802041576
0.0025                    0.0115                   4.968764237917043
0.0025                    0.0125                   4.945713363853598
0.0025                    0.0135                   4.923631143679494
0.0025                    0.0145                   4.9011797496818374
0.0025                    0.0155                   4.878497822614488
0.0025                    0.0165                   4.862790587383184
0.0025                    0.0175                   4.858386489711949
0.0025                    0.0185                   4.8559973467475395
0.0025                    0.0195                   4.846162000291502
0.0025                    0.0205                   4.827931743841993
0.0025                    0.0215                   4.803245910505481
0.0025                    0.0225                   4.773404551986715
0.0025                    0.0235                   4.739586483885853
0.0025                    0.0245                   4.70247426584632
0.0025                    0.0255                   4.662934516398462
0.0025                    0.0265                   4.6221147778836515
0.0025                    0.0275                   4.580899779639938
0.0025                    0.0285                   4.5400242111864495
0.0025                    0.0295                   4.50084235993668
0.0025                    0.0305                   4.466994273729036
0.0025                    0.0315                   4.445928127553056
0.0035                    -0.0315                  3.4572984360010492
0.0035                    -0.0305                  3.5009575202250742
0.0035                    -0.0295                  3.577695017459149
0.0035                    -0.0285                  3.6737946381636646
0.0035                    -0.0275                  3.7793097527521815
0.0035                    -0.0265                  3.888778425105215
0.0035                    -0.0255                  3.9994599749755766
0.0035                    -0.0245                  4.109566773079832
0.0035                    -0.0235                  4.217116270294795
0.0035                    -0.0225                  4.3192451323848395
0.0035                    -0.0215                  4.411852006316153
0.0035                    -0.0205                  4.489920559910525
0.0035                    -0.0195                  4.549914502256503
0.0035                    -0.0185                  4.592020443665507
0.0035                    -0.0175                  4.620502821754028
0.0035                    -0.0165                  4.640562630922014
0.0035                    -0.0155                  4.651215715068994
0.0035                    -0.0145                  4.646376239942458
0.0035                    -0.0135                  4.624502289317969
0.0035                    -0.0125                  4.591264283673601
0.0035                    -0.0115                  4.55546585378123
0.0035                    -0.0105                  4.5254009080681685
0.0035                    -0.0095                  4.507690777201182
0.0035                    -0.0085                  4.506290825796893
0.0035                    -0.0075                  4.521651237206032
0.0035                    -0.0065                  4.552296219699859
0.0035                    -0.0055                  4.595453135904448
0.0035                    -0.0045                  4.646688939556611
0.0035                    -0.0035                  4.703069674195901
0.0035                    -0.0025                  4.767641496390735
0.0035                    -0.0015                  4.847854681662611
0.0035                    -5.0E-4                  4.946072840697243
0.0035                    5.0E-4                   5.04678309267008
0.0035                    0.0015                   5.124070969742769
0.0035                    0.0025                   5.167749697505801
0.0035                    0.0035                   5.183351274891788
0.0035                    0.0045                   5.178499893171855
0.0035                    0.0055                   5.158571291848315
0.0035                    0.0065                   5.127565940816641
0.0035                    0.0075                   5.090895957446785
0.0035                    0.0085                   5.0529845464835725
0.0035                    0.0095                   5.016323111803315
0.0035                    0.0105                   4.98200454801248
0.0035                    0.0115                   4.950434116486221
0.0035                    0.0125                   4.921862154284552
0.0035                    0.0135                   4.896430374769332
0.0035                    0.0145                   4.874458720550602
0.0035                    0.0155                   4.856639943605373
0.0035                    0.0165                   4.8457333717578415
0.0035                    0.0175                   4.842438810470696
0.0035                    0.0185                   4.839367921749255
0.0035                    0.0195                   4.827324028739449
0.0035                    0.0205                   4.805258811686758
0.0035                    0.0215                   4.778526078986016
0.0035                    0.0225                   4.749564348698618
0.0035                    0.0235                   4.7169808808099045
0.0035                    0.0245                   4.680081212166336
0.0035                    0.0255                   4.639342865316952
0.0035                    0.0265                   4.595905126868047
0.0035                    0.0275                   4.5513375582463835
0.0035                    0.0285                   4.507216145343059
0.0035                    0.0295                   4.466092413475198
0.0035                    0.0305                   4.4324759557167095
0.0035                    0.0315                   4.412783519046701
0.0045                    -0.0315                  3.3781597108269725
0.0045                    -0.0305                  3.417762828097533
0.0045                    -0.0295                  3.4909542564582523
0.0045                    -0.0285                  3.5881087093154305
0.0045                    -0.0275                  3.7004111800731945
0.0045                    -0.0265                  3.8212228720375574
0.0045                    -0.0255                  3.9458611693075607
0.0045                    -0.0245                  4.070618738528121
0.0045                    -0.0235                  4.191504972955007
0.0045                    -0.0225                  4.303332094921024
0.0045                    -0.0215                  4.399882628665659
0.0045                    -0.0205                  4.475628267076981
0.0045                    -0.0195                  4.5298373667310585
0.0045                    -0.0185                  4.566747184626927
0.0045                    -0.0175                  4.594183813466709
0.0045                    -0.0165                  4.615722120516945
0.0045                    -0.0155                  4.622808857717361
0.0045                    -0.0145                  4.6055921679020315
0.0045                    -0.0135                  4.566218491968701
0.0045                    -0.0125                  4.516399546550547
0.0045                    -0.0115                  4.4699728784409345
0.0045                    -0.0105                  4.4385017096294215
0.0045                    -0.0095                  4.427118780451636
0.0045                    -0.0085                  4.436213597785894
0.0045                    -0.0075                  4.4658727248766725
0.0045                    -0.0065                  4.517591284458762
0.0045                    -0.0055                  4.5923214151565475
0.0045                    -0.0045                  4.686154109002413
0.0045                    -0.0035                  4.789311965234704
0.0045                    -0.0025                  4.891100369721039
0.0045                    -0.0015                  4.98488160811005
0.0045                    -5.0E-4                  5.066083361962862
0.0045                    5.0E-4                   5.127646159538681
0.0045                    0.0015                   5.165892224895519
0.0045                    0.0025                   5.184963631166472
0.0045                    0.0035                   5.189904517263976
0.0045                    0.0045                   5.182500938529688
0.0045                    0.0055                   5.162287419737023
0.0045                    0.0065                   5.130521639841762
0.0045                    0.0075                   5.091894473850559
0.0045                    0.0085                   5.051149596654998
0.0045                    0.0095                   5.010882941867758
0.0045                    0.0105                   4.972053553900897
0.0045                    0.0115                   4.93532791542063
0.0045                    0.0125                   4.901660184259066
0.0045                    0.0135                   4.87183666583695
0.0045                    0.0145                   4.846396754139554
0.0045                    0.0155                   4.8268687585304235
0.0045                    0.0165                   4.815504155832047
0.0045                    0.0175                   4.81138162362934
0.0045                    0.0185                   4.8076603984155515
0.0045                    0.0195                   4.795845802052761
0.0045                    0.0205                   4.774193615460625
0.0045                    0.0215                   4.7475336663530685
0.0045                    0.0225                   4.719003105229581
0.0045                    0.0235                   4.686809058292512
0.0045                    0.0245                   4.649796476046823
0.0045                    0.0255                   4.608578543867331
0.0045                    0.0265                   4.563789679367982
0.0045                    0.0275                   4.517244236558153
0.0045                    0.0285                   4.471346971078022
0.0045                    0.0295                   4.429539421212186
0.0045                    0.0305                   4.3964757841171735
0.0045                    0.0315                   4.377700039749577
0.0055                    -0.0315                  3.296367135803118
0.0055                    -0.0305                  3.3319000935285086
0.0055                    -0.0295                  3.4002932315384764
0.0055                    -0.0285                  3.495749812705573
0.0055                    -0.0275                  3.6117651655064886
0.0055                    -0.0265                  3.7418268083496926
0.0055                    -0.0255                  3.879592483415426
0.0055                    -0.0245                  4.018894330649806
0.0055                    -0.0235                  4.153240908728314
0.0055                    -0.0225                  4.275016806788941
0.0055                    -0.0215                  4.375805921462729
0.0055                    -0.0205                  4.450325290052067
0.0055                    -0.0195                  4.500087466134105
0.0055                    -0.0185                  4.533052497483248
0.0055                    -0.0175                  4.558476394257626
0.0055                    -0.0165                  4.576142824684842
0.0055                    -0.0155                  4.573613118754088
0.0055                    -0.0145                  4.542855186988283
0.0055                    -0.0135                  4.491322193670895
0.0055                    -0.0125                  4.436612670700791
0.0055                    -0.0115                  4.396621911913731
0.0055                    -0.0105                  4.379269000482169
0.0055                    -0.0095                  4.382195462851344
0.0055                    -0.0085                  4.402190031502221
0.0055                    -0.0075                  4.441356183963101
0.0055                    -0.0065                  4.505077245265063
0.0055                    -0.0055                  4.59690407622141
0.0055                    -0.0045                  4.713240493030861
0.0055                    -0.0035                  4.839550827130442
0.0055                    -0.0025                  4.955431530749015
0.0055                    -0.0015                  5.047791659015485
0.0055                    -5.0E-4                  5.113269841625427
0.0055                    5.0E-4                   5.151948989372083
0.0055                    0.0015                   5.169429607512298
0.0055                    0.0025                   5.176010852545232
0.0055                    0.0035                   5.176710125069095
0.0055                    0.0045                   5.16963144216045
0.0055                    0.0055                   5.1513898462937835
0.0055                    0.0065                   5.121223042132611
0.0055                    0.0075                   5.08306445889364
0.0055                    0.0085                   5.042021016005178
0.0055                    0.0095                   5.0006473920849
0.0055                    0.0105                   4.959622250731501
0.0055                    0.0115                   4.919898877911003
0.0055                    0.0125                   4.883325769011583
0.0055                    0.0135                   4.850552337147574
0.0055                    0.0145                   4.8211005532303455
0.0055                    0.0155                   4.796544189912128
0.0055                    0.0165                   4.780131962882795
0.0055                    0.0175                   4.77244379668003
0.0055                    0.0185                   4.767707427565606
0.0055                    0.0195                   4.757275294735994
0.0055                    0.0205                   4.7380017923550835
0.0055                    0.0215                   4.712599919947866
0.0055                    0.0225                   4.683603258101251
0.0055                    0.0235                   4.650886822095709
0.0055                    0.0245                   4.613950420273718
0.0055                    0.0255                   4.572827498005305
0.0055                    0.0265                   4.527747752893293
0.0055                    0.0275                   4.4803226765560495
0.0055                    0.0285                   4.43359589872696
0.0055                    0.0295                   4.391602223025596
0.0055                    0.0305                   4.359019118584197
0.0055                    0.0315                   4.340851876572175
0.0065                    -0.0315                  3.212791264606108
0.0065                    -0.0305                  3.2436812485624893
0.0065                    -0.0295                  3.305717417966391
0.0065                    -0.0285                  3.396931900381151
0.0065                    -0.0275                  3.513821172029684
0.0065                    -0.0265                  3.650992886795701
0.0065                    -0.0255                  3.8008906072985793
0.0065                    -0.0245                  3.954573134488328
0.0065                    -0.0235                  4.102525739939975
0.0065                    -0.0225                  4.234966872103471
0.0065                    -0.0215                  4.341973575364394
0.0065                    -0.0205                  4.417992522995661
0.0065                    -0.0195                  4.465507828685366
0.0065                    -0.0185                  4.4955465591732375
0.0065                    -0.0175                  4.5177421061167236
0.0065                    -0.0165                  4.52828352678065
0.0065                    -0.0155                  4.515532236172133
0.0065                    -0.0145                  4.475685863201357
0.0065                    -0.0135                  4.422497212777232
0.0065                    -0.0125                  4.378711612937192
0.0065                    -0.0115                  4.357574837903446
0.0065                    -0.0105                  4.356168099029105
0.0065                    -0.0095                  4.367632662644824
0.0065                    -0.0085                  4.391786717686687
0.0065                    -0.0075                  4.435044414071547
0.0065                    -0.0065                  4.505563477571743
0.0065                    -0.0055                  4.606478028312283
0.0065                    -0.0045                  4.730747493594043
0.0065                    -0.0035                  4.859103343209879
0.0065                    -0.0025                  4.96938021420549
0.0065                    -0.0015                  5.051857105233239
0.0065                    -5.0E-4                  5.1065429168675855
0.0065                    5.0E-4                   5.13448495216299
0.0065                    0.0015                   5.141861988327493
0.0065                    0.0025                   5.140393460842143
0.0065                    0.0035                   5.136506514055609
0.0065                    0.0045                   5.127035800762835
0.0065                    0.0055                   5.107335273744714
0.0065                    0.0065                   5.0776482278921184
0.0065                    0.0075                   5.042039949366741
0.0065                    0.0085                   5.004380712929779
0.0065                    0.0095                   4.966420004420787
0.0065                    0.0105                   4.928783402829454
0.0065                    0.0115                   4.892434355742278
0.0065                    0.0125                   4.858467927509464