% Model:              Benchmark260518.mph
% Version:            COMSOL 6.2.0.339
% Date:               May 19 2026, 14:20
% Dimension:          2
% Nodes:              4096
% Expressions:        1
% Description:        压力
% Length unit:        m
% x                       y                        p (Pa)
% mirrored_by_python_y_to_minus_y, coord_match_decimals=12
0.0005 -0.0315 5.12160340608
0.0005 -0.0305 5.11671069871
0.0005 -0.0295 5.11097310688
0.0005 -0.0285 5.10567692872
0.0005 -0.0275 5.09940928439
0.0005 -0.0265 5.08631523461
0.0005 -0.0255 5.04731938963
0.0005 -0.0245 4.78536375887
0.0005 -0.0235 4.12344641246
0.0005 -0.0225 3.48400579089
0.0005 -0.0215 3.24690441303
0.0005 -0.0205 3.20170845125
0.0005 -0.0195 3.18316970814
0.0005 -0.0185 3.18770633957
0.0005 -0.0175 3.20447187678
0.0005 -0.0165 3.23860810323
0.0005 -0.0155 3.29620130528
0.0005 -0.0145 3.37450669157
0.0005 -0.0135 3.46622741402
0.0005 -0.0125 3.56564058114
0.0005 -0.0115 3.66771556621
0.0005 -0.0105 3.76885964558
0.0005 -0.0095 3.86656479597
0.0005 -0.0085 3.9589809295
0.0005 -0.0075 4.04464637679
0.0005 -0.0065 4.12236892626
0.0005 -0.0055 4.19119609806
0.0005 -0.0045 4.25042086768
0.0005 -0.0035 4.29960538366
0.0005 -0.0025 4.33860943413
0.0005 -0.0015 4.36760489533
0.0005 -0.0005 4.3870583933
0.0005 0.0005 4.39767757374
0.0005 0.0015 4.40033183576
0.0005 0.0025 4.39596810987
0.0005 0.0035 4.38554042631
0.0005 0.0045 4.36996082375
0.0005 0.0055 4.35007407296
0.0005 0.0065 4.32667449851
0.0005 0.0075 4.30054332977
0.0005 0.0085 4.27231456124
0.0005 0.0095 4.24245052879
0.0005 0.0105 4.21135552769
0.0005 0.0115 4.17937823934
0.0005 0.0125 4.14691760003
0.0005 0.0135 4.11433022758
0.0005 0.0145 4.08175449018
0.0005 0.0155 4.04929348851
0.0005 0.0165 4.01707585056
0.0005 0.0175 3.98513370638
0.0005 0.0185 3.95353469152
0.0005 0.0195 3.92233833865
0.0005 0.0205 3.89148159509
0.0005 0.0215 3.86094179297
0.0005 0.0225 3.83075471384
0.0005 0.0235 3.80092631382
0.0005 0.0245 3.77146142943
0.0005 0.0255 3.74240796503
0.0005 0.0265 3.71383944948
0.0005 0.0275 3.68586827996
0.0005 0.0285 3.65875669435
0.0005 0.0295 3.63303060032
0.0005 0.0305 3.60977367556
0.0005 0.0315 3.59288421776
0.0015 -0.0315 5.12752555806
0.0015 -0.0305 5.12162923331
0.0015 -0.0295 5.11501252237
0.0015 -0.0285 5.10927460998
0.0015 -0.0275 5.10285049352
0.0015 -0.0265 5.09348157774
0.0015 -0.0255 5.07616518885
0.0015 -0.0245 4.83244507612
0.0015 -0.0235 4.14366601204
0.0015 -0.0225 3.40914160869
0.0015 -0.0215 3.15170200426
0.0015 -0.0205 3.17485905254
0.0015 -0.0195 3.17960581254
0.0015 -0.0185 3.18605913587
0.0015 -0.0175 3.2005607239
0.0015 -0.0165 3.23224399581
0.0015 -0.0155 3.29057928912
0.0015 -0.0145 3.37506581274
0.0015 -0.0135 3.47759606254
0.0015 -0.0125 3.58981171747
0.0015 -0.0115 3.70465401559
0.0015 -0.0105 3.81752669449
0.0015 -0.0095 3.92544414081
0.0015 -0.0085 4.02628165605
0.0015 -0.0075 4.11844735985
0.0015 -0.0065 4.20076276751
0.0015 -0.0055 4.27241732252
0.0015 -0.0045 4.33292401778
0.0015 -0.0035 4.38205272684
0.0015 -0.0025 4.41978161065
0.0015 -0.0015 4.44631212435
0.0015 -0.0005 4.46212113461
0.0015 0.0005 4.46797718936
0.0015 0.0015 4.46489573422
0.0015 0.0025 4.45405559661
0.0015 0.0035 4.43669943059
0.0015 0.0045 4.41403570437
0.0015 0.0055 4.38716521127
0.0015 0.0065 4.35705925844
0.0015 0.0075 4.32458226159
0.0015 0.0085 4.29049673543
0.0015 0.0095 4.25539924841
0.0015 0.0105 4.21976898527
0.0015 0.0115 4.18403901649
0.0015 0.0125 4.14856815882
0.0015 0.0135 4.11360374684
0.0015 0.0145 4.07924948761
0.0015 0.0155 4.04550952341
0.0015 0.0165 4.01234218383
0.0015 0.0175 3.97970171022
0.0015 0.0185 3.94754592116
0.0015 0.0195 3.91581773179
0.0015 0.0205 3.88445724548
0.0015 0.0215 3.85342262732
0.0015 0.0225 3.82269250537
0.0015 0.0235 3.79225319374
0.0015 0.0245 3.76209744319
0.0015 0.0255 3.73223068916
0.0015 0.0265 3.70267893233
0.0015 0.0275 3.67352672148
0.0015 0.0285 3.64499524038
0.0015 0.0295 3.61760212627
0.0015 0.0305 3.59287084822
0.0015 0.0315 3.5759892145
0.0025 -0.0315 5.13759919019
0.0025 -0.0305 5.13110703974
0.0025 -0.0295 5.12416567286
0.0025 -0.0285 5.11861033506
0.0025 -0.0275 5.11219294724
0.0025 -0.0265 5.1014634463
0.0025 -0.0255 5.09192093759
0.0025 -0.0245 4.89910894977
0.0025 -0.0235 4.29045522322
0.0025 -0.0225 3.50390597855
0.0025 -0.0215 3.14241465873
0.0025 -0.0205 3.16270171508
0.0025 -0.0195 3.17925452974
0.0025 -0.0185 3.18766365741
0.0025 -0.0175 3.20361369145
0.0025 -0.0165 3.23689580401
0.0025 -0.0155 3.29900258636
0.0025 -0.0145 3.39221840204
0.0025 -0.0135 3.5096226618
0.0025 -0.0125 3.64026375599
0.0025 -0.0115 3.77451999914
0.0025 -0.0105 3.90576454098
0.0025 -0.0095 4.0297376028
0.0025 -0.0085 4.14360839142
0.0025 -0.0075 4.24549614882
0.0025 -0.0065 4.33429437985
0.0025 -0.0055 4.40956269891
0.0025 -0.0045 4.47135258089
0.0025 -0.0035 4.51994360164
0.0025 -0.0025 4.55560408612
0.0025 -0.0015 4.57853614106
0.0025 -0.0005 4.58903257648
0.0025 0.0005 4.58770253937
0.0025 0.0015 4.57560302442
0.0025 0.0025 4.55421228692
0.0025 0.0035 4.52526472429
0.0025 0.0045 4.4905169267
0.0025 0.0055 4.45155336705
0.0025 0.0065 4.40971288263
0.0025 0.0075 4.36611414953
0.0025 0.0085 4.32171574104
0.0025 0.0095 4.27736170143
0.0025 0.0105 4.23375844272
0.0025 0.0115 4.19143589676
0.0025 0.0125 4.15071130821
0.0025 0.0135 4.11167857058
0.0025 0.0145 4.07425793001
0.0025 0.0155 4.03824534264
0.0025 0.0165 4.00338484903
0.0025 0.0175 3.96943547097
0.0025 0.0185 3.93618717697
0.0025 0.0195 3.90347275663
0.0025 0.0205 3.87117427848
0.0025 0.0215 3.83920526685
0.0025 0.0225 3.80749994122
0.0025 0.0235 3.77601036725
0.0025 0.0245 3.74469684741
0.0025 0.0255 3.71352805408
0.0025 0.0265 3.68250784706
0.0025 0.0275 3.65173145357
0.0025 0.0285 3.6215108777
0.0025 0.0295 3.59277240512
0.0025 0.0305 3.56808096381
0.0025 0.0315 3.55271251252
0.0035 -0.0315 5.15186380415
0.0035 -0.0305 5.14521379695
0.0035 -0.0295 5.13884029075
0.0035 -0.0285 5.13486693085
0.0035 -0.0275 5.12942851474
0.0035 -0.0265 5.11800335305
0.0035 -0.0255 5.1167735664
0.0035 -0.0245 4.98557751803
0.0035 -0.0235 4.45792662993
0.0035 -0.0225 3.63468179006
0.0035 -0.0215 3.18574846116
0.0035 -0.0205 3.17328915205
0.0035 -0.0195 3.18328378953
0.0035 -0.0185 3.1984556442
0.0035 -0.0175 3.22037112036
0.0035 -0.0165 3.26088228238
0.0035 -0.0155 3.33129360108
0.0035 -0.0145 3.43482648444
0.0035 -0.0135 3.56710613193
0.0035 -0.0125 3.71658918607
0.0035 -0.0115 3.87143498285
0.0035 -0.0105 4.02244401411
0.0035 -0.0095 4.16343263869
0.0035 -0.0085 4.29050421632
0.0035 -0.0075 4.40142581798
0.0035 -0.0065 4.49537087441
0.0035 -0.0055 4.5726533881
0.0035 -0.0045 4.63425635468
0.0035 -0.0035 4.68129643664
0.0035 -0.0025 4.71457124378
0.0035 -0.0015 4.73428966911
0.0035 -0.0005 4.74019520949
0.0035 0.0005 4.73216343137
0.0035 0.0015 4.71083579726
0.0035 0.0025 4.6778133761
0.0035 0.0035 4.63537699451
0.0035 0.0045 4.58599541305
0.0035 0.0055 4.53193745661
0.0035 0.0065 4.47512214962
0.0035 0.0075 4.41716683624
0.0035 0.0085 4.35949619839
0.0035 0.0095 4.30335891708
0.0035 0.0105 4.2497376145
0.0035 0.0115 4.19923923326
0.0035 0.0125 4.15206440171
0.0035 0.0135 4.10807053099
0.0035 0.0145 4.06688012951
0.0035 0.0155 4.02800007291
0.0035 0.0165 3.99092009565
0.0035 0.0175 3.95517817804
0.0035 0.0185 3.92040020515
0.0035 0.0195 3.88631038239
0.0035 0.0205 3.85271550799
0.0035 0.0215 3.81948012584
0.0035 0.0225 3.78650282143
0.0035 0.0235 3.75370080073
0.0035 0.0245 3.72100676398
0.0035 0.0255 3.68838451454
0.0035 0.0265 3.65587488053
0.0035 0.0275 3.62369793957
0.0035 0.0285 3.59249549816
0.0035 0.0295 3.56381365604
0.0035 0.0305 3.54057035366
0.0035 0.0315 3.52692674139
0.0045 -0.0315 5.17067967949
0.0045 -0.0305 5.16425636526
0.0045 -0.0295 5.15916444209
0.0045 -0.0285 5.15829818836
0.0045 -0.0275 5.15758709088
0.0045 -0.0265 5.15283317558
0.0045 -0.0255 5.16461429446
0.0045 -0.0245 5.09077492659
0.0045 -0.0235 4.6525436293
0.0045 -0.0225 3.86014499249
0.0045 -0.0215 3.29552904452
0.0045 -0.0205 3.17696175146
0.0045 -0.0195 3.19656166979
0.0045 -0.0185 3.22536327038
0.0045 -0.0175 3.2564363426
0.0045 -0.0165 3.30765552186
0.0045 -0.0155 3.38789551044
0.0045 -0.0145 3.50213028569
0.0045 -0.0135 3.64794665448
0.0045 -0.0125 3.81429689762
0.0045 -0.0115 3.98747518368
0.0045 -0.0105 4.15551734129
0.0045 -0.0095 4.31006176481
0.0045 -0.0085 4.44613538933
0.0045 -0.0075 4.56153018748
0.0045 -0.0065 4.65627300563
0.0045 -0.0055 4.73194657415
0.0045 -0.0045 4.79079602004
0.0045 -0.0035 4.83496811889
0.0045 -0.0025 4.8659209326
0.0045 -0.0015 4.8839092152
0.0045 -0.0005 4.8879372314
0.0045 0.0005 4.87653601868
0.0045 0.0015 4.84909274317
0.0045 0.0025 4.80668705988
0.0045 0.0035 4.75182839975
0.0045 0.0045 4.68770098216
0.0045 0.0055 4.61750046464
0.0045 0.0065 4.54409956353
0.0045 0.0075 4.47006240253
0.0045 0.0085 4.3976508038
0.0045 0.0095 4.32869452468
0.0045 0.0105 4.26442614958
0.0045 0.0115 4.2053998454
0.0045 0.0125 4.15156309939
0.0045 0.0135 4.10242472712
0.0045 0.0145 4.05724810412
0.0045 0.0155 4.01522358175
0.0045 0.0165 3.97558761947
0.0045 0.0175 3.93769129069
0.0045 0.0185 3.90103078317
0.0045 0.0195 3.86524324882
0.0045 0.0205 3.8300775539
0.0045 0.0215 3.79535634388
0.0045 0.0225 3.76094423547
0.0045 0.0235 3.72673281301
0.0045 0.0245 3.69264964289
0.0045 0.0255 3.65869557306
0.0045 0.0265 3.62502292151
0.0045 0.0275 3.59208927801
0.0045 0.0285 3.5609106764
0.0045 0.0295 3.53329668852
0.0045 0.0305 3.51183063445
0.0045 0.0315 3.49965022448
0.0055 -0.0315 5.19412320556
0.0055 -0.0305 5.18831511066
0.0055 -0.0295 5.18480385853
0.0055 -0.0285 5.18717933907
0.0055 -0.0275 5.19311094209
0.0055 -0.0265 5.20136864833
0.0055 -0.0255 5.22321529342
0.0055 -0.0245 5.18545347708
0.0055 -0.0235 4.83913985634
0.0055 -0.0225 4.14073295439
0.0055 -0.0215 3.470783042
0.0055 -0.0205 3.21677358696
0.0055 -0.0195 3.23978917254
0.0055 -0.0185 3.27113019641
0.0055 -0.0175 3.31466948216
0.0055 -0.0165 3.37684201594
0.0055 -0.0155 3.46564515221
0.0055 -0.0145 3.5887507783
0.0055 -0.0135 3.74525025766
0.0055 -0.0125 3.92496526531
0.0055 -0.0115 4.11186107635
0.0055 -0.0105 4.29114104374
0.0055 -0.0095 4.45205031097
0.0055 -0.0085 4.5891016464
0.0055 -0.0075 4.70140571088
0.0055 -0.0065 4.79087460372
0.0055 -0.0055 4.86066903219
0.0055 -0.0045 4.91427965972
0.0055 -0.0035 4.95477397406
0.0055 -0.0025 4.98395785587
0.0055 -0.0015 5.00196346687
0.0055 -0.0005 5.0073466783
0.0055 0.0005 4.99756267082
0.0055 0.0015 4.97006017614
0.0055 0.0025 4.92379418921
0.0055 0.0035 4.86036760715
0.0055 0.0045 4.78354387151
0.0055 0.0055 4.69781384438
0.0055 0.0065 4.60770107927
0.0055 0.0075 4.51740497464
0.0055 0.0085 4.43041141572
0.0055 0.0095 4.34918955252
0.0055 0.0105 4.27504777018
0.0055 0.0115 4.20827130466
0.0055 0.0125 4.14839521804
0.0055 0.0135 4.09449982339
0.0055 0.0145 4.04548531754
0.0055 0.0155 4.00026574388
0.0055 0.0165 3.95788433384
0.0055 0.0175 3.91757225546
0.0055 0.0185 3.87875773086
0.0055 0.0195 3.84103731142
0.0055 0.0205 3.80412740093
0.0055 0.0215 3.76781695355
0.0055 0.0225 3.73193926284
0.0055 0.0235 3.69637114974
0.0055 0.0245 3.66106106122
0.0055 0.0255 3.6260890387
0.0055 0.0265 3.59176813665
0.0055 0.0275 3.55878820095
0.0055 0.0285 3.52834570616
0.0055 0.0295 3.50215562777
0.0055 0.0305 3.4823430508
0.0055 0.0315 3.4713360333
0.0065 -0.0315 5.221848386
0.0065 -0.0305 5.2165949031
0.0065 -0.0295 5.21402293655
0.0065 -0.0285 5.21788921601
0.0065 -0.0275 5.22673939485
0.0065 -0.0265 5.23985377041
0.0065 -0.0255 5.25305060984
0.0065 -0.0245 5.23057595635
0.0065 -0.0235 5.00126010683
0.0065 -0.0225 4.44898182218
0.0065 -0.0215 3.74530203008
0.0065 -0.0205 3.33874901625
0.0065 -0.0195 3.29392024512
0.0065 -0.0185 3.33236542959
0.0065 -0.0175 3.39295125422
0.0065 -0.0165 3.46408037116
0.0065 -0.0155 3.55921906442
0.0065 -0.0145 3.68714012612
0.0065 -0.0135 3.84955020622
0.0065 -0.0125 4.03695562878
0.0065 -0.0115 4.23108374398
0.0065 -0.0105 4.41346775513
0.0065 -0.0095 4.57107903842
0.0065 -0.0085 4.69944565668
0.0065 -0.0075 4.80121794307
0.0065 -0.0065 4.88116809483
0.0065 -0.0055 4.94324872855
0.0065 -0.0045 4.99130064564
0.0065 -0.0035 5.02882421594
0.0065 -0.0025 5.05746159049
0.0065 -0.0015 5.07694855264
0.0065 -0.0005 5.08573627219
0.0065 0.0005 5.08127849375
0.0065 0.0015 5.0594910653
0.0065 0.0025 5.01574705099
0.0065 0.0035 4.94885656582
0.0065 0.0045 4.86242370614
0.0065 0.0055 4.76281530563
0.0065 0.0065 4.65724710645
0.0065 0.0075 4.55223593702
0.0065 0.0085 4.4526763266
0.0065 0.0095 4.36140319341
0.0065 0.0105 4.27947059784
0.0065 0.0115 4.20666924876
0.0065 0.0125 4.14200181933
0.0065 0.0135 4.08412853623
0.0065 0.0145 4.03166451892
0.0065 0.0155 3.98334684665
0.0065 0.0165 3.93813429113
0.0065 0.0175 3.8952402761
0.0065 0.0185 3.85410583598
0.0065 0.0195 3.81433614995
0.0065 0.0205 3.77563314224
0.0065 0.0215 3.73775287514
0.0065 0.0225 3.70049796075
0.0065 0.0235 3.66374109862
0.0065 0.0245 3.62747358608
0.0065 0.0255 3.59187647977
0.0065 0.0265 3.55740874418
0.0065 0.0275 3.52488356919
0.0065 0.0285 3.49548495032
0.0065 0.0295 3.47071411536
0.0065 0.0305 3.45231631866
0.0065 0.0315 3.44223881295
0.0075 -0.0315 5.25317310939
0.0075 -0.0305 5.24790872375
0.0075 -0.0295 5.24489532451
0.0075 -0.0285 5.24832768312
0.0075 -0.0275 5.25674662217
0.0075 -0.0265 5.26592538114
0.0075 -0.0255 5.26247907701
0.0075 -0.0245 5.25720972956
0.0075 -0.0235 5.15687576031
0.0075 -0.0225 4.75746159512
0.0075 -0.0215 4.10485577348
0.0075 -0.0205 3.55533792723
0.0075 -0.0195 3.37200082054
0.0075 -0.0185 3.41211578978
0.0075 -0.0175 3.4832416804
0.0075 -0.0165 3.56694333704
0.0075 -0.0155 3.66380828521
0.0075 -0.0145 3.78948008307
0.0075 -0.0135 3.94962128167
0.0075 -0.0125 4.13721515915
0.0075 -0.0115 4.33065690081
0.0075 -0.0105 4.50642572432
0.0075 -0.0095 4.65142081869
0.0075 -0.0085 4.76473097199
0.0075 -0.0075 4.85336003295
0.0075 -0.0065 4.9243990457
0.0075 -0.0055 4.98103510063
0.0075 -0.0045 5.02611269367
0.0075 -0.0035 5.06280710252
0.0075 -0.0025 5.09244080692
0.0075 -0.0015 5.11440835349
0.0075 -0.0005 5.12702979244
0.0075 0.0005 5.12819051271
0.0075 0.0015 5.1137409361
0.0075 0.0025 5.07586915888
0.0075 0.0035 5.00870520344
0.0075 0.0045 4.91482725421
0.0075 0.0055 4.80327798162
0.0075 0.0065 4.68482183011
0.0075 0.0075 4.56864590202
0.0075 0.0085 4.46047620791
0.0075 0.0095 4.36288439162
0.0075 0.0105 4.27631693632
0.0075 0.0115 4.19986108098
0.0075 0.0125 4.13201332394
0.0075 0.0135 4.07115046328
0.0075 0.0145 4.01574147691
0.0075 0.0155 3.96450070937
0.0075 0.0165 3.91645744959
0.0075 0.0175 3.87093472326
0.0075 0.0185 3.82746485122
0.0075 0.0195 3.78568786846
0.0075 0.0205 3.74528615017
0.0075 0.0215 3.70597263373
0.0075 0.0225 3.66751900802
0.0075 0.0235 3.62980506318
0.0075 0.0245 3.59287701102
0.0075 0.0255 3.55700706614
0.0075 0.0265 3.52274024368
0.0075 0.0275 3.4909067561
0.0075 0.0285 3.46259258103
0.0075 0.0295 3.43908977961
0.0075 0.0305 3.42185741956
0.0075 0.0315 3.41251122461
0.0085 -0.0315 5.28735339405
0.0085 -0.0305 5.28177648683
0.0085 -0.0295 5.27766797404
0.0085 -0.0285 5.28003385796
0.0085 -0.0275 5.2881766758
0.0085 -0.0265 5.29745042692
0.0085 -0.0255 5.29920843295
0.0085 -0.0245 5.3212629539
0.0085 -0.0235 5.29807162299
0.0085 -0.0225 5.02755651966
0.0085 -0.0215 4.49437659065
0.0085 -0.0205 3.89785109007
0.0085 -0.0195 3.54840267385
0.0085 -0.0185 3.52237820703
0.0085 -0.0175 3.59621792355
0.0085 -0.0165 3.67682899763
0.0085 -0.0155 3.77192785498
0.0085 -0.0145 3.88741718322
0.0085 -0.0135 4.03574591983
0.0085 -0.0125 4.21436573472
0.0085 -0.0115 4.39777201896
0.0085 -0.0105 4.55842915441
0.0085 -0.0095 4.68665323863
0.0085 -0.0085 4.78663456193
0.0085 -0.0075 4.86664156898
0.0085 -0.0065 4.93369771306
0.0085 -0.0055 4.98982402688
0.0085 -0.0045 5.03595278109
0.0085 -0.0035 5.07423585652
0.0085 -0.0025 5.10600370257
0.0085 -0.0015 5.13086167725
0.0085 -0.0005 5.147243513
0.0085 0.0005 5.1523946051
0.0085 0.0015 5.14118633393
0.0085 0.0025 5.10497479802
0.0085 0.0035 5.03553862952
0.0085 0.0045 4.93398350188
0.0085 0.0055 4.81213761244
0.0085 0.0065 4.68485245425
0.0085 0.0075 4.56288203294
0.0085 0.0085 4.45151438555
0.0085 0.0095 4.35243208141
0.0085 0.0105 4.2649506524
0.0085 0.0115 4.1874488788
0.0085 0.0125 4.118150734
0.0085 0.0135 4.05531659003
0.0085 0.0145 3.99746860578
0.0085 0.0155 3.94351907448
0.0085 0.0165 3.89275921395
0.0085 0.0175 3.84474520662
0.0085 0.0185 3.79913492476
0.0085 0.0195 3.75558098225
0.0085 0.0205 3.7137154603
0.0085 0.0215 3.67319486407
0.0085 0.0225 3.6337665254
0.0085 0.0235 3.59533117566
0.0085 0.0245 3.55799188326
0.0085 0.0255 3.52208481762
0.0085 0.0265 3.48818502087
0.0085 0.0275 3.45708513926
0.0085 0.0285 3.42975822616
0.0085 0.0295 3.40732320774
0.0085 0.0305 3.39102773805
0.0085 0.0315 3.38225344568
0.0095 -0.0315 5.32381523031
0.0095 -0.0305 5.31820231141
0.0095 -0.0295 5.31337637056
0.0095 -0.0285 5.31493336291
0.0095 -0.0275 5.32380213776
0.0095 -0.0265 5.33799461551
0.0095 -0.0255 5.35479304541
0.0095 -0.0245 5.37803494288
0.0095 -0.0235 5.37600453481
0.0095 -0.0225 5.24325240314
0.0095 -0.0215 4.87550592941
0.0095 -0.0205 4.33379556234
0.0095 -0.0195 3.86044200672
0.0095 -0.0185 3.6790418369
0.0095 -0.0175 3.71511005615
0.0095 -0.0165 3.78774854297
0.0095 -0.0155 3.8724980933
0.0095 -0.0145 3.97489659289
0.0095 -0.0135 4.10462909114
0.0095 -0.0125 4.26235855577
0.0095 -0.0115 4.42559894528
0.0095 -0.0105 4.56880651152
0.0095 -0.0095 4.68529271749
0.0095 -0.0085 4.78066108717
0.0095 -0.0075 4.86005729451
0.0095 -0.0065 4.92878328765
0.0095 -0.0055 4.98868582816
0.0095 -0.0045 5.03852965947
0.0095 -0.0035 5.07912424536
0.0095 -0.0025 5.11286013483
0.0095 -0.0015 5.14040970696
0.0095 -0.0005 5.16030850095
0.0095 0.0005 5.16781930998
0.0095 0.0015 5.15392078233
0.0095 0.0025 5.10964054929
0.0095 0.0035 5.02953894215
0.0095 0.0045 4.91685772499
0.0095 0.0055 4.786933523
0.0095 0.0065 4.65620944208
0.0095 0.0075 4.53446501084
0.0095 0.0085 4.42593451492
0.0095 0.0095 4.33019916205
0.0095 0.0105 4.24529737323
0.0095 0.0115 4.16926050681
0.0095 0.0125 4.10010231246
0.0095 0.0135 4.03616005273
0.0095 0.0145 3.97630510396
0.0095 0.0155 3.91992648634
0.0095 0.0165 3.86677750505
0.0095 0.0175 3.81669213018
0.0095 0.0185 3.7693937984
0.0095 0.0195 3.72447677948
0.0095 0.0205 3.68148661111
0.0095 0.0215 3.64002618402
0.0095 0.0225 3.59984136043
0.0095 0.0235 3.56087305868
0.0095 0.0245 3.52328098183
0.0095 0.0255 3.48744326758
0.0095 0.0265 3.45393540579
0.0095 0.0275 3.42349706546
0.0095 0.0285 3.39699966994
0.0095 0.0295 3.37542591795
0.0095 0.0305 3.35986670479
0.0095 0.0315 3.35153457241
0.0105 -0.0315 5.36211734261
0.0105 -0.0305 5.35705536406
0.0105 -0.0295 5.35247432973
0.0105 -0.0285 5.35389242301
0.0105 -0.0275 5.36415600487
0.0105 -0.0265 5.38224286053
0.0105 -0.0255 5.40403002973
0.0105 -0.0245 5.41710702766
0.0105 -0.0235 5.44188824462
0.0105 -0.0225 5.42343582981
0.0105 -0.0215 5.2062873261
0.0105 -0.0205 4.78287672782
0.0105 -0.0195 4.29190147948
0.0105 -0.0185 3.93879828377
0.0105 -0.0175 3.84050912865
0.0105 -0.0165 3.88890774115
0.0105 -0.0155 3.96499659211
0.0105 -0.0145 4.05166281189
0.0105 -0.0135 4.1562984888
0.0105 -0.0125 4.28341888045
0.0105 -0.0115 4.42383553895
0.0105 -0.0105 4.55446691711
0.0105 -0.0095 4.66669668433
0.0105 -0.0085 4.76500688935
0.0105 -0.0075 4.84918034163
0.0105 -0.0065 4.92016001327
0.0105 -0.0055 4.98170471219
0.0105 -0.0045 5.03246114831
0.0105 -0.0035 5.07314654204
0.0105 -0.0025 5.10796633136
0.0105 -0.0015 5.13922674236
0.0105 -0.0005 5.16475977512
0.0105 0.0005 5.17531266923
0.0105 0.0015 5.15515348441
0.0105 0.0025 5.09457274986
0.0105 0.0035 4.99608421183
0.0105 0.0045 4.86860880271
0.0105 0.0055 4.7306233599
0.0105 0.0065 4.60135519386
0.0105 0.0075 4.48699847016
0.0105 0.0085 4.38635550214
0.0105 0.0095 4.29734851582
0.0105 0.0105 4.21784864805
0.0105 0.0115 4.14524467586
0.0105 0.0125 4.07734095165
0.0105 0.0135 4.01285542935
0.0105 0.0145 3.95135682102
0.0105 0.0155 3.89305185019
0.0105 0.0165 3.83822425849
0.0105 0.0175 3.78684624141
0.0105 0.0185 3.73855815108
0.0105 0.0195 3.69281700738
0.0105 0.0205 3.64907842997
0.0105 0.0215 3.60693034883
0.0105 0.0225 3.56615944387
0.0105 0.0235 3.52677296008
0.0105 0.0245 3.4889930294
0.0105 0.0255 3.45323162075
0.0105 0.0265 3.42005545128
0.0105 0.0275 3.39015236921
0.0105 0.0285 3.36430850022
0.0105 0.0295 3.34340048763
0.0105 0.0305 3.32840240601
0.0105 0.0315 3.32040398229
0.0115 -0.0315 5.40177432532
0.0115 -0.0305 5.39812121022
0.0115 -0.0295 5.3951761605
0.0115 -0.0285 5.39743750275
0.0115 -0.0275 5.40855456145
0.0115 -0.0265 5.42805980935
0.0115 -0.0255 5.45327688033
0.0115 -0.0245 5.4789459052
0.0115 -0.0235 5.51783704508
0.0115 -0.0225 5.5413520781
0.0115 -0.0215 5.46116553267
0.0115 -0.0205 5.19584306662
0.0115 -0.0195 4.77632644258
0.0115 -0.0185 4.35059151416
0.0115 -0.0175 4.07513362426
0.0115 -0.0165 4.00082092336
0.0115 -0.0155 4.04869221656
0.0115 -0.0145 4.11910235045
0.0115 -0.0135 4.1891596538
0.0115 -0.0125 4.28856583764
0.0115 -0.0115 4.41056458151
0.0115 -0.0105 4.53380140898
0.0115 -0.0095 4.64397396915
0.0115 -0.0085 4.74161491851
0.0115 -0.0075 4.82330398719
0.0115 -0.0065 4.88452269436
0.0115 -0.0055 4.93000211241
0.0115 -0.0045 4.96304457846
0.0115 -0.0035 4.99003377481
0.0115 -0.0025 5.01891238396
0.0115 -0.0015 5.05376241266
0.0115 -0.0005 5.09142079349
0.0115 0.0005 5.11775610969
0.0115 0.0015 5.10939041684
0.0115 0.0025 5.04919221683
0.0115 0.0035 4.93900672308
0.0115 0.0045 4.79787295236
0.0115 0.0055 4.65586446996
0.0115 0.0065 4.53188127621
0.0115 0.0075 4.42621977215
0.0115 0.0085 4.33553300321
0.0115 0.0095 4.25599971049
0.0115 0.0105 4.18356881367
0.0115 0.0115 4.11520678604
0.0115 0.0125 4.04893695117
0.0115 0.0135 3.98408420609
0.0115 0.0145 3.92148162383
0.0115 0.0155 3.86228262463
0.0115 0.0165 3.80699575876
0.0115 0.0175 3.75543550186
0.0115 0.0185 3.70699951463
0.0115 0.0195 3.66099135133
0.0115 0.0205 3.61684239489
0.0115 0.0215 3.57419988294
0.0115 0.0225 3.53294612661
0.0115 0.0235 3.49318671842
0.0115 0.0245 3.4552182149
0.0115 0.0255 3.4194858583
0.0115 0.0265 3.38654491966
0.0115 0.0275 3.35703522796
0.0115 0.0285 3.3316717671
0.0115 0.0295 3.31124922835
0.0115 0.0305 3.29665649963
0.0115 0.0315 3.28889723079
0.0125 -0.0315 5.44232853006
0.0125 -0.0305 5.44117441661
0.0125 -0.0295 5.44145522791
0.0125 -0.0285 5.44609052575
0.0125 -0.0275 5.45782948946
0.0125 -0.0265 5.47821221195
0.0125 -0.0255 5.50810267808
0.0125 -0.0245 5.54592480691
0.0125 -0.0235 5.57996043712
0.0125 -0.0225 5.62638450558
0.0125 -0.0215 5.64737439424
0.0125 -0.0205 5.52770352441
0.0125 -0.0195 5.2405951261
0.0125 -0.0185 4.86308492292
0.0125 -0.0175 4.50616851529
0.0125 -0.0165 4.27012325794
0.0125 -0.0155 4.1830239211
0.0125 -0.0145 4.17959797937
0.0125 -0.0135 4.21574485638
0.0125 -0.0125 4.29315064798
0.0125 -0.0115 4.39861631636
0.0125 -0.0105 4.51391951251
0.0125 -0.0095 4.6173655355
0.0125 -0.0085 4.69840404829
0.0125 -0.0075 4.75105947354
0.0125 -0.0065 4.77280711226
0.0125 -0.0055 4.77150599771
0.0125 -0.0045 4.75961200064
0.0125 -0.0035 4.75160649205
0.0125 -0.0025 4.75946708748
0.0125 -0.0015 4.78956551208
0.0125 -0.0005 4.83790438437
0.0125 0.0005 4.88920030749
0.0125 0.0015 4.91920498425
0.0125 0.0025 4.9022453952
0.0125 0.0035 4.8246525284
0.0125 0.0045 4.70369774246
0.0125 0.0055 4.57526592365
0.0125 0.0065 4.45945574295
0.0125 0.0075 4.36102731702
0.0125 0.0085 4.27882625569
0.0125 0.0095 4.20816098956
0.0125 0.0105 4.14304925737
0.0125 0.0115 4.07855340776
0.0125 0.0125 4.01326695379
0.0125 0.0135 3.94821087681
0.0125 0.0145 3.88578364557
0.0125 0.0155 3.82744234015
0.0125 0.0165 3.77335609177
0.0125 0.0175 3.72286815173
0.0125 0.0185 3.67508579482
0.0125 0.0195 3.62927404713
0.0125 0.0205 3.58496102938
0.0125 0.0215 3.54194036744
0.0125 0.0225 3.5002489454
0.0125 0.0235 3.46012335243
0.0125 0.0245 3.42194352944
0.0125 0.0255 3.38618318221
0.0125 0.0265 3.35338006872
0.0125 0.0275 3.32412751388
0.0125 0.0285 3.29908158138
0.0125 0.0295 3.27897685064
0.0125 0.0305 3.26464574222
0.0125 0.0315 3.25703891802
0.0135 -0.0315 5.4834478002
0.0135 -0.0305 5.48592680857
0.0135 -0.0295 5.49142193508
0.0135 -0.0285 5.50079647004
0.0135 -0.0275 5.51532038791
0.0135 -0.0265 5.53746655877
0.0135 -0.0255 5.5690449647
0.0135 -0.0245 5.60931014087
0.0135 -0.0235 5.653656652
0.0135 -0.0225 5.7111734407
0.0135 -0.0215 5.77312298408
0.0135 -0.0205 5.7647418482
0.0135 -0.0195 5.61907289369
0.0135 -0.0185 5.36784988052
0.0135 -0.0175 5.08341589962
0.0135 -0.0165 4.81873185178
0.0135 -0.0155 4.61227038244
0.0135 -0.0145 4.48552535547
0.0135 -0.0135 4.43729590226
0.0135 -0.0125 4.45323837272
0.0135 -0.0115 4.51646424117
0.0135 -0.0105 4.5946149625
0.0135 -0.0095 4.65201456481
0.0135 -0.0085 4.66695952494
0.0135 -0.0075 4.63770032623
0.0135 -0.0065 4.57600818697
0.0135 -0.0055 4.50039215397
0.0135 -0.0045 4.43136983306
0.0135 -0.0035 4.38306616097
0.0135 -0.0025 4.36450236346
0.0135 -0.0015 4.38191307048
0.0135 -0.0005 4.43279437555
0.0135 0.0005 4.50416348086
0.0135 0.0015 4.57419909366
0.0135 0.0025 4.61656418039
0.0135 0.0035 4.61050698609
0.0135 0.0045 4.55737348325
0.0135 0.0055 4.47520883933
0.0135 0.0065 4.3840050685
0.0135 0.0075 4.29813603386
0.0135 0.0085 4.22270969701
0.0135 0.0095 4.15767591787
0.0135 0.0105 4.09701077461
0.0135 0.0115 4.03384886323
0.0135 0.0125 3.96837022193
0.0135 0.0135 3.90434943112
0.0135 0.0145 3.84432294412
0.0135 0.0155 3.78911653924
0.0135 0.0165 3.73796989641
0.0135 0.0175 3.68961463807
0.0135 0.0185 3.64307403618
0.0135 0.0195 3.59776149169
0.0135 0.0205 3.55341946151
0.0135 0.0215 3.51007328092
0.0135 0.0225 3.46796989754
0.0135 0.0235 3.42749582192
0.0135 0.0245 3.38910568079
0.0135 0.0255 3.35328388583
0.0135 0.0265 3.3205390703
0.0135 0.0275 3.29141951709
0.0135 0.0285 3.26653670684
0.0135 0.0295 3.24658882478
0.0135 0.0305 3.23238115714
0.0135 0.0315 3.2248436572
0.0145 -0.0315 5.52474413726
0.0145 -0.0305 5.53199593991
0.0145 -0.0295 5.54501441459
0.0145 -0.0285 5.56234567643
0.0145 -0.0275 5.5834002837
0.0145 -0.0265 5.60858189211
0.0145 -0.0255 5.63957086152
0.0145 -0.0245 5.67848369213
0.0145 -0.0235 5.7287806715
0.0145 -0.0225 5.78571442738
0.0145 -0.0215 5.85511646496
0.0145 -0.0205 5.90543205968
0.0145 -0.0195 5.87246504073
0.0145 -0.0185 5.76574285945
0.0145 -0.0175 5.65115435957
0.0145 -0.0165 5.54769605997
0.0145 -0.0155 5.43219268442
0.0145 -0.0145 5.30219384554
0.0145 -0.0135 5.17663665001
0.0145 -0.0125 5.0793057556
0.0145 -0.0115 5.00618853719
0.0145 -0.0105 4.92869548687
0.0145 -0.0095 4.81887675793
0.0145 -0.0085 4.67559590638
0.0145 -0.0075 4.51741402134
0.0145 -0.0065 4.36245882488
0.0145 -0.0055 4.22730620382
0.0145 -0.0045 4.12201710503
0.0145 -0.0035 4.04916616218
0.0145 -0.0025 4.00914514322
0.0145 -0.0015 4.00307923327
0.0145 -0.0005 4.03199661483
0.0145 0.0005 4.09490977699
0.0145 0.0015 4.18096971847
0.0145 0.0025 4.26595889325
0.0145 0.0035 4.3250612539
0.0145 0.0045 4.34647373038
0.0145 0.0055 4.33181388115
0.0145 0.0065 4.28985444206
0.0145 0.0075 4.23190144903
0.0145 0.0085 4.16865715896
0.0145 0.0095 4.10657073495
0.0145 0.0105 4.04519247356
0.0145 0.0115 3.98008462045
0.0145 0.0125 3.91438737615
0.0145 0.0135 3.85366930748
0.0145 0.0145 3.79867557035
0.0145 0.0155 3.74869628143
0.0145 0.0165 3.70164394525
0.0145 0.0175 3.65601888835
0.0145 0.0185 3.61102082988
0.0145 0.0195 3.5663280195
0.0145 0.0205 3.52199670935
0.0145 0.0215 3.478365406
0.0145 0.0225 3.43592092758
0.0145 0.0235 3.39518142375
0.0145 0.0245 3.356639559
0.0145 0.0255 3.32076078162
0.0145 0.0265 3.28801388827
0.0145 0.0275 3.25891017466
0.0145 0.0285 3.23403769603
0.0145 0.0295 3.21408650781
0.0145 0.0305 3.19986574759
0.0145 0.0315 3.19231615678
0.0155 -0.0315 5.56560441164
0.0155 -0.0305 5.57876303574
0.0155 -0.0295 5.60167379792
0.0155 -0.0285 5.63057648341
0.0155 -0.0275 5.66222267496
0.0155 -0.0265 5.69429301218
0.0155 -0.0255 5.72746800355
0.0155 -0.0245 5.76473958394
0.0155 -0.0235 5.81121400191
0.0155 -0.0225 5.86775677887
0.0155 -0.0215 5.92353853006
0.0155 -0.0205 5.97790249509
0.0155 -0.0195 6.0004231045
0.0155 -0.0185 5.99519679342
0.0155 -0.0175 6.06800982814
0.0155 -0.0165 6.23886489028
0.0155 -0.0155 6.40031901272
0.0155 -0.0145 6.45280923696
0.0155 -0.0135 6.35845962536
0.0155 -0.0125 6.13691587485
0.0155 -0.0115 5.82692881188
0.0155 -0.0105 5.46340524564
0.0155 -0.0095 5.08452299909
0.0155 -0.0085 4.73921870482
0.0155 -0.0075 4.45988486652
0.0155 -0.0065 4.24525422473
0.0155 -0.0055 4.08508194181
0.0155 -0.0045 3.96930891408
0.0155 -0.0035 3.88919908935
0.0155 -0.0025 3.83786294874
0.0155 -0.0015 3.80989021421
0.0155 -0.0005 3.80386087531
0.0155 0.0005 3.82426124725
0.0155 0.0015 3.87476447418
0.0155 0.0025 3.95065294658
0.0155 0.0035 4.03545762545
0.0155 0.0045 4.10766636363
0.0155 0.0055 4.15101428548
0.0155 0.0065 4.16234775416
0.0155 0.0075 4.14614856975
0.0155 0.0085 4.10679772461
0.0155 0.0095 4.05077851383
0.0155 0.0105 3.98519915702
0.0155 0.0115 3.91687806372
0.0155 0.0125 3.85385911413
0.0155 0.0135 3.79970188411
0.0155 0.0145 3.75183502381
0.0155 0.0155 3.7077288737
0.0155 0.0165 3.66497651999
0.0155 0.0175 3.62217827128
0.0155 0.0185 3.57871794482
0.0155 0.0195 3.53459724727
0.0155 0.0205 3.49029190974
0.0155 0.0215 3.44649800556
0.0155 0.0225 3.40390263327
0.0155 0.0235 3.36308457394
0.0155 0.0245 3.32451500416
0.0155 0.0255 3.28861258303
0.0155 0.0265 3.255808383
0.0155 0.0275 3.2265981587
0.0155 0.0285 3.20157730052
0.0155 0.0295 3.1814605489
0.0155 0.0305 3.16709191189
0.0155 0.0315 3.15945146527
0.0165 -0.0315 5.60528016568
0.0165 -0.0305 5.625357668
0.0165 -0.0295 5.66020856389
0.0165 -0.0285 5.70371506619
0.0165 -0.0275 5.75014884543
0.0165 -0.0265 5.7950975726
0.0165 -0.0255 5.83677718503
0.0165 -0.0245 5.87606015767
0.0165 -0.0235 5.9152101125
0.0165 -0.0225 5.95472247594
0.0165 -0.0215 5.98920451166
0.0165 -0.0205 6.02088667016
0.0165 -0.0195 6.04233098438
0.0165 -0.0185 6.07109949579
0.0165 -0.0175 6.27638345175
0.0165 -0.0165 6.72987211776
0.0165 -0.0155 7.23807570735
0.0165 -0.0145 7.5604330488
0.0165 -0.0135 7.55356420611