% Model:              Benchmark260518.mph
% Version:            COMSOL 6.2.0.339
% Date:               May 21 2026, 11:41
% Dimension:          2
% Nodes:              4096
% Expressions:        1
% Description:        压力
% Length unit:        m
% x                       y                        p (Pa)
5.0E-4                    -0.0315                  3.7123984886535846
5.0E-4                    -0.0305                  3.7397950828728628
5.0E-4                    -0.0295                  3.77714518958188
5.0E-4                    -0.0285                  3.818032929637046
5.0E-4                    -0.0275                  3.861468256204974
5.0E-4                    -0.0265                  3.907561211726545
5.0E-4                    -0.0255                  3.956804380464853
5.0E-4                    -0.0245                  4.009950927090214
5.0E-4                    -0.0235                  4.067862807687559
5.0E-4                    -0.0225                  4.131336982988596
5.0E-4                    -0.0215                  4.199671553837919
5.0E-4                    -0.0205                  4.268639568369949
5.0E-4                    -0.0195                  4.332585897426572
5.0E-4                    -0.0185                  4.38371801801896
5.0E-4                    -0.0175                  4.417654764977242
5.0E-4                    -0.0165                  4.438976718360383
5.0E-4                    -0.0155                  4.455470709822883
5.0E-4                    -0.0145                  4.4742405470133875
5.0E-4                    -0.0135                  4.499046029865443
5.0E-4                    -0.0125                  4.529968793737893
5.0E-4                    -0.0115                  4.564995416873508
5.0E-4                    -0.0105                  4.60157450641227
5.0E-4                    -0.0095                  4.637578947097202
5.0E-4                    -0.0085                  4.671781601931628
5.0E-4                    -0.0075                  4.703489364305898
5.0E-4                    -0.0065                  4.730552174593932
5.0E-4                    -0.0055                  4.747783609498857
5.0E-4                    -0.0045                  4.751250962941555
5.0E-4                    -0.0035                  4.74527820978493
5.0E-4                    -0.0025                  4.738408848987937
5.0E-4                    -0.0015                  4.73396738030317
5.0E-4                    -5.0E-4                  4.740631239809206
5.0E-4                    5.0E-4                   4.780022410570244
5.0E-4                    0.0015                   4.84971499814713
5.0E-4                    0.0025                   4.915066425111766
5.0E-4                    0.0035                   4.959067789907754
5.0E-4                    0.0045                   4.987480997189313
5.0E-4                    0.0055                   5.006319318135477
5.0E-4                    0.0065                   5.01837022174664
5.0E-4                    0.0075                   5.022462160284135
5.0E-4                    0.0085                   5.017431053222607
5.0E-4                    0.0095                   5.006560787382822
5.0E-4                    0.0105                   4.994035261067923
5.0E-4                    0.0115                   4.97877112753352
5.0E-4                    0.0125                   4.961522618371413
5.0E-4                    0.0135                   4.945402141428998
5.0E-4                    0.0145                   4.928076615480167
5.0E-4                    0.0155                   4.8961748254771
5.0E-4                    0.0165                   4.848385016477371
5.0E-4                    0.0175                   4.815712881058387
5.0E-4                    0.0185                   4.798254484607705
5.0E-4                    0.0195                   4.769841371648871
5.0E-4                    0.0205                   4.724087999627824
5.0E-4                    0.0215                   4.663559094840626
5.0E-4                    0.0225                   4.594938197858822
5.0E-4                    0.0235                   4.523870374152541
5.0E-4                    0.0245                   4.455035541250779
5.0E-4                    0.0255                   4.389702717867793
5.0E-4                    0.0265                   4.327714359600094
5.0E-4                    0.0275                   4.268790923952288
5.0E-4                    0.0285                   4.212751692005904
5.0E-4                    0.0295                   4.159738816796073
5.0E-4                    0.0305                   4.111169157803597
5.0E-4                    0.0315                   4.075577285989833
0.0015                    -0.0315                  3.684408567229134
0.0015                    -0.0305                  3.7109566961424463
0.0015                    -0.0295                  3.7491701790474417
0.0015                    -0.0285                  3.79038383297524
0.0015                    -0.0275                  3.8326186327092193
0.0015                    -0.0265                  3.8761243632604647
0.0015                    -0.0255                  3.9219763013112385
0.0015                    -0.0245                  3.9718047055920227
0.0015                    -0.0235                  4.027601427476815
0.0015                    -0.0225                  4.091183812039887
0.0015                    -0.0215                  4.162733420352729
0.0015                    -0.0205                  4.238190146579351
0.0015                    -0.0195                  4.310523770184139
0.0015                    -0.0185                  4.368406274327507
0.0015                    -0.0175                  4.405925138191461
0.0015                    -0.0165                  4.429263609226865
0.0015                    -0.0155                  4.447205858785605
0.0015                    -0.0145                  4.46760802354052
0.0015                    -0.0135                  4.494373460687186
0.0015                    -0.0125                  4.527078172021371
0.0015                    -0.0115                  4.5634749894627005
0.0015                    -0.0105                  4.600981156846697
0.0015                    -0.0095                  4.637215268800186
0.0015                    -0.0085                  4.670333136446624
0.0015                    -0.0075                  4.699618513621823
0.0015                    -0.0065                  4.724843534600545
0.0015                    -0.0055                  4.742216916446821
0.0015                    -0.0045                  4.746118261427036
0.0015                    -0.0035                  4.740464792770213
0.0015                    -0.0025                  4.735457556079524
0.0015                    -0.0015                  4.735009120934976
0.0015                    -5.0E-4                  4.734862788250132
0.0015                    5.0E-4                   4.769236905536084
0.0015                    0.0015                   4.839967520210764
0.0015                    0.0025                   4.899110467047597
0.0015                    0.0035                   4.936346743123409
0.0015                    0.0045                   4.95804970155928
0.0015                    0.0055                   4.972374814147258
0.0015                    0.0065                   4.983345585724909
0.0015                    0.0075                   4.991329108617551
0.0015                    0.0085                   4.9937054726056695
0.0015                    0.0095                   4.986804986553553
0.0015                    0.0105                   4.97062927087851
0.0015                    0.0115                   4.949089053012424
0.0015                    0.0125                   4.927907081223064
0.0015                    0.0135                   4.9092641808625
0.0015                    0.0145                   4.889003249073958
0.0015                    0.0155                   4.8592739919801335
0.0015                    0.0165                   4.829600204385548
0.0015                    0.0175                   4.81067986570235
0.0015                    0.0185                   4.791464796770736
0.0015                    0.0195                   4.761040080287814
0.0015                    0.0205                   4.712049701890683
0.0015                    0.0215                   4.64594329648627
0.0015                    0.0225                   4.571231664938988
0.0015                    0.0235                   4.495448999522844
0.0015                    0.0245                   4.424158455886872
0.0015                    0.0255                   4.3584360154345
0.0015                    0.0265                   4.297093454092675
0.0015                    0.0275                   4.238530364981345
0.0015                    0.0285                   4.181603917095167
0.0015                    0.0295                   4.126144571493358
0.0015                    0.0305                   4.074917888083287
0.0015                    0.0315                   4.039602609436905
0.0025                    -0.0315                  3.646077648351677
0.0025                    -0.0305                  3.668475933847996
0.0025                    -0.0295                  3.7036383484697186
0.0025                    -0.0285                  3.7427126387422094
0.0025                    -0.0275                  3.7818608109134217
0.0025                    -0.0265                  3.8206839594327495
0.0025                    -0.0255                  3.860657463470711
0.0025                    -0.0245                  3.904488108161725
0.0025                    -0.0235                  3.955649716249413
0.0025                    -0.0225                  4.017355302370907
0.0025                    -0.0215                  4.090677291679902
0.0025                    -0.0205                  4.172239821432707
0.0025                    -0.0195                  4.254351851011437
0.0025                    -0.0185                  4.322599057026336
0.0025                    -0.0175                  4.369395088194444
0.0025                    -0.0165                  4.4014744639612
0.0025                    -0.0155                  4.4276122716721105
0.0025                    -0.0145                  4.455014999056536
0.0025                    -0.0135                  4.487027625953544
0.0025                    -0.0125                  4.5233904794484445
0.0025                    -0.0115                  4.562363615729986
0.0025                    -0.0105                  4.601729602590779
0.0025                    -0.0095                  4.63914016222531
0.0025                    -0.0085                  4.672295105332448
0.0025                    -0.0075                  4.69988542517441
0.0025                    -0.0065                  4.722750949047613
0.0025                    -0.0055                  4.738839695679455
0.0025                    -0.0045                  4.741458720227026
0.0025                    -0.0035                  4.734678245739237
0.0025                    -0.0025                  4.7315261038819045
0.0025                    -0.0015                  4.735268316891252
0.0025                    -5.0E-4                  4.749217944185109
0.0025                    5.0E-4                   4.790491476846459
0.0025                    0.0015                   4.846850084769259
0.0025                    0.0025                   4.890861498980574
0.0025                    0.0035                   4.918741651984386
0.0025                    0.0045                   4.934836717616128
0.0025                    0.0055                   4.9463213265254025
0.0025                    0.0065                   4.9562678947559595
0.0025                    0.0075                   4.964086635274441
0.0025                    0.0085                   4.966761424183703
0.0025                    0.0095                   4.960154986247056
0.0025                    0.0105                   4.943441846309248
0.0025                    0.0115                   4.921723534660027
0.0025                    0.0125                   4.9002010353159395
0.0025                    0.0135                   4.879462598544038
0.0025                    0.0145                   4.857204101686411
0.0025                    0.0155                   4.8323318388948735
0.0025                    0.0165                   4.808065536315361
0.0025                    0.0175                   4.787324033197381
0.0025                    0.0185                   4.764246791013189
0.0025                    0.0195                   4.7287598464377245
0.0025                    0.0205                   4.672967249653233
0.0025                    0.0215                   4.599058347456163
0.0025                    0.0225                   4.517580283324713
0.0025                    0.0235                   4.437872413136258
0.0025                    0.0245                   4.365827402093593
0.0025                    0.0255                   4.301587035255492
0.0025                    0.0265                   4.242358511266373
0.0025                    0.0275                   4.185104562049204
0.0025                    0.0285                   4.127997683137391
0.0025                    0.0295                   4.071710225592415
0.0025                    0.0305                   4.0217236533083645
0.0025                    0.0315                   3.9903723397847446
0.0035                    -0.0315                  3.6043650864364745
0.0035                    -0.0305                  3.621854980060135
0.0035                    -0.0295                  3.6509779425639732
0.0035                    -0.0285                  3.6848315796230735
0.0035                    -0.0275                  3.718993141360114
0.0035                    -0.0265                  3.752088534100754
0.0035                    -0.0255                  3.785304093733183
0.0035                    -0.0245                  3.821851839780339
0.0035                    -0.0235                  3.8661931619717333
0.0035                    -0.0225                  3.922722665820761
0.0035                    -0.0215                  3.9934064243580107
0.0035                    -0.0205                  4.07624814608897
0.0035                    -0.0195                  4.164442951004166
0.0035                    -0.0185                  4.244202576237635
0.0035                    -0.0175                  4.3077069473649265
0.0035                    -0.0165                  4.358006462658661
0.0035                    -0.0155                  4.399520748887092
0.0035                    -0.0145                  4.437967018069889
0.0035                    -0.0135                  4.477933965831591
0.0035                    -0.0125                  4.520536283242401
0.0035                    -0.0115                  4.564642694164934
0.0035                    -0.0105                  4.608471772643968
0.0035                    -0.0095                  4.6500307365937275
0.0035                    -0.0085                  4.686895229857212
0.0035                    -0.0075                  4.716707445310333
0.0035                    -0.0065                  4.738879884946159
0.0035                    -0.0055                  4.751700500351349
0.0035                    -0.0045                  4.749795032010154
0.0035                    -0.0035                  4.739457783730917
0.0035                    -0.0025                  4.736003874695902
0.0035                    -0.0015                  4.744124314234356
0.0035                    -5.0E-4                  4.768713532283115
0.0035                    5.0E-4                   4.811400587629921
0.0035                    0.0015                   4.855265793517344
0.0035                    0.0025                   4.886279231858545
0.0035                    0.0035                   4.904613676315777
0.0035                    0.0045                   4.915485404191615
0.0035                    0.0055                   4.924156614915024
0.0035                    0.0065                   4.932042439839881
0.0035                    0.0075                   4.937194710703612
0.0035                    0.0085                   4.935433941167205
0.0035                    0.0095                   4.9239527835753005
0.0035                    0.0105                   4.904963675407522
0.0035                    0.0115                   4.883925071463113
0.0035                    0.0125                   4.86419320786001
0.0035                    0.0135                   4.84468493186157
0.0035                    0.0145                   4.822671582339324
0.0035                    0.0155                   4.797684599437593
0.0035                    0.0165                   4.771548522631875
0.0035                    0.0175                   4.744674085463172
0.0035                    0.0185                   4.713120192282836
0.0035                    0.0195                   4.668513043436128
0.0035                    0.0205                   4.602269848359551
0.0035                    0.0215                   4.519667836657248
0.0035                    0.0225                   4.43465539221734
0.0035                    0.0235                   4.356282822802114
0.0035                    0.0245                   4.288346477959212
0.0035                    0.0255                   4.228845962521302
0.0035                    0.0265                   4.173585604119034
0.0035                    0.0275                   4.118865080109147
0.0035                    0.0285                   4.063352585069282
0.0035                    0.0295                   4.009348650843718
0.0035                    0.0305                   3.9637057162249034
0.0035                    0.0315                   3.9368094405961456
0.0045                    -0.0315                  3.560867044793812
0.0045                    -0.0305                  3.573972953426296
0.0045                    -0.0295                  3.5965777702350517
0.0045                    -0.0285                  3.6239018440958555
0.0045                    -0.0275                  3.652265692751281
0.0045                    -0.0265                  3.6799250408442274
0.0045                    -0.0255                  3.70736545543157
0.0045                    -0.0245                  3.7373376815180417
0.0045                    -0.0235                  3.774515631605145
0.0045                    -0.0225                  3.8235806573457523
0.0045                    -0.0215                  3.8876680437191533
0.0045                    -0.0205                  3.9669535994026233
0.0045                    -0.0195                  4.05520038916851
0.0045                    -0.0185                  4.143190011143582
0.0045                    -0.0175                  4.225526855327276
0.0045                    -0.0165                  4.298611676651212
0.0045                    -0.0155                  4.35964421994929
0.0045                    -0.0145                  4.4129377980799465
0.0045                    -0.0135                  4.465912060593203
0.0045                    -0.0125                  4.520766464296843
0.0045                    -0.0115                  4.576187731110157
0.0045                    -0.0105                  4.630352660126108
0.0045                    -0.0095                  4.6814107747651725
0.0045                    -0.0085                  4.726277068995715
0.0045                    -0.0075                  4.760460533985381
0.0045                    -0.0065                  4.781816000131853
0.0045                    -0.0055                  4.789728152443994
0.0045                    -0.0045                  4.781697912044868
0.0045                    -0.0035                  4.766355966985792
0.0045                    -0.0025                  4.760060802551836
0.0045                    -0.0015                  4.770422702253953
0.0045                    -5.0E-4                  4.7984005720047955
0.0045                    5.0E-4                   4.833778512431031
0.0045                    0.0015                   4.863516261679484
0.0045                    0.0025                   4.882812662220735
0.0045                    0.0035                   4.893056142754026
0.0045                    0.0045                   4.899510231282615
0.0045                    0.0055                   4.904845744622067
0.0045                    0.0065                   4.908027327998205
0.0045                    0.0075                   4.905129762834167
0.0045                    0.0085                   4.891860934667408
0.0045                    0.0095                   4.869055719693875
0.0045                    0.0105                   4.843755585137771
0.0045                    0.0115                   4.82294166151164
0.0045                    0.0125                   4.808122554374182
0.0045                    0.0135                   4.795361585622941
0.0045                    0.0145                   4.7790102135863926
0.0045                    0.0155                   4.755837375345724
0.0045                    0.0165                   4.726019715830412
0.0045                    0.0175                   4.689565680288676
0.0045                    0.0185                   4.643718972896334
0.0045                    0.0195                   4.583751249894249
0.0045                    0.0205                   4.50541506927816
0.0045                    0.0215                   4.416849691849575
0.0045                    0.0225                   4.333550069071637
0.0045                    0.0235                   4.262134168646459
0.0045                    0.0245                   4.202264247773382
0.0045                    0.0255                   4.149859802923661
0.0045                    0.0265                   4.099586610687057
0.0045                    0.0275                   4.048143527602513
0.0045                    0.0285                   3.995468881645917
0.0045                    0.0295                   3.9451548242075294
0.0045                    0.0305                   3.9040644815780308
0.0045                    0.0315                   3.880635834690941
0.0055                    -0.0315                  3.5161701920442736
0.0055                    -0.0305                  3.5256142326411997
0.0055                    -0.0295                  3.5424896053396164
0.0055                    -0.0285                  3.563905363027131
0.0055                    -0.0275                  3.5873701804998994
0.0055                    -0.0265                  3.6113343369844975
0.0055                    -0.0255                  3.6356458941212066
0.0055                    -0.0245                  3.661925519488152
0.0055                    -0.0235                  3.693633536762609
0.0055                    -0.0225                  3.734850840170454
0.0055                    -0.0215                  3.7907072351277344
0.0055                    -0.0205                  3.8623839483651983
0.0055                    -0.0195                  3.944181578801723
0.0055                    -0.0185                  4.03272704221177
0.0055                    -0.0175                  4.1263853902452015
0.0055                    -0.0165                  4.218510973203764
0.0055                    -0.0155                  4.302098321425904
0.0055                    -0.0145                  4.378757991762763
0.0055                    -0.0135                  4.454031957306539
0.0055                    -0.0125                  4.529235011322664
0.0055                    -0.0115                  4.602839928336949
0.0055                    -0.0105                  4.672455650229551
0.0055                    -0.0095                  4.735242372745492
0.0055                    -0.0085                  4.787133581835361
0.0055                    -0.0075                  4.82242105146483
0.0055                    -0.0065                  4.84069071205809
0.0055                    -0.0055                  4.844156437893854
0.0055                    -0.0045                  4.831396330779086
0.0055                    -0.0035                  4.811475178357843
0.0055                    -0.0025                  4.8011670591833715
0.0055                    -0.0015                  4.808631155341985
0.0055                    -5.0E-4                  4.829304622528795
0.0055                    5.0E-4                   4.8526440736254
0.0055                    0.0015                   4.8704385314025105
0.0055                    0.0025                   4.879752687273843
0.0055                    0.0035                   4.883644754994664
0.0055                    0.0045                   4.8858268297318554
0.0055                    0.0055                   4.885997381067428
0.0055                    0.0065                   4.879398540921406
0.0055                    0.0075                   4.858982673398282
0.0055                    0.0085                   4.823702363011679
0.0055                    0.0095                   4.782900656400722
0.0055                    0.0105                   4.748995098185231
0.0055                    0.0115                   4.729192754269835
0.0055                    0.0125                   4.722326926983116
0.0055                    0.0135                   4.721103886130298
0.0055                    0.0145                   4.716030669712541
0.0055                    0.0155                   4.699566218197019
0.0055                    0.0165                   4.66895643039332
0.0055                    0.0175                   4.624093074160481
0.0055                    0.0185                   4.563042961004555
0.0055                    0.0195                   4.485593235411048
0.0055                    0.0205                   4.397098690064254
0.0055                    0.0215                   4.307797855640357
0.0055                    0.0225                   4.230630841655594
0.0055                    0.0235                   4.169139392338986
0.0055                    0.0245                   4.118193327771597
0.0055                    0.0255                   4.072351119581169
0.0055                    0.0265                   4.026302685928835
0.0055                    0.0275                   3.9776140329954797
0.0055                    0.0285                   3.9275399394123647
0.0055                    0.0295                   3.8805669131694227
0.0055                    0.0305                   3.8431969376060473
0.0055                    0.0315                   3.822381907980976
0.0065                    -0.0315                  3.470658154141299
0.0065                    -0.0305                  3.477006601451862
0.0065                    -0.0295                  3.489351321662274
0.0065                    -0.0285                  3.50666791519778
0.0065                    -0.0275                  3.5275928779462578
0.0065                    -0.0265                  3.5507738904150608
0.0065                    -0.0255                  3.57538993932747
0.0065                    -0.0245                  3.6016945679266805
0.0065                    -0.0235                  3.631146906641243
0.0065                    -0.0225                  3.666729197991156
0.0065                    -0.0215                  3.7133331455487815
0.0065                    -0.0205                  3.7725940756623193
0.0065                    -0.0195                  3.842283928400735
0.0065                    -0.0185                  3.9231875080794927
0.0065                    -0.0175                  4.018720359171091
0.0065                    -0.0165                  4.124707264852493
0.0065                    -0.0155                  4.233117903908533
0.0065                    -0.0145                  4.341018685671507
0.0065                    -0.0135                  4.446800634276997
0.0065                    -0.0125                  4.548524286489124
0.0065                    -0.0115                  4.643316566283379
0.0065                    -0.0105                  4.727306133687482
0.0065                    -0.0095                  4.796129698393252
0.0065                    -0.0085                  4.846307798303657
0.0065                    -0.0075                  4.87647250242792
0.0065                    -0.0065                  4.891406479737964
0.0065                    -0.0055                  4.89324956784897
0.0065                    -0.0045                  4.878901273283642
0.0065                    -0.0035                  4.856699089796579
0.0065                    -0.0025                  4.8424368980069925
0.0065                    -0.0015                  4.842794819605825
0.0065                    -5.0E-4                  4.853089661568298
0.0065                    5.0E-4                   4.865860565607629
0.0065                    0.0015                   4.874480618327591
0.0065                    0.0025                   4.876865899784484
0.0065                    0.0035                   4.875646715282947
0.0065                    0.0045                   4.871820665451569
0.0065                    0.0055                   4.861357692832696
0.0065                    0.0065                   4.83395294686409
0.0065                    0.0075                   4.782507979951289
0.0065                    0.0085                   4.716422565185136
0.0065                    0.0095                   4.655869101756579
0.0065                    0.0105                   4.615716920866603
0.0065                    0.0115                   4.5997744552409605
0.0065                    0.0125                   4.603058982273636