% Model:              Benchmark260518.mph
% Version:            COMSOL 6.2.0.339
% Date:               May 20 2026, 19:54
% Dimension:          2
% Nodes:              4096
% Expressions:        1
% Description:        压力
% Length unit:        m
% x                       y                        p (Pa)
% mirrored_by_python_y_to_minus_y, coord_match_decimals=12
0.0005 -0.0315 4.23067624391
0.0005 -0.0305 4.28088562495
0.0005 -0.0295 4.34946006889
0.0005 -0.0285 4.42388882174
0.0005 -0.0275 4.50148489148
0.0005 -0.0265 4.5810126036
0.0005 -0.0255 4.66133062022
0.0005 -0.0245 4.74154423819
0.0005 -0.0235 4.81968928712
0.0005 -0.0225 4.89085662368
0.0005 -0.0215 4.94949350236
0.0005 -0.0205 4.99054022486
0.0005 -0.0195 5.01053661072
0.0005 -0.0185 5.01551692889
0.0005 -0.0175 5.01387259986
0.0005 -0.0165 5.00509720267
0.0005 -0.0155 4.97981757627
0.0005 -0.0145 4.92002238174
0.0005 -0.0135 4.80148031168
0.0005 -0.0125 4.64757964648
0.0005 -0.0115 4.5554923582
0.0005 -0.0105 4.54309982289
0.0005 -0.0095 4.55078040677
0.0005 -0.0085 4.56202165326
0.0005 -0.0075 4.57847937943
0.0005 -0.0065 4.6008985615
0.0005 -0.0055 4.62668106265
0.0005 -0.0045 4.65070796818
0.0005 -0.0035 4.66791434412
0.0005 -0.0025 4.67555593244
0.0005 -0.0015 4.67430604793
0.0005 -0.0005 4.66802316172
0.0005 0.0005 4.66190930916
0.0005 0.0015 4.65975248613
0.0005 0.0025 4.66252675568
0.0005 0.0035 4.66869199256
0.0005 0.0045 4.67555978889
0.0005 0.0055 4.68098491535
0.0005 0.0065 4.68390896772
0.0005 0.0075 4.68341995547
0.0005 0.0085 4.67800624483
0.0005 0.0095 4.66465777361
0.0005 0.0105 4.63989471281
0.0005 0.0115 4.60490864803
0.0005 0.0125 4.56387518847
0.0005 0.0135 4.5201823464
0.0005 0.0145 4.4764280151
0.0005 0.0155 4.4333004974
0.0005 0.0165 4.39053565006
0.0005 0.0175 4.34789431823
0.0005 0.0185 4.30523887374
0.0005 0.0195 4.26249002599
0.0005 0.0205 4.21962846216
0.0005 0.0215 4.17667693359
0.0005 0.0225 4.13370123986
0.0005 0.0235 4.09079818388
0.0005 0.0245 4.04808863459
0.0005 0.0255 4.00571989635
0.0005 0.0265 3.96387181346
0.0005 0.0275 3.92277335039
0.0005 0.0285 3.88277100919
0.0005 0.0295 3.84439396918
0.0005 0.0305 3.80906733209
0.0005 0.0315 3.78305639546
0.0015 -0.0315 4.18043184443
0.0015 -0.0305 4.23119439963
0.0015 -0.0295 4.30579619771
0.0015 -0.0285 4.38775983345
0.0015 -0.0275 4.47268784951
0.0015 -0.0265 4.55964009513
0.0015 -0.0255 4.64812089391
0.0015 -0.0245 4.73691368088
0.0015 -0.0235 4.82243510584
0.0015 -0.0225 4.89764088757
0.0015 -0.0215 4.95519754394
0.0015 -0.0205 4.98929823814
0.0015 -0.0195 5.00294465934
0.0015 -0.0185 5.0062958596
0.0015 -0.0175 5.00530533579
0.0015 -0.0165 5.00049703365
0.0015 -0.0155 4.98494975701
0.0015 -0.0145 4.93909790962
0.0015 -0.0135 4.83657563057
0.0015 -0.0125 4.67409949094
0.0015 -0.0115 4.56567525859
0.0015 -0.0105 4.54899649952
0.0015 -0.0095 4.55029736514
0.0015 -0.0085 4.55958467165
0.0015 -0.0075 4.57481432626
0.0015 -0.0065 4.59664143467
0.0015 -0.0055 4.62165143382
0.0015 -0.0045 4.64415499514
0.0015 -0.0035 4.65910365733
0.0015 -0.0025 4.66420385283
0.0015 -0.0015 4.66112358991
0.0015 -0.0005 4.65448449057
0.0015 0.0005 4.64960242695
0.0015 0.0015 4.64992209492
0.0015 0.0025 4.65590313217
0.0015 0.0035 4.66539338721
0.0015 0.0045 4.67502426538
0.0015 0.0055 4.68208252338
0.0015 0.0065 4.68544659732
0.0015 0.0075 4.68439689468
0.0015 0.0085 4.67790767987
0.0015 0.0095 4.66383292715
0.0015 0.0105 4.63830664353
0.0015 0.0115 4.60244749881
0.0015 0.0125 4.5611066266
0.0015 0.0135 4.51756250084
0.0015 0.0145 4.47415271651
0.0015 0.0155 4.43138290642
0.0015 0.0165 4.38893281508
0.0015 0.0175 4.34639843116
0.0015 0.0185 4.3035302663
0.0015 0.0195 4.26022075033
0.0015 0.0205 4.21646198385
0.0015 0.0215 4.17231962725
0.0015 0.0225 4.12790652442
0.0015 0.0235 4.08335794112
0.0015 0.0245 4.03881078716
0.0015 0.0255 3.99439328681
0.0015 0.0265 3.95022941402
0.0015 0.0275 3.9064652488
0.0015 0.0285 3.86333357129
0.0015 0.0295 3.82144973603
0.0015 0.0305 3.78317716138
0.0015 0.0315 3.75685308998
0.0025 -0.0315 4.11173676465
0.0025 -0.0305 4.15835433123
0.0025 -0.0295 4.23472700484
0.0025 -0.0285 4.32419203266
0.0025 -0.0275 4.41896685439
0.0025 -0.0265 4.51680570445
0.0025 -0.0255 4.6169389019
0.0025 -0.0245 4.71741815651
0.0025 -0.0235 4.8129143358
0.0025 -0.0225 4.89402933244
0.0025 -0.0215 4.95164082117
0.0025 -0.0205 4.98279777221
0.0025 -0.0195 4.99466952662
0.0025 -0.0185 4.99789110139
0.0025 -0.0175 4.99837714541
0.0025 -0.0165 4.99852572809
0.0025 -0.0155 4.99594941209
0.0025 -0.0145 4.97576499497
0.0025 -0.0135 4.91497947745
0.0025 -0.0125 4.7992060941
0.0025 -0.0115 4.6729690738
0.0025 -0.0105 4.59990025968
0.0025 -0.0095 4.57553072741
0.0025 -0.0085 4.57319154989
0.0025 -0.0075 4.58333060284
0.0025 -0.0065 4.60049409039
0.0025 -0.0055 4.6190063674
0.0025 -0.0045 4.63299487937
0.0025 -0.0035 4.63861096166
0.0025 -0.0025 4.63531681203
0.0025 -0.0015 4.62657644184
0.0025 -0.0005 4.61772115607
0.0025 0.0005 4.61332453397
0.0025 0.0015 4.61615818586
0.0025 0.0025 4.62649402414
0.0025 0.0035 4.64226425681
0.0025 0.0045 4.65982918643
0.0025 0.0055 4.6747813128
0.0025 0.0065 4.68296433317
0.0025 0.0075 4.68190245508
0.0025 0.0085 4.67154597124
0.0025 0.0095 4.65287248628
0.0025 0.0105 4.62510368342
0.0025 0.0115 4.58972325461
0.0025 0.0125 4.55048326162
0.0025 0.0135 4.50957347129
0.0025 0.0145 4.46840101924
0.0025 0.0155 4.42718614864
0.0025 0.0165 4.38561728725
0.0025 0.0175 4.34329168728
0.0025 0.0185 4.29993632263
0.0025 0.0195 4.25546232689
0.0025 0.0205 4.20993321635
0.0025 0.0215 4.16351477026
0.0025 0.0225 4.11642142451
0.0025 0.0235 4.068864983
0.0025 0.0245 4.02101873334
0.0025 0.0255 3.97300935183
0.0025 0.0265 3.92494358201
0.0025 0.0275 3.87698859766
0.0025 0.0285 3.82960756495
0.0025 0.0295 3.78428057223
0.0025 0.0305 3.74515252589
0.0025 0.0315 3.72072394425
0.0035 -0.0315 4.0372176172
0.0035 -0.0305 4.07890812382
0.0035 -0.0295 4.15257339126
0.0035 -0.0285 4.24507983407
0.0035 -0.0275 4.34725156377
0.0035 -0.0265 4.45457318937
0.0035 -0.0255 4.56477266823
0.0035 -0.0245 4.67499000809
0.0035 -0.0235 4.7792728296
0.0035 -0.0225 4.86781057135
0.0035 -0.0215 4.93117200668
0.0035 -0.0205 4.96701109401
0.0035 -0.0195 4.98247266168
0.0035 -0.0185 4.9882187623
0.0035 -0.0175 4.99161009872
0.0035 -0.0165 4.99784967689
0.0035 -0.0155 5.00998684233
0.0035 -0.0145 5.01909805035
0.0035 -0.0135 5.00130303169
0.0035 -0.0125 4.93473461055
0.0035 -0.0115 4.83073144011
0.0035 -0.0105 4.73343188702
0.0035 -0.0095 4.67177969694
0.0035 -0.0085 4.64295818412
0.0035 -0.0075 4.63417835587
0.0035 -0.0065 4.63345333793
0.0035 -0.0055 4.63198351293
0.0035 -0.0045 4.62466950716
0.0035 -0.0035 4.6104319431
0.0035 -0.0025 4.5921287026
0.0035 -0.0015 4.5743785939
0.0035 -0.0005 4.56115392615
0.0035 0.0005 4.55524620489
0.0035 0.0015 4.55861181147
0.0035 0.0025 4.57183049402
0.0035 0.0035 4.59343769998
0.0035 0.0045 4.61974245214
0.0035 0.0055 4.64545677765
0.0035 0.0065 4.6633786947
0.0035 0.0075 4.66629848246
0.0035 0.0085 4.65281952953
0.0035 0.0095 4.62803250086
0.0035 0.0105 4.59757761875
0.0035 0.0115 4.56464128709
0.0035 0.0125 4.53052314056
0.0035 0.0135 4.49527793576
0.0035 0.0145 4.45867363924
0.0035 0.0155 4.42050326476
0.0035 0.0165 4.38050487049
0.0035 0.0175 4.33846062419
0.0035 0.0185 4.29427746775
0.0035 0.0195 4.24803381908
0.0035 0.0205 4.19996917754
0.0035 0.0215 4.15042423069
0.0035 0.0225 4.09975937709
0.0035 0.0235 4.04828462718
0.0035 0.0245 3.99623281415
0.0035 0.0255 3.94378404244
0.0035 0.0265 3.89115576792
0.0035 0.0275 3.83880922465
0.0035 0.0285 3.78789384861
0.0035 0.0295 3.7410296481
0.0035 0.0305 3.70304143549
0.0035 0.0315 3.68078437135
0.0045 -0.0315 3.95937473224
0.0045 -0.0305 3.99719366267
0.0045 -0.0295 4.06686427504
0.0045 -0.0285 4.1585704559
0.0045 -0.0275 4.26366795031
0.0045 -0.0265 4.37611769286
0.0045 -0.0255 4.49180637413
0.0045 -0.0245 4.6069535371
0.0045 -0.0235 4.71628048548
0.0045 -0.0225 4.81213832145
0.0045 -0.0215 4.88606045301
0.0045 -0.0205 4.9340042709
0.0045 -0.0195 4.95973416469
0.0045 -0.0185 4.9728719283
0.0045 -0.0175 4.98246799216
0.0045 -0.0165 4.99693770698
0.0045 -0.0155 5.02443500288
0.0045 -0.0145 5.05948606013
0.0045 -0.0135 5.07831893831
0.0045 -0.0125 5.05592528815
0.0045 -0.0115 4.98896188683
0.0045 -0.0105 4.90157018475
0.0045 -0.0095 4.82324305391
0.0045 -0.0085 4.76641218561
0.0045 -0.0075 4.72706933784
0.0045 -0.0065 4.69478925023
0.0045 -0.0055 4.66159550437
0.0045 -0.0045 4.62527680375
0.0045 -0.0035 4.58845787518
0.0045 -0.0025 4.55567689238
0.0045 -0.0015 4.52981659278
0.0045 -0.0005 4.51180751504
0.0045 0.0005 4.50197622459
0.0045 0.0015 4.50107832961
0.0045 0.0025 4.51041774901
0.0045 0.0035 4.53084428264
0.0045 0.0045 4.56040229138
0.0045 0.0055 4.59306429093
0.0045 0.0065 4.61954339396
0.0045 0.0075 4.62942671131
0.0045 0.0085 4.6178619811
0.0045 0.0095 4.59141231567
0.0045 0.0105 4.56103626217
0.0045 0.0115 4.53204542897
0.0045 0.0125 4.50436420593
0.0045 0.0135 4.47615735617
0.0045 0.0145 4.44554052407
0.0045 0.0155 4.41143794417
0.0045 0.0165 4.37347212263
0.0045 0.0175 4.33165074421
0.0045 0.0185 4.28622905971
0.0045 0.0195 4.23764103898
0.0045 0.0205 4.18644024474
0.0045 0.0215 4.13321089037
0.0045 0.0225 4.07846835044
0.0045 0.0235 4.02261680498
0.0045 0.0245 3.96596948007
0.0045 0.0255 3.90883930009
0.0045 0.0265 3.85172830491
0.0045 0.0275 3.79563740058
0.0045 0.0285 3.74249257286
0.0045 0.0295 3.69549618797
0.0045 0.0305 3.65908534309
0.0045 0.0315 3.63856081313
0.0055 -0.0315 3.87901509127
0.0055 -0.0305 3.91386579227
0.0055 -0.0295 3.97949842417
0.0055 -0.0285 4.06816670366
0.0055 -0.0275 4.17213904197
0.0055 -0.0265 4.28481529833
0.0055 -0.0255 4.40071593776
0.0055 -0.0245 4.51525403973
0.0055 -0.0235 4.62424324494
0.0055 -0.0225 4.7232583623
0.0055 -0.0215 4.80700590271
0.0055 -0.0205 4.87121563873
0.0055 -0.0195 4.91400244415
0.0055 -0.0185 4.94103046046
0.0055 -0.0175 4.96189151231
0.0055 -0.0165 4.98791728022
0.0055 -0.0155 5.03127145221
0.0055 -0.0145 5.08598169622
0.0055 -0.0135 5.12758882055
0.0055 -0.0125 5.13300798531
0.0055 -0.0115 5.09575225531
0.0055 -0.0105 5.02883682502
0.0055 -0.0095 4.95269163162
0.0055 -0.0085 4.88111752928
0.0055 -0.0075 4.81674983566
0.0055 -0.0065 4.7552277984
0.0055 -0.0055 4.69358454554
0.0055 -0.0045 4.634288455
0.0055 -0.0035 4.58256933161
0.0055 -0.0025 4.54152135675
0.0055 -0.0015 4.51100111244
0.0055 -0.0005 4.48961617267
0.0055 0.0005 4.47574522199
0.0055 0.0015 4.46851527696
0.0055 0.0025 4.46868371045
0.0055 0.0035 4.47878214061
0.0055 0.0045 4.50073382782
0.0055 0.0055 4.53135621583
0.0055 0.0065 4.56064738376
0.0055 0.0075 4.57614201095
0.0055 0.0085 4.57077818207
0.0055 0.0095 4.54953650325
0.0055 0.0105 4.52343886084
0.0055 0.0115 4.49906380037
0.0055 0.0125 4.47708180673
0.0055 0.0135 4.45514609877
0.0055 0.0145 4.43037399173
0.0055 0.0155 4.40043140863
0.0055 0.0165 4.36439825419
0.0055 0.0175 4.32242424906
0.0055 0.0185 4.27523217334
0.0055 0.0195 4.22379319521
0.0055 0.0205 4.16909639727
0.0055 0.0215 4.1119679859
0.0055 0.0225 4.05303126875
0.0055 0.0235 3.99274982355
0.0055 0.0245 3.93152364607
0.0055 0.0255 3.86989012143
0.0055 0.0265 3.8087857465
0.0055 0.0275 3.74981469036
0.0055 0.0285 3.6954185174
0.0055 0.0295 3.64882389115
0.0055 0.0305 3.61382126051
0.0055 0.0315 3.59453869908
0.0065 -0.0315 3.79664612146
0.0065 -0.0305 3.82891198084
0.0065 -0.0295 3.89043135124
0.0065 -0.0285 3.97466760971
0.0065 -0.0275 4.07461631627
0.0065 -0.0265 4.18364433509
0.0065 -0.0255 4.29553429473
0.0065 -0.0245 4.40494567065
0.0065 -0.0235 4.5080397117
0.0065 -0.0225 4.60281240445
0.0065 -0.0215 4.68844744632
0.0065 -0.0205 4.76354050215
0.0065 -0.0195 4.82439243453
0.0065 -0.0185 4.8708342901
0.0065 -0.0175 4.90744638968
0.0065 -0.0165 4.9484109825
0.0065 -0.0155 5.01027290384
0.0065 -0.0145 5.08265521337
0.0065 -0.0135 5.13646427635
0.0065 -0.0125 5.15362938388
0.0065 -0.0115 5.13286899513
0.0065 -0.0105 5.0825510786
0.0065 -0.0095 5.01474560786
0.0065 -0.0085 4.94084152597
0.0065 -0.0075 4.86705832403
0.0065 -0.0065 4.79322046296
0.0065 -0.0055 4.7190322824
0.0065 -0.0045 4.64926937119
0.0065 -0.0035 4.59004352124
0.0065 -0.0025 4.543723459
0.0065 -0.0015 4.50941179917
0.0065 -0.0005 4.48516205751
0.0065 0.0005 4.46876680653
0.0065 0.0015 4.45813342311
0.0065 0.0025 4.45212095376
0.0065 0.0035 4.45158697646
0.0065 0.0045 4.45975587597
0.0065 0.0055 4.47865970285
0.0065 0.0065 4.50314500619
0.0065 0.0075 4.52076573654
0.0065 0.0085 4.52211785361
0.0065 0.0095 4.50896730807
0.0065 0.0105 4.48954167769
0.0065 0.0115 4.47020883639
0.0065 0.0125 4.45266170695
0.0065 0.0135 4.43530669524
0.0065 0.0145 4.41491890523
0.0065 0.0155 4.38816723993
0.0065 0.0165 4.35321017915
0.0065 0.0175 4.31020590295
0.0065 0.0185 4.26052593592
0.0065 0.0195 4.20587314419
0.0065 0.0205 4.14764282211
0.0065 0.0215 4.0867817282
0.0065 0.0225 4.02391078882
0.0065 0.0235 3.95945060311
0.0065 0.0245 3.89389480797
0.0065 0.0255 3.8281116997
0.0065 0.0265 3.76356867912
0.0065 0.0275 3.70240224627
0.0065 0.0285 3.64729067208
0.0065 0.0295 3.60123620026
0.0065 0.0305 3.56739392551
0.0065 0.0315 3.5490367614
0.0075 -0.0315 3.71252791976
0.0075 -0.0305 3.74226093187
0.0075 -0.0295 3.79932063212
0.0075 -0.0285 3.87799129913
0.0075 -0.0275 3.9719149256
0.0075 -0.0265 4.07476385949
0.0075 -0.0255 4.1801186777
0.0075 -0.0245 4.28190091997
0.0075 -0.0235 4.37544482516
0.0075 -0.0225 4.45899697433
0.0075 -0.0215 4.53443266569
0.0075 -0.0205 4.6053990347
0.0075 -0.0195 4.67501579057
0.0075 -0.0185 4.73898164831
0.0075 -0.0175 4.79173248263
0.0075 -0.0165 4.85069181086
0.0075 -0.0155 4.93818925253
0.0075 -0.0145 5.03521274317
0.0075 -0.0135 5.10341670934
0.0075 -0.0125 5.12960090595
0.0075 -0.0115 5.11966133785
0.0075 -0.0105 5.08179190161
0.0075 -0.0095 5.02402924407
0.0075 -0.0085 4.95597420741
0.0075 -0.0075 4.88527853954
0.0075 -0.0065 4.81371172851
0.0075 -0.0055 4.73991943684
0.0075 -0.0045 4.66723185147
0.0075 -0.0035 4.60299032477
0.0075 -0.0025 4.55130687499
0.0075 -0.0015 4.51225610032
0.0075 -0.0005 4.48451295931
0.0075 0.0005 4.46600820239
0.0075 0.0015 4.45383001928
0.0075 0.0025 4.44542577799
0.0075 0.0035 4.43992615288
0.0075 0.0045 4.43874121197
0.0075 0.0055 4.44491511365
0.0075 0.0065 4.45897805292
0.0075 0.0075 4.47424311339
0.0075 0.0085 4.48037379602
0.0075 0.0095 4.47422491006
0.0075 0.0105 4.46127765675
0.0075 0.0115 4.446792754
0.0075 0.0125 4.43276396571
0.0075 0.0135 4.41842252838
0.0075 0.0145 4.40056589114
0.0075 0.0155 4.37525163826
0.0075 0.0165 4.33977721977
0.0075 0.0175 4.29434720104
0.0075 0.0185 4.24134660958
0.0075 0.0195 4.18330100864
0.0075 0.0205 4.1218240423
0.0075 0.0215 4.05778889112
0.0075 0.0225 3.99151009248
0.0075 0.0235 3.923228848
0.0075 0.0245 3.85360403714
0.0075 0.0255 3.78399355682
0.0075 0.0265 3.71649091827
0.0075 0.0275 3.65365639222
0.0075 0.0285 3.59819768889
0.0075 0.0295 3.55277178574
0.0075 0.0305 3.51995728461
0.0075 0.0315 3.502383973
0.0085 -0.0315 3.62684677683
0.0085 -0.0305 3.65393970022
0.0085 -0.0295 3.70607390901
0.0085 -0.0285 3.77817858246
0.0085 -0.0275 3.86459412084
0.0085 -0.0265 3.9596241795
0.0085 -0.0255 4.05717976252
0.0085 -0.0245 4.15079422906
0.0085 -0.0235 4.23436921352
0.0085 -0.0225 4.30440159896
0.0085 -0.0215 4.36272177187
0.0085 -0.0205 4.41793171713
0.0085 -0.0195 4.48195775489
0.0085 -0.0185 4.55126350905
0.0085 -0.0175 4.6145113943
0.0085 -0.0165 4.6887049423
0.0085 -0.0155 4.80000614714
0.0085 -0.0145 4.92704922598
0.0085 -0.0135 5.02430878273
0.0085 -0.0125 5.073832647
0.0085 -0.0115 5.08114316374
0.0085 -0.0105 5.05738282099
0.0085 -0.0095 5.01175318476
0.0085 -0.0085 4.95343780531
0.0085 -0.0075 4.89007947079
0.0085 -0.0065 4.82460086597
0.0085 -0.0055 4.75493974046
0.0085 -0.0045 4.68250051196
0.0085 -0.0035 4.61493261921
0.0085 -0.0025 4.55828015685
0.0085 -0.0015 4.5144212222
0.0085 -0.0005 4.48314319031
0.0085 0.0005 4.46262227568
0.0085 0.0015 4.44918460776
0.0085 0.0025 4.43956997363
0.0085 0.0035 4.43226145469
0.0085 0.0045 4.42698865754
0.0085 0.0055 4.42540433449
0.0085 0.0065 4.43019640776
0.0085 0.0075 4.44070000098
0.0085 0.0085 4.44934318482
0.0085 0.0095 4.44871917583
0.0085 0.0105 4.44037737626
0.0085 0.0115 4.4292945278
0.0085 0.0125 4.41770806137
0.0085 0.0135 4.40500787069
0.0085 0.0145 4.38785847611
0.0085 0.0155 4.36174451329
0.0085 0.0165 4.32354638423
0.0085 0.0175 4.27421504086
0.0085 0.0185 4.21721071985
0.0085 0.0195 4.1556883673
0.0085 0.0205 4.0915894436
0.0085 0.0215 4.02515148586
0.0085 0.0225 3.95596767573
0.0085 0.0235 3.8840711474
0.0085 0.0245 3.81047797904
0.0085 0.0255 3.73735445244
0.0085 0.0265 3.66746265831
0.0085 0.0275 3.60358151212
0.0085 0.0285 3.54821779393
0.0085 0.0295 3.50357761119
0.0085 0.0305 3.471728903
0.0085 0.0315 3.45482495785
0.0095 -0.0315 3.53975293514
0.0095 -0.0305 3.56412734108
0.0095 -0.0295 3.6109863751
0.0095 -0.0285 3.67576468832
0.0095 -0.0275 3.75352868698
0.0095 -0.0265 3.83947210175
0.0095 -0.0255 3.92838657788
0.0095 -0.0245 4.01422771285
0.0095 -0.0235 4.09019144525
0.0095 -0.0225 4.1506302211
0.0095 -0.0215 4.19669548614
0.0095 -0.0205 4.23927114228
0.0095 -0.0195 4.29081089522
0.0095 -0.0185 4.35041500408
0.0095 -0.0175 4.41071956998
0.0095 -0.0165 4.48639491405
0.0095 -0.0155 4.60499550651
0.0095 -0.0145 4.75337344663
0.0095 -0.0135 4.88586207271
0.0095 -0.0125 4.9727538004
0.0095 -0.0115 5.01014501208
0.0095 -0.0105 5.00878487465
0.0095 -0.0095 4.98040270482
0.0095 -0.0085 4.93509651699
0.0095 -0.0075 4.88054113938
0.0095 -0.0065 4.82055800623
0.0095 -0.0055 4.75495094636
0.0095 -0.0045 4.6854067691
0.0095 -0.0035 4.6182063219
0.0095 -0.0025 4.55951129859
0.0095 -0.0015 4.51283969955
0.0095 -0.0005 4.47910253634
0.0095 0.0005 4.45670788148
0.0095 0.0015 4.44206369245
0.0095 0.0025 4.43173715761
0.0095 0.0035 4.42365696845
0.0095 0.0045 4.41680273171
0.0095 0.0055 4.41172731573
0.0095 0.0065 4.41135458716
0.0095 0.0075 4.41832151013
0.0095 0.0085 4.42946608365
0.0095 0.0095 4.43484413157
0.0095 0.0105 4.43008073886
0.0095 0.0115 4.41989669191
0.0095 0.0125 4.40834896745
0.0095 0.0135 4.39544160077
0.0095 0.0145 4.37698247504
0.0095 0.0155 4.34733757086
0.0095 0.0165 4.3035288277
0.0095 0.0175 4.24848504451
0.0095 0.0185 4.18718369449
0.0095 0.0195 4.12296297771
0.0095 0.0205 4.05706263795
0.0095 0.0215 3.98869342261
0.0095 0.0225 3.91674936213
0.0095 0.0235 3.84103857945
0.0095 0.0245 3.76358481359
0.0095 0.0255 3.68762442658
0.0095 0.0265 3.61634748002
0.0095 0.0275 3.55236494405
0.0095 0.0285 3.49768131772
0.0095 0.0295 3.45398095869
0.0095 0.0305 3.42295098195
0.0095 0.0315 3.40651499094
0.0105 -0.0315 3.45138130754
0.0105 -0.0305 3.47311403752
0.0105 -0.0295 3.51466934487
0.0105 -0.0285 3.57178487806
0.0105 -0.0275 3.64014683879
0.0105 -0.0265 3.71591546398
0.0105 -0.0255 3.79519482978
0.0105 -0.0245 3.87335754866
0.0105 -0.0235 3.94452013277
0.0105 -0.0225 4.00273616175
0.0105 -0.0215 4.04837149767
0.0105 -0.0205 4.08840149018
0.0105 -0.0195 4.1287054992
0.0105 -0.0185 4.17092515987
0.0105 -0.0175 4.2162810134
0.0105 -0.0165 4.28023744961
0.0105 -0.0155 4.38919977405
0.0105 -0.0145 4.5394218745
0.0105 -0.0135 4.69365275101
0.0105 -0.0125 4.81643151493
0.0105 -0.0115 4.89142589784
0.0105 -0.0105 4.92140325368
0.0105 -0.0095 4.91702452724
0.0105 -0.0085 4.8891882895
0.0105 -0.0075 4.84614732372
0.0105 -0.0065 4.79295857143
0.0105 -0.0055 4.7325704475
0.0105 -0.0045 4.66840621061
0.0105 -0.0035 4.60552812109
0.0105 -0.0025 4.54919273245
0.0105 -0.0015 4.50323276375
0.0105 -0.0005 4.46910562135
0.0105 0.0005 4.44577254936
0.0105 0.0015 4.43059887837
0.0105 0.0025 4.42037187415
0.0105 0.0035 4.41237989031
0.0105 0.0045 4.40523198769
0.0105 0.0055 4.39928678777
0.0105 0.0065 4.39711314331
0.0105 0.0075 4.40332123034
0.0105 0.0085 4.41878338204
0.0105 0.0095 4.43323128684
0.0105 0.0105 4.43504889102
0.0105 0.0115 4.42465902416
0.0105 0.0125 4.40912497644
0.0105 0.0135 4.39173919722
0.0105 0.0145 4.3684678275
0.0105 0.0155 4.33198507497
0.0105 0.0165 4.27986638686
0.0105 0.0175 4.21725942784
0.0105 0.0185 4.1504989235
0.0105 0.0195 4.08388958728
0.0105 0.0205 4.0173228555
0.0105 0.0215 3.94727047142
0.0105 0.0225 3.87187400882
0.0105 0.0235 3.79210238218
0.0105 0.0245 3.7115988851
0.0105 0.0255 3.6343611353
0.0105 0.0265 3.56342154142
0.0105 0.0275 3.5006243657
0.0105 0.0285 3.4472146783
0.0105 0.0295 3.40442817813
0.0105 0.0305 3.37384007996
0.0105 0.0315 3.35751434263
0.0115 -0.0315 3.36181888272
0.0115 -0.0305 3.38119482412
0.0115 -0.0295 3.41784171254
0.0115 -0.0285 3.46754537856
0.0115 -0.0275 3.52635805393
0.0115 -0.0265 3.5912436818
0.0115 -0.0255 3.65972322437
0.0115 -0.0245 3.72928633096
0.0115 -0.0235 3.79652797059
0.0115 -0.0225 3.85722103444
0.0115 -0.0215 3.90947833726
0.0115 -0.0205 3.95223196516
0.0115 -0.0195 3.98547637762
0.0115 -0.0185 4.0141799669
0.0115 -0.0175 4.04560808733
0.0115 -0.0165 4.09514220391
0.0115 -0.0155 4.18595767647
0.0115 -0.0145 4.32157566948
0.0115 -0.0135 4.47781539625
0.0115 -0.0125 4.62126635172
0.0115 -0.0115 4.72737536477
0.0115 -0.0105 4.78949392568
0.0115 -0.0095 4.81274664476
0.0115 -0.0085 4.80623928026
0.0115 -0.0075 4.77849237604
0.0115 -0.0065 4.73622118492
0.0115 -0.0055 4.68488244971
0.0115 -0.0045 4.62931465524
0.0115 -0.0035 4.57418005613
0.0115 -0.0025 4.52390415766
0.0115 -0.0015 4.48188311347
0.0115 -0.0005 4.44976968042
0.0115 0.0005 4.42737245768
0.0115 0.0015 4.4130393675
0.0115 0.0025 4.40405877901
0.0115 0.0035 4.39752276608
0.0115 0.0045 4.39187282874
0.0115 0.0055 4.38716315535
0.0115 0.0065 4.3855892193
0.0115 0.0075 4.39337571419
0.0115 0.0085 4.41506272591
0.0115 0.0095 4.44223563351
0.0115 0.0105 4.45694897135
0.0115 0.0115 4.45062033034
0.0115 0.0125 4.42869762134
0.0115 0.0135 4.39900320369
0.0115 0.0145 4.36247669195
0.0115 0.0155 4.31397291413
0.0115 0.0165 4.25172607781
0.0115 0.0175 4.18073754045
0.0115 0.0185 4.10804165269
0.0115 0.0195 4.03883046731
0.0115 0.0205 3.97102349745
0.0115 0.0215 3.89770955565
0.0115 0.0225 3.81780286505
0.0115 0.0235 3.73493606944
0.0115 0.0245 3.65361337494
0.0115 0.0255 3.57792578529
0.0115 0.0265 3.50966771525
0.0115 0.0275 3.44938531431
0.0115 0.0285 3.39758048756
0.0115 0.0295 3.35532539715
0.0115 0.0305 3.32449909809
0.0115 0.0315 3.30775389984
0.0125 -0.0315 3.27110639368
0.0125 -0.0305 3.2885431218
0.0125 -0.0295 3.32105060272
0.0125 -0.0285 3.36424228924
0.0125 -0.0275 3.41419582764
0.0125 -0.0265 3.46830104693
0.0125 -0.0255 3.52519106579
0.0125 -0.0245 3.5844367311
0.0125 -0.0235 3.64570814922
0.0125 -0.0225 3.70707180814
0.0125 -0.0215 3.76486851612
0.0125 -0.0205 3.81214300386
0.0125 -0.0195 3.84551847399
0.0125 -0.0185 3.8716999613
0.0125 -0.0175 3.8983190709
0.0125 -0.0165 3.93761120363
0.0125 -0.0155 4.0105517169
0.0125 -0.0145 4.12524753568
0.0125 -0.0135 4.26806572265
0.0125 -0.0125 4.41305286447
0.0125 -0.0115 4.53491972756
0.0125 -0.0105 4.62088529942
0.0125 -0.0095 4.66952245013
0.0125 -0.0085 4.68578996985
0.0125 -0.0075 4.67694059204
0.0125 -0.0065 4.65027306733
0.0125 -0.0055 4.61231773481
0.0125 -0.0045 4.56869369875
0.0125 -0.0035 4.52416803272
0.0125 -0.0025 4.4826904731
0.0125 -0.0015 4.44724128562
0.0125 -0.0005 4.41960857594
0.0125 0.0005 4.40030587183
0.0125 0.0015 4.38851392189
0.0125 0.0025 4.38229485584
0.0125 0.0035 4.37922043998
0.0125 0.0045 4.37734941761
0.0125 0.0055 4.37583160221
0.0125 0.0065 4.37646182388
0.0125 0.0075 4.38706527036
0.0125 0.0085 4.41645607847
0.0125 0.0095 4.45825279514
0.0125 0.0105 4.49019970779
0.0125 0.0115 4.49451043474
0.0125 0.0125 4.46845388135
0.0125 0.0135 4.41923235017
0.0125 0.0145 4.35597655021
0.0125 0.0155 4.28507463151
0.0125 0.0165 4.20987515541
0.0125 0.0175 4.13300952992
0.0125 0.0185 4.05815886705
0.0125 0.0195 3.98701969418
0.0125 0.0205 3.91542246535
0.0125 0.0215 3.83649449297
0.0125 0.0225 3.75191188246
0.0125 0.0235 3.66850243397
0.0125 0.0245 3.59046752544
0.0125 0.0255 3.51998856096
0.0125 0.0265 3.4566719098
0.0125 0.0275 3.39976492137
0.0125 0.0285 3.34934155734
0.0125 0.0295 3.30680325137
0.0125 0.0305 3.27479913544
0.0125 0.0315 3.25699858349
0.0135 -0.0315 3.17923258594
0.0135 -0.0305 3.19512919204
0.0135 -0.0295 3.22441504347
0.0135 -0.0285 3.26251286457
0.0135 -0.0275 3.3052483257
0.0135 -0.0265 3.34991180847
0.0135 -0.0255 3.39562453474
0.0135 -0.0245 3.44333007756
0.0135 -0.0235 3.49497577679
0.0135 -0.0225 3.55156558856
0.0135 -0.0215 3.61108166015
0.0135 -0.0205 3.66429235709
0.0135 -0.0195 3.70578800431
0.0135 -0.0185 3.74034237913
0.0135 -0.0175 3.77060588025
0.0135 -0.0165 3.80560881181
0.0135 -0.0155 3.86506005821
0.0135 -0.0145 3.95884827976
0.0135 -0.0135 4.08069398494
0.0135 -0.0125 4.21326796529
0.0135 -0.0115 4.33543330326
0.0135 -0.0105 4.43276726654
0.0135 -0.0095 4.49945503493
0.0135 -0.0085 4.53616200201
0.0135 -0.0075 4.5473997072
0.0135 -0.0065 4.53927813143
0.0135 -0.0055 4.51801675729
0.0135 -0.0045 4.48922674084
0.0135 -0.0035 4.4576411442
0.0135 -0.0025 4.42704300609
0.0135 -0.0015 4.40029827392
0.0135 -0.0005 4.37936225457
0.0135 0.0005 4.36520414088
0.0135 0.0015 4.35777795353
0.0135 0.0025 4.35606554268
0.0135 0.0035 4.35834323548
0.0135 0.0045 4.36203936175
0.0135 0.0055 4.36510325321
0.0135 0.0065 4.36916002906
0.0135 0.0075 4.38372257492
0.0135 0.0085 4.42093340543
0.0135 0.0095 4.47522444495
0.0135 0.0105 4.5219294566
0.0135 0.0115 4.5377578983
0.0135 0.0125 4.51080990936
0.0135 0.0135 4.44171938906
0.0135 0.0145 4.34515486681
0.0135 0.0155 4.24217131093
0.0135 0.0165 4.14712945064
0.0135 0.0175 4.06454883391
0.0135 0.0185 3.99131936904
0.0135 0.0195 3.92015680224
0.0135 0.0205 3.84408887339
0.0135 0.0215 3.76019918119
0.0135 0.0225 3.67451259652
0.0135 0.0235 3.59563110918
0.0135 0.0245 3.52565386038
0.0135 0.0255 3.46321232071
0.0135 0.0265 3.40606486545
0.0135 0.0275 3.35238556505
0.0135 0.0285 3.30243375243
0.0135 0.0295 3.25844887456
0.0135 0.0305 3.22426094403
0.0135 0.0315 3.20484266168
0.0145 -0.0315 3.08618206035
0.0145 -0.0305 3.10072635578
0.0145 -0.0295 3.12750504736
0.0145 -0.0285 3.16206467248
0.0145 -0.0275 3.19998068842
0.0145 -0.0265 3.23799559225
0.0145 -0.0255 3.27485359996
0.0145 -0.0245 3.31195704801
0.0145 -0.0235 3.35271973012
0.0145 -0.0225 3.40105754151
0.0145 -0.0215 3.4585286833
0.0145 -0.0205 3.51725084455
0.0145 -0.0195 3.57135084315
0.0145 -0.0185 3.61977335823
0.0145 -0.0175 3.65839771553
0.0145 -0.0165 3.69434871037
0.0145 -0.0155 3.7448973731
0.0145 -0.0145 3.8196306044
0.0145 -0.0135 3.91784652028
0.0145 -0.0125 4.03041733621
0.0145 -0.0115 4.14199900478
0.0145 -0.0105 4.23966332326
0.0145 -0.0095 4.31589585459
0.0145 -0.0085 4.36827407117
0.0145 -0.0075 4.39820885469
0.0145 -0.0065 4.4094555441
0.0145 -0.0055 4.40674978991
0.0145 -0.0045 4.39485718392
0.0145 -0.0035 4.3780749463
0.0145 -0.0025 4.36003599948
0.0145 -0.0015 4.34366189993
0.0145 -0.0005 4.33116448912
0.0145 0.0005 4.32395968211
0.0145 0.0015 4.32260870332
0.0145 0.0025 4.32697212593
0.0145 0.0035 4.33555824555
0.0145 0.0045 4.34527924837
0.0145 0.0055 4.35367279234
0.0145 0.0065 4.36237390266
0.0145 0.0075 4.38203930488
0.0145 0.0085 4.42498587348
0.0145 0.0095 4.48454989665
0.0145 0.0105 4.53636397412
0.0145 0.0115 4.55691830927
0.0145 0.0125 4.53101710244
0.0145 0.0135 4.45182129402
0.0145 0.0145 4.33032568937
0.0145 0.0155 4.19607040093
0.0145 0.0165 4.07637545084
0.0145 0.0175 3.98116211251
0.0145 0.0185 3.90443397694
0.0145 0.0195 3.83285874055
0.0145 0.0205 3.75563418985
0.0145 0.0215 3.67245723054
0.0145 0.0225 3.59182635997
0.0145 0.0235 3.52233969286
0.0145 0.0245 3.46355805733
0.0145 0.0255 3.41013722171
0.0145 0.0265 3.35850319634
0.0145 0.0275 3.30673596636
0.0145 0.0285 3.25575075901
0.0145 0.0295 3.20906287125
0.0145 0.0305 3.17200862764
0.0145 0.0315 3.15077466756
0.0155 -0.0315 2.99202204697
0.0155 -0.0305 3.00502936933
0.0155 -0.0295 3.02944423398
0.0155 -0.0285 3.06158035535
0.0155 -0.0275 3.09721048207
0.0155 -0.0265 3.13246031745
0.0155 -0.0255 3.16499769955
0.0155 -0.0245 3.19564568708
0.0155 -0.0235 3.22906519801
0.0155 -0.0225 3.27123803365
0.0155 -0.0215 3.32458146847
0.0155 -0.0205 3.38415182087
0.0155 -0.0195 3.44649789841
0.0155 -0.0185 3.50594945603
0.0155 -0.0175 3.55449941875
0.0155 -0.0165 3.59567503001
0.0155 -0.0155 3.64039176535
0.0155 -0.0145 3.69801497965
0.0155 -0.0135 3.77327253215
0.0155 -0.0125 3.86344040655
0.0155 -0.0115 3.95879280312
0.0155 -0.0105 4.0495568418
0.0155 -0.0095 4.12849720202
0.0155 -0.0085 4.19151459166
0.0155 -0.0075 4.23743363667
0.0155 -0.0065 4.26736786067
0.0155 -0.0055 4.28387758225
0.0155 -0.0045 4.29018834501
0.0155 -0.0035 4.28966298896
0.0155 -0.0025 4.28553508366
0.0155 -0.0015 4.28075958879
0.0155 -0.0005 4.27786775622
0.0155 0.0005 4.27883267256
0.0155 0.0015 4.28479596994
0.0155 0.0025 4.29616663083
0.0155 0.0035 4.31096652366
0.0155 0.0045 4.32601866944
0.0155 0.0055 4.33957722639
0.0155 0.0065 4.35347161055
0.0155 0.0075 4.37811472368
0.0155 0.0085 4.42256717208
0.0155 0.0095 4.47869428141
0.0155 0.0105 4.52540559372
0.0155 0.0115 4.54398538367
0.0155 0.0125 4.52208780144
0.0155 0.0135 4.44384128717
0.0155 0.0145 4.30797990018
0.0155 0.0155 4.14848466861
0.0155 0.0165 4.00681908005
0.0155 0.0175 3.89716514899
0.0155 0.0185 3.81101508316
0.0155 0.0195 3.73596303318
0.0155 0.0205 3.66147335896
0.0155 0.0215 3.58606480105
0.0155 0.0225 3.51606067499
0.0155 0.0235 3.45723189879
0.0155 0.0245 3.40792786057
0.0155 0.0255 3.36130623986
0.0155 0.0265 3.31280863618
0.0155 0.0275 3.26069202665
0.0155 0.0285 3.20683808739
0.0155 0.0295 3.15664402272
0.0155 0.0305 3.11689338444
0.0155 0.0315 3.09433799021
0.0165 -0.0315 2.89695002435
0.0165 -0.0305 2.907840454
0.0165 -0.0295 2.92924220423
0.0165 -0.0285 2.95905033769
0.0165 -0.0275 2.99408863913
0.0165 -0.0265 3.03045326882
0.0165 -0.0255 3.06444149031
0.0165 -0.0245 3.09573311976
0.0165 -0.0235 3.12860322808
0.0165 -0.0225 3.16846884426
0.0165 -0.0215 3.21608687876
0.0165 -0.0205 3.26949871018
0.0165 -0.0195 3.32923001961
0.0165 -0.0185 3.39115848492
0.0165 -0.0175 3.44786044477
0.0165 -0.0165 3.49547624371
0.0165 -0.0155 3.53688942143
0.0165 -0.0145 3.58153762758
0.0165 -0.0135 3.63750593586