% Model:              Benchmark260518.mph
% Version:            COMSOL 6.2.0.339
% Date:               May 19 2026, 23:56
% Dimension:          2
% Nodes:              4096
% Expressions:        1
% Description:        压力
% Length unit:        m
% x                       y                        p (Pa)
% mirrored_by_python_y_to_minus_y, coord_match_decimals=12
0.0005 -0.0315 4.52806117675
0.0005 -0.0305 4.55352392458
0.0005 -0.0295 4.58829587856
0.0005 -0.0285 4.62602393311
0.0005 -0.0275 4.66522584249
0.0005 -0.0265 4.70525005823
0.0005 -0.0255 4.74560130477
0.0005 -0.0245 4.78600708742
0.0005 -0.0235 4.82561171122
0.0005 -0.0225 4.86223326833
0.0005 -0.0215 4.8932045232
0.0005 -0.0205 4.91566071738
0.0005 -0.0195 4.92817238263
0.0005 -0.0185 4.93401540297
0.0005 -0.0175 4.93811914278
0.0005 -0.0165 4.92550274724
0.0005 -0.0155 4.86858061452
0.0005 -0.0145 4.79425484493
0.0005 -0.0135 4.75709215908
0.0005 -0.0125 4.75461294684
0.0005 -0.0115 4.76143443421
0.0005 -0.0105 4.772605467
0.0005 -0.0095 4.78817690643
0.0005 -0.0085 4.80366052211
0.0005 -0.0075 4.81237252221
0.0005 -0.0065 4.81027032456
0.0005 -0.0055 4.79822907504
0.0005 -0.0045 4.78061646233
0.0005 -0.0035 4.7621467217
0.0005 -0.0025 4.74608888047
0.0005 -0.0015 4.73397932497
0.0005 -0.0005 4.72607290985
0.0005 0.0005 4.72204682709
0.0005 0.0015 4.7213022581
0.0005 0.0025 4.72285552386
0.0005 0.0035 4.72537239202
0.0005 0.0045 4.72741348953
0.0005 0.0055 4.72758997035
0.0005 0.0065 4.72460030898
0.0005 0.0075 4.71691341848
0.0005 0.0085 4.70249996166
0.0005 0.0095 4.68051960155
0.0005 0.0105 4.65269018557
0.0005 0.0115 4.62132090403
0.0005 0.0125 4.58825880379
0.0005 0.0135 4.55506035942
0.0005 0.0145 4.52228109899
0.0005 0.0155 4.48970519688
0.0005 0.0165 4.45710180038
0.0005 0.0175 4.42438702142
0.0005 0.0185 4.39152699717
0.0005 0.0195 4.35852435591
0.0005 0.0205 4.32540400144
0.0005 0.0215 4.29220442993
0.0005 0.0225 4.25897865073
0.0005 0.0235 4.22579664674
0.0005 0.0245 4.19274615848
0.0005 0.0255 4.1599334358
0.0005 0.0265 4.12749233249
0.0005 0.0275 4.09561495473
0.0005 0.0285 4.06458735296
0.0005 0.0295 4.03481493689
0.0005 0.0305 4.00742470187
0.0005 0.0315 3.98731717549
0.0015 -0.0315 4.50273930843
0.0015 -0.0305 4.5288915125
0.0015 -0.0295 4.56731925588
0.0015 -0.0285 4.60963783879
0.0015 -0.0275 4.65336011395
0.0015 -0.0265 4.6977587835
0.0015 -0.0255 4.74246414344
0.0015 -0.0245 4.78694887632
0.0015 -0.0235 4.82986296952
0.0015 -0.0225 4.8685001148
0.0015 -0.0215 4.89964704281
0.0015 -0.0205 4.92053542941
0.0015 -0.0195 4.93148487542
0.0015 -0.0185 4.93610751061
0.0015 -0.0175 4.93858191104
0.0015 -0.0165 4.92795541564
0.0015 -0.0155 4.87935725777
0.0015 -0.0145 4.80162928937
0.0015 -0.0135 4.75792805732
0.0015 -0.0125 4.75533669781
0.0015 -0.0115 4.75873761425
0.0015 -0.0105 4.76857130358
0.0015 -0.0095 4.78361339079
0.0015 -0.0085 4.7983691533
0.0015 -0.0075 4.80549072556
0.0015 -0.0065 4.80164616774
0.0015 -0.0055 4.78897018072
0.0015 -0.0045 4.77210354244
0.0015 -0.0035 4.75517663967
0.0015 -0.0025 4.74076532531
0.0015 -0.0015 4.72982193981
0.0015 -0.0005 4.72252756194
0.0015 0.0005 4.71884214999
0.0015 0.0015 4.71843230621
0.0015 0.0025 4.72062556513
0.0015 0.0035 4.72419707933
0.0015 0.0045 4.72717786943
0.0015 0.0055 4.72746705903
0.0015 0.0065 4.72345645882
0.0015 0.0075 4.71431647748
0.0015 0.0085 4.69930587262
0.0015 0.0095 4.67753334675
0.0015 0.0105 4.65016358557
0.0015 0.0115 4.61948656285
0.0015 0.0125 4.58717248338
0.0015 0.0135 4.55452623618
0.0015 0.0145 4.52202009571
0.0015 0.0155 4.48959499724
0.0015 0.0165 4.45704143131
0.0015 0.0175 4.42421411567
0.0015 0.0185 4.39105652145
0.0015 0.0195 4.35756413489
0.0015 0.0205 4.32376434755
0.0015 0.0215 4.28970310679
0.0015 0.0225 4.25543756258
0.0015 0.0235 4.22103304533
0.0015 0.0245 4.18656159864
0.0015 0.0255 4.15210362262
0.0015 0.0265 4.11775827191
0.0015 0.0275 4.08366284876
0.0015 0.0285 4.05002737326
0.0015 0.0295 4.01737019066
0.0015 0.0305 3.98758280999
0.0015 0.0315 3.96717021783
0.0025 -0.0315 4.46796304045
0.0025 -0.0305 4.4929563488
0.0025 -0.0295 4.53367173105
0.0025 -0.0285 4.58142409794
0.0025 -0.0275 4.63185503358
0.0025 -0.0265 4.68326531052
0.0025 -0.0255 4.73479049041
0.0025 -0.0245 4.78532566797
0.0025 -0.0235 4.83278524379
0.0025 -0.0225 4.87379095277
0.0025 -0.0215 4.90476255453
0.0025 -0.0205 4.9239976342
0.0025 -0.0195 4.93356778733
0.0025 -0.0185 4.93767920083
0.0025 -0.0175 4.93919888688
0.0025 -0.0165 4.93353827346
0.0025 -0.0155 4.90554838328
0.0025 -0.0145 4.84979508758
0.0025 -0.0135 4.7965907029
0.0025 -0.0125 4.77132458446
0.0025 -0.0115 4.76611513612
0.0025 -0.0105 4.77209631027
0.0025 -0.0095 4.78401633133
0.0025 -0.0085 4.79392022457
0.0025 -0.0075 4.79529215733
0.0025 -0.0065 4.78716547607
0.0025 -0.0055 4.77327947345
0.0025 -0.0045 4.7579435397
0.0025 -0.0035 4.74369644892
0.0025 -0.0025 4.73152072039
0.0025 -0.0015 4.72162565502
0.0025 -0.0005 4.71413977559
0.0025 0.0005 4.70945763599
0.0025 0.0015 4.70798588885
0.0025 0.0025 4.70988862632
0.0025 0.0035 4.71441480247
0.0025 0.0045 4.71923857344
0.0025 0.0055 4.72085963533
0.0025 0.0065 4.71598546902
0.0025 0.0075 4.70422386973
0.0025 0.0085 4.6873972675
0.0025 0.0095 4.66604087712
0.0025 0.0105 4.64063256301
0.0025 0.0115 4.61249640547
0.0025 0.0125 4.58264159272
0.0025 0.0135 4.55186060269
0.0025 0.0145 4.52054983442
0.0025 0.0155 4.48878267254
0.0025 0.0165 4.45646866644
0.0025 0.0175 4.42349485913
0.0025 0.0185 4.38980605312
0.0025 0.0195 4.35540905878
0.0025 0.0205 4.32034950724
0.0025 0.0215 4.2846920858
0.0025 0.0225 4.24850644134
0.0025 0.0235 4.21185972434
0.0025 0.0245 4.17481653074
0.0025 0.0255 4.13744763301
0.0025 0.0265 4.09985071855
0.0025 0.0275 4.06220104527
0.0025 0.0285 4.02492762555
0.0025 0.0295 3.98926662442
0.0025 0.0305 3.9585413605
0.0025 0.0315 3.93945212068
0.0035 -0.0315 4.42989075301
0.0035 -0.0305 4.45367932439
0.0035 -0.0295 4.49517025905
0.0035 -0.0285 4.54704648255
0.0035 -0.0275 4.60399964044
0.0035 -0.0265 4.66289393646
0.0035 -0.0255 4.72172309728
0.0035 -0.0245 4.77847942897
0.0035 -0.0235 4.83035348705
0.0035 -0.0225 4.87363291276
0.0035 -0.0215 4.90508057598
0.0035 -0.0205 4.92407856128
0.0035 -0.0195 4.93321778494
0.0035 -0.0185 4.93657685369
0.0035 -0.0175 4.93711290059
0.0035 -0.0165 4.93642461688
0.0035 -0.0155 4.92869998206
0.0035 -0.0145 4.90413110711
0.0035 -0.0135 4.86546818651
0.0035 -0.0125 4.83037875809
0.0035 -0.0115 4.81064437627
0.0035 -0.0105 4.80385324318
0.0035 -0.0095 4.8027706608
0.0035 -0.0085 4.79911269974
0.0035 -0.0075 4.78928437978
0.0035 -0.0065 4.77517512756
0.0035 -0.0055 4.76013749005
0.0035 -0.0045 4.74642957309
0.0035 -0.0035 4.73453610697
0.0035 -0.0025 4.7239784839
0.0035 -0.0015 4.71446759244
0.0035 -0.0005 4.70600887597
0.0035 0.0005 4.69905920574
0.0035 0.0015 4.69448724697
0.0035 0.0025 4.69330557512
0.0035 0.0035 4.69588950066
0.0035 0.0045 4.70061302695
0.0035 0.0055 4.70314178728
0.0035 0.0065 4.69849792577
0.0035 0.0075 4.68550758774
0.0035 0.0085 4.6671155093
0.0035 0.0095 4.64611886469
0.0035 0.0105 4.623452398
0.0035 0.0115 4.59923156044
0.0035 0.0125 4.57339028537
0.0035 0.0135 4.54590240921
0.0035 0.0145 4.51690668614
0.0035 0.0155 4.48652098109
0.0035 0.0165 4.45479478985
0.0035 0.0175 4.42174445647
0.0035 0.0185 4.38739794507
0.0035 0.0195 4.35181723881
0.0035 0.0205 4.31509137121
0.0035 0.0215 4.27731876867
0.0035 0.0225 4.23859411607
0.0035 0.0235 4.19900495299
0.0035 0.0245 4.15864100498
0.0035 0.0255 4.11762080963
0.0035 0.0265 4.07615078502
0.0035 0.0275 4.03466756111
0.0035 0.0285 3.9941703665
0.0035 0.0295 3.95682845172
0.0035 0.0305 3.92657950236
0.0035 0.0315 3.90895925227
0.0045 -0.0315 4.38987397329
0.0045 -0.0305 4.413184982
0.0045 -0.0295 4.45536466538
0.0045 -0.0285 4.51027160303
0.0045 -0.0275 4.57253229318
0.0045 -0.0265 4.63798084407
0.0045 -0.0255 4.70334540738
0.0045 -0.0245 4.76557964479
0.0045 -0.0235 4.82128763881
0.0045 -0.0225 4.86686519069
0.0045 -0.0215 4.89975512019
0.0045 -0.0205 4.91995170079
0.0045 -0.0195 4.93008463597
0.0045 -0.0185 4.93414552457
0.0045 -0.0175 4.93519259399
0.0045 -0.0165 4.93779430182
0.0045 -0.0155 4.94607917625
0.0045 -0.0145 4.9536569293
0.0045 -0.0135 4.94566626974
0.0045 -0.0125 4.91989431898
0.0045 -0.0115 4.88926374906
0.0045 -0.0105 4.86220316787
0.0045 -0.0095 4.83826724541
0.0045 -0.0085 4.81470394153
0.0045 -0.0075 4.79185588227
0.0045 -0.0065 4.77189254237
0.0045 -0.0055 4.75556905885
0.0045 -0.0045 4.74233436119
0.0045 -0.0035 4.73106958588
0.0045 -0.0025 4.72080104351
0.0045 -0.0015 4.71101338534
0.0045 -0.0005 4.70156323595
0.0045 0.0005 4.69265559862
0.0045 0.0015 4.68484374688
0.0045 0.0025 4.67910733396
0.0045 0.0035 4.67660258866
0.0045 0.0045 4.67722679728
0.0045 0.0055 4.67777008499
0.0045 0.0065 4.67290399294
0.0045 0.0075 4.66013040012
0.0045 0.0085 4.64190659892
0.0045 0.0095 4.62189874732
0.0045 0.0105 4.60181250629
0.0045 0.0115 4.58145337728
0.0045 0.0125 4.55994470219
0.0045 0.0135 4.53646732815
0.0045 0.0145 4.51056389726
0.0045 0.0155 4.48217607778
0.0045 0.0165 4.45141305208
0.0045 0.0175 4.41843726428
0.0045 0.0185 4.38341894962
0.0045 0.0195 4.34652383789
0.0045 0.0205 4.30790966943
0.0045 0.0215 4.26772283306
0.0045 0.0225 4.22609894566
0.0045 0.0235 4.1831741144
0.0045 0.0245 4.13911375235
0.0045 0.0255 4.09417169741
0.0045 0.0265 4.04880621715
0.0045 0.0275 4.00389631882
0.0045 0.0285 3.96107112678
0.0045 0.0295 3.92300911271
0.0045 0.0305 3.89346038223
0.0045 0.0315 3.87689240504
0.0055 -0.0315 4.34826530488
0.0055 -0.0305 4.3718103495
0.0055 -0.0295 4.41515478216
0.0055 -0.0285 4.47271732584
0.0055 -0.0275 4.53918000439
0.0055 -0.0265 4.60983131797
0.0055 -0.0255 4.68046194683
0.0055 -0.0245 4.74714714655
0.0055 -0.0235 4.80605903707
0.0055 -0.0225 4.85378977627
0.0055 -0.0215 4.88841028793
0.0055 -0.0205 4.91051714088
0.0055 -0.0195 4.92300777416
0.0055 -0.0185 4.92969322731
0.0055 -0.0175 4.93333589598
0.0055 -0.0165 4.93891202886
0.0055 -0.0155 4.95735239692
0.0055 -0.0145 4.98746622143
0.0055 -0.0135 5.0054101364
0.0055 -0.0125 4.99387561715
0.0055 -0.0115 4.95929786875
0.0055 -0.0105 4.91590633289
0.0055 -0.0095 4.87237452775
0.0055 -0.0085 4.83290223099
0.0055 -0.0075 4.800605345
0.0055 -0.0065 4.77604991068
0.0055 -0.0055 4.75752717786
0.0055 -0.0045 4.74302933739
0.0055 -0.0035 4.73086790811
0.0055 -0.0025 4.71987455605
0.0055 -0.0015 4.70935820348
0.0055 -0.0005 4.69899228239
0.0055 0.0005 4.68874066701
0.0055 0.0015 4.67882150791
0.0055 0.0025 4.66969747856
0.0055 0.0035 4.6620945631
0.0055 0.0045 4.65663617882
0.0055 0.0055 4.65228827169
0.0055 0.0065 4.64528414032
0.0055 0.0075 4.6326062619
0.0055 0.0085 4.61571938722
0.0055 0.0095 4.59754986928
0.0055 0.0105 4.57961816372
0.0055 0.0115 4.56210486368
0.0055 0.0125 4.54407138776
0.0055 0.0135 4.52424068527
0.0055 0.0145 4.50149793847
0.0055 0.0155 4.47533392381
0.0055 0.0165 4.44575336167
0.0055 0.0175 4.41300514467
0.0055 0.0185 4.37739598061
0.0055 0.0195 4.3392043938
0.0055 0.0205 4.29866301287
0.0055 0.0215 4.25597155718
0.0055 0.0225 4.21132200264
0.0055 0.0235 4.16493268518
0.0055 0.0245 4.11710496428
0.0055 0.0255 4.06831849954
0.0055 0.0265 4.01938377263
0.0055 0.0275 3.97164382772
0.0055 0.0285 3.92714571465
0.0055 0.0295 3.88866211108
0.0055 0.0305 3.85958480534
0.0055 0.0315 3.84364979028
0.0065 -0.0315 4.30518988929
0.0065 -0.0305 4.32946644761
0.0065 -0.0295 4.3744889801
0.0065 -0.0285 4.43473599045
0.0065 -0.0275 4.50477505499
0.0065 -0.0265 4.57954712501
0.0065 -0.0255 4.65427281483
0.0065 -0.0245 4.72444444246
0.0065 -0.0235 4.78590748197
0.0065 -0.0225 4.83530570269
0.0065 -0.0215 4.87117273287
0.0065 -0.0205 4.8948758641
0.0065 -0.0195 4.91000877821
0.0065 -0.0185 4.92046952575
0.0065 -0.0175 4.92836093257
0.0065 -0.0165 4.93755589007
0.0065 -0.0155 4.96059760313
0.0065 -0.0145 4.99909053925
0.0065 -0.0135 5.02779753442
0.0065 -0.0125 5.02430629952
0.0065 -0.0115 4.9911903781
0.0065 -0.0105 4.94374481824
0.0065 -0.0095 4.89402384032
0.0065 -0.0085 4.84852033499
0.0065 -0.0075 4.811038819
0.0065 -0.0065 4.78227524113
0.0065 -0.0055 4.76052441875
0.0065 -0.0045 4.74360775309
0.0065 -0.0035 4.72973613742
0.0065 -0.0025 4.71757841773
0.0065 -0.0015 4.70620450327
0.0065 -0.0005 4.69501824802
0.0065 0.0005 4.6837222456
0.0065 0.0015 4.67233349225
0.0065 0.0025 4.6611108746
0.0065 0.0035 4.65030135655
0.0065 0.0045 4.64013901154
0.0065 0.0055 4.6306447093
0.0065 0.0065 4.620434734
0.0065 0.0075 4.60727341263
0.0065 0.0085 4.59153880308
0.0065 0.0095 4.57526358163
0.0065 0.0105 4.55925332266
0.0065 0.0115 4.54363058332
0.0065 0.0125 4.52780880983
0.0065 0.0135 4.51046452651
0.0065 0.0145 4.49015324305
0.0065 0.0155 4.46587356757
0.0065 0.0165 4.43737345091
0.0065 0.0175 4.4048951812
0.0065 0.0185 4.36881790822
0.0065 0.0195 4.32947998165
0.0065 0.0205 4.28714722058
0.0065 0.0215 4.24205489282
0.0065 0.0225 4.19445593535
0.0065 0.0235 4.14468176681
0.0065 0.0245 4.09322315018
0.0065 0.0255 4.04084728669
0.0065 0.0265 3.98874038366
0.0065 0.0275 3.93862044311
0.0065 0.0285 3.89274972396
0.0065 0.0295 3.85384424583
0.0065 0.0305 3.82498379816
0.0065 0.0315 3.80940867614
0.0075 -0.0315 4.26062501546
0.0075 -0.0305 4.28597256311
0.0075 -0.0295 4.33308475487
0.0075 -0.0285 4.39620596466
0.0075 -0.0275 4.46961312882
0.0075 -0.0265 4.54792177949
0.0075 -0.0255 4.62597049652
0.0075 -0.0245 4.69886045456
0.0075 -0.0235 4.76216073096
0.0075 -0.0225 4.8124869615
0.0075 -0.0215 4.84872882486
0.0075 -0.0205 4.87300869168
0.0075 -0.0195 4.88973452296
0.0075 -0.0185 4.90318274442
0.0075 -0.0175 4.91461859556
0.0075 -0.0165 4.9261353129
0.0075 -0.0155 4.9483172938
0.0075 -0.0145 4.98398376934
0.0075 -0.0135 5.0127946797
0.0075 -0.0125 5.01463135872
0.0075 -0.0115 4.98952833278
0.0075 -0.0105 4.9487613571
0.0075 -0.0095 4.90231136009
0.0075 -0.0085 4.85651281405
0.0075 -0.0075 4.81589842003
0.0075 -0.0065 4.78273770482
0.0075 -0.0055 4.75682092263
0.0075 -0.0045 4.73666674065
0.0075 -0.0035 4.72060146568
0.0075 -0.0025 4.70719537737
0.0075 -0.0015 4.69530905795
0.0075 -0.0005 4.68405164494
0.0075 0.0005 4.67278771309
0.0075 0.0015 4.66118553602
0.0075 0.0025 4.64916670141
0.0075 0.0035 4.6366945985
0.0075 0.0045 4.62393790707
0.0075 0.0055 4.61138285919
0.0075 0.0065 4.59900048559
0.0075 0.0075 4.58566320334
0.0075 0.0085 4.57092219431
0.0075 0.0095 4.55597712949
0.0075 0.0105 4.54149101436
0.0075 0.0115 4.52719554716
0.0075 0.0125 4.51253923675
0.0075 0.0135 4.49635759178
0.0075 0.0145 4.47721785194
0.0075 0.0155 4.45394638734
0.0075 0.0165 4.42603838717
0.0075 0.0175 4.39365817256
0.0075 0.0185 4.35719012439
0.0075 0.0195 4.31692803117
0.0075 0.0205 4.27308080175
0.0075 0.0215 4.22585309908
0.0075 0.0225 4.17553659242
0.0075 0.0235 4.12258579324
0.0075 0.0245 4.06771319635
0.0075 0.0255 4.01200744011
0.0075 0.0265 3.95702422804
0.0075 0.0275 3.90478814526
0.0075 0.0285 3.85769084675
0.0075 0.0295 3.81835856984
0.0075 0.0305 3.78960210541
0.0075 0.0315 3.7742733828
0.0085 -0.0315 4.21447086754
0.0085 -0.0305 4.24112772903
0.0085 -0.0295 4.29066037579
0.0085 -0.0285 4.35691411049
0.0085 -0.0275 4.43375866925
0.0085 -0.0265 4.51544224751
0.0085 -0.0255 4.59644574564
0.0085 -0.0245 4.67150664175
0.0085 -0.0235 4.73590666424
0.0085 -0.0225 4.78629431889
0.0085 -0.0215 4.82201905696
0.0085 -0.0205 4.84584382395
0.0085 -0.0195 4.86263922411
0.0085 -0.0185 4.87667794939
0.0085 -0.0175 4.88850261171
0.0085 -0.0165 4.89900052277
0.0085 -0.0155 4.91675140477
0.0085 -0.0145 4.94566995401
0.0085 -0.0135 4.97186321473
0.0085 -0.0125 4.97912479601
0.0085 -0.0115 4.96407908387
0.0085 -0.0105 4.93211959756
0.0085 -0.0095 4.89042727876
0.0085 -0.0085 4.8454597108
0.0085 -0.0075 4.80263377951
0.0085 -0.0065 4.7654418542
0.0085 -0.0055 4.73509861751
0.0085 -0.0045 4.71124344026
0.0085 -0.0035 4.69277732582
0.0085 -0.0025 4.67843692853
0.0085 -0.0015 4.66702784543
0.0085 -0.0005 4.6574550151
0.0085 0.0005 4.64869719431
0.0085 0.0015 4.63976751767
0.0085 0.0025 4.62975545262
0.0085 0.0035 4.61812004692
0.0085 0.0045 4.60517331754
0.0085 0.0055 4.59199680618
0.0085 0.0065 4.57944960656
0.0085 0.0075 4.56723775614
0.0085 0.0085 4.55428497978
0.0085 0.0095 4.54051974053
0.0085 0.0105 4.52676729659
0.0085 0.0115 4.51309752355
0.0085 0.0125 4.49879623137
0.0085 0.0135 4.48268387773
0.0085 0.0145 4.4633614602
0.0085 0.0155 4.43981506045
0.0085 0.0165 4.41168144339
0.0085 0.0175 4.37902146833
0.0085 0.0185 4.34209513079
0.0085 0.0195 4.30110334885
0.0085 0.0205 4.25607481308
0.0085 0.0215 4.20707797913
0.0085 0.0225 4.15436207657
0.0085 0.0235 4.0984677156
0.0085 0.0245 4.04035272755
0.0085 0.0255 3.9814828964
0.0085 0.0265 3.92382497183
0.0085 0.0275 3.86970221265
0.0085 0.0285 3.82158909276
0.0085 0.0295 3.78197645452
0.0085 0.0305 3.75339158444
0.0085 0.0315 3.73831911312
0.0095 -0.0315 4.1666022376
0.0095 -0.0305 4.1947443771
0.0095 -0.0295 4.24698341589
0.0095 -0.0285 4.31666637734
0.0095 -0.0275 4.39717229434
0.0095 -0.0265 4.48231856493
0.0095 -0.0255 4.56616974701
0.0095 -0.0245 4.64303954326
0.0095 -0.0235 4.70788443677
0.0095 -0.0225 4.75749143794
0.0095 -0.0215 4.79191904194
0.0095 -0.0205 4.8145876065
0.0095 -0.0195 4.83042115411
0.0095 -0.0185 4.84306553935
0.0095 -0.0175 4.85298724042
0.0095 -0.0165 4.86132726006
0.0095 -0.0155 4.87457470888
0.0095 -0.0145 4.89607292531
0.0095 -0.0135 4.91700339204
0.0095 -0.0125 4.92510570247
0.0095 -0.0115 4.91497401455
0.0095 -0.0105 4.88805589011
0.0095 -0.0095 4.84946482816
0.0095 -0.0085 4.80523284399
0.0095 -0.0075 4.76086340155
0.0095 -0.0065 4.72046598485
0.0095 -0.0055 4.68633741966
0.0095 -0.0045 4.65918697355
0.0095 -0.0035 4.63871545272
0.0095 -0.0025 4.62413370043
0.0095 -0.0015 4.6144559864
0.0095 -0.0005 4.60856762709
0.0095 0.0005 4.60512354362
0.0095 0.0015 4.60243075331
0.0095 0.0025 4.5986017989
0.0095 0.0035 4.59214249176
0.0095 0.0045 4.5827877399
0.0095 0.0055 4.57181704934
0.0095 0.0065 4.56109025835
0.0095 0.0075 4.5513042341
0.0095 0.0085 4.54137003547
0.0095 0.0095 4.52972873326
0.0095 0.0105 4.51626847736
0.0095 0.0115 4.50197251389
0.0095 0.0125 4.48689040691
0.0095 0.0135 4.46977398078
0.0095 0.0145 4.44907878118
0.0095 0.0155 4.4239094394
0.0095 0.0165 4.3943625698
0.0095 0.0175 4.36078615259
0.0095 0.0185 4.32320439699
0.0095 0.0195 4.28152886318
0.0095 0.0205 4.23559107221
0.0095 0.0215 4.18519331719
0.0095 0.0225 4.13037032698
0.0095 0.0235 4.07167403142
0.0095 0.0245 4.01036896797
0.0095 0.0255 3.94844984609
0.0095 0.0265 3.88839458778
0.0095 0.0275 3.83279507546
0.0095 0.0285 3.78409725098
0.0095 0.0295 3.74455212369
0.0095 0.0305 3.71635191314
0.0095 0.0315 3.70161994562
0.0105 -0.0315 4.11688982332
0.0105 -0.0305 4.14665615042
0.0105 -0.0295 4.2018597849
0.0105 -0.0285 4.27528026781
0.0105 -0.0275 4.35972603025
0.0105 -0.0265 4.44850790676
0.0105 -0.0255 4.53519746049
0.0105 -0.0245 4.61362439186
0.0105 -0.0235 4.67844255637
0.0105 -0.0225 4.72668863373
0.0105 -0.0215 4.75924229346
0.0105 -0.0205 4.78026338276
0.0105 -0.0195 4.79474640384
0.0105 -0.0185 4.80575684382
0.0105 -0.0175 4.81415773978
0.0105 -0.0165 4.82146566122
0.0105 -0.0155 4.8312755161
0.0105 -0.0145 4.84484830139
0.0105 -0.0135 4.85664166628
0.0105 -0.0125 4.85849284517
0.0105 -0.0115 4.84571231474
0.0105 -0.0105 4.81833048848
0.0105 -0.0095 4.77987292503
0.0105 -0.0085 4.73539237841
0.0105 -0.0075 4.68990816193
0.0105 -0.0065 4.64747380051
0.0105 -0.0055 4.61082731895
0.0105 -0.0045 4.58142625656
0.0105 -0.0035 4.55974258655
0.0105 -0.0025 4.54561760162
0.0105 -0.0015 4.53849461996
0.0105 -0.0005 4.53745437598
0.0105 0.0005 4.54106704937
0.0105 0.0015 4.54723113957
0.0105 0.0025 4.55330472513
0.0105 0.0035 4.55667584502
0.0105 0.0045 4.55570766576
0.0105 0.0055 4.55072378299
0.0105 0.0065 4.54392354829
0.0105 0.0075 4.5374967493
0.0105 0.0085 4.53154356194
0.0105 0.0095 4.52364573197
0.0105 0.0105 4.51144999731
0.0105 0.0115 4.49552837911
0.0105 0.0125 4.47771319603
0.0105 0.0135 4.45794941481
0.0105 0.0145 4.43461879227
0.0105 0.0155 4.40669432524
0.0105 0.0165 4.3745368231
0.0105 0.0175 4.33895369888
0.0105 0.0185 4.30009897619
0.0105 0.0195 4.25759741226
0.0105 0.0205 4.21087877876
0.0105 0.0215 4.15928227397
0.0105 0.0225 4.10245156818
0.0105 0.0235 4.04089752833
0.0105 0.0245 3.97640043045
0.0105 0.0255 3.91173671206
0.0105 0.0265 3.84991981384
0.0105 0.0275 3.7936245188
0.0105 0.0285 3.7450512746
0.0105 0.0295 3.70608121854
0.0105 0.0305 3.67854625797
0.0105 0.0315 3.66425995084
0.0115 -0.0315 4.06521070047
0.0115 -0.0305 4.09670665937
0.0115 -0.0295 4.15509877999
0.0115 -0.0285 4.2325405185
0.0115 -0.0275 4.32118222301
0.0115 -0.0265 4.4137403661
0.0115 -0.0255 4.50322422387
0.0115 -0.0245 4.58297709578
0.0115 -0.0235 4.64750515126
0.0115 -0.0225 4.69425104473
0.0115 -0.0215 4.72482758395
0.0115 -0.0205 4.74409721376
0.0115 -0.0195 4.75733019644
0.0115 -0.0185 4.76746850935
0.0115 -0.0175 4.775596515
0.0115 -0.0165 4.78262182621
0.0115 -0.0155 4.78955720358
0.0115 -0.0145 4.79527245745
0.0115 -0.0135 4.79558102063
0.0115 -0.0125 4.7862047934
0.0115 -0.0115 4.76494340793
0.0115 -0.0105 4.73231787436
0.0115 -0.0095 4.69110955916
0.0115 -0.0085 4.64526585548
0.0115 -0.0075 4.59887560262
0.0115 -0.0065 4.55545986178
0.0115 -0.0055 4.51765864559
0.0115 -0.0045 4.48722595305
0.0115 -0.0035 4.46517098246
0.0115 -0.0025 4.4519270682
0.0115 -0.0015 4.44744931326
0.0115 -0.0005 4.45117757852
0.0115 0.0005 4.46186168347
0.0115 0.0015 4.47737226447
0.0115 0.0025 4.49474656674
0.0115 0.0035 4.51059218096
0.0115 0.0045 4.52182803468
0.0115 0.0055 4.52690852347
0.0115 0.0065 4.52691481696
0.0115 0.0075 4.52505984844
0.0115 0.0085 4.52361278899
0.0115 0.0095 4.5206664524
0.0115 0.0105 4.51158027412
0.0115 0.0115 4.49457795252
0.0115 0.0125 4.47231791344
0.0115 0.0135 4.44743424059
0.0115 0.0145 4.41976532366
0.0115 0.0155 4.388156114
0.0115 0.0165 4.35257185164
0.0115 0.0175 4.31391727329
0.0115 0.0185 4.27269168442
0.0115 0.0195 4.2286302841
0.0115 0.0205 4.18082928253
0.0115 0.0215 4.12782999613
0.0115 0.0225 4.06865973162
0.0115 0.0235 4.00402374345
0.0115 0.0245 3.93663323867
0.0115 0.0255 3.87015508862
0.0115 0.0265 3.80784700492
0.0115 0.0275 3.75207471415
0.0115 0.0285 3.70454459676
0.0115 0.0295 3.66670331608
0.0115 0.0305 3.64008482535
0.0115 0.0315 3.62631323253
0.0125 -0.0315 4.01144984045
0.0125 -0.0305 4.04473275745
0.0125 -0.0295 4.10647261335
0.0125 -0.0285 4.18814941076
0.0125 -0.0275 4.28116336057
0.0125 -0.0265 4.37754083096
0.0125 -0.0255 4.46966280391
0.0125 -0.0245 4.55046011803
0.0125 -0.0235 4.61458426524
0.0125 -0.0225 4.66011113998
0.0125 -0.0215 4.68930035415
0.0125 -0.0205 4.70744704588
0.0125 -0.0195 4.7199548217
0.0125 -0.0185 4.72992674699
0.0125 -0.0175 4.73833109679
0.0125 -0.0165 4.74496517188
0.0125 -0.0155 4.74885504082
0.0125 -0.0145 4.74685864068
0.0125 -0.0135 4.73529348718
0.0125 -0.0125 4.71301298672
0.0125 -0.0115 4.68075177524
0.0125 -0.0105 4.64042818787
0.0125 -0.0095 4.59475020048
0.0125 -0.0085 4.54680431562
0.0125 -0.0075 4.49965911096
0.0125 -0.0065 4.45602918001
0.0125 -0.0055 4.41811975796
0.0125 -0.0045 4.3876483536
0.0125 -0.0035 4.36590004735
0.0125 -0.0025 4.35374825919
0.0125 -0.0015 4.35160040139
0.0125 -0.0005 4.35926770999
0.0125 0.0005 4.37577456259
0.0125 0.0015 4.39918458433
0.0125 0.0025 4.42659960082
0.0125 0.0035 4.45439763
0.0125 0.0045 4.47872539271
0.0125 0.0055 4.496429505
0.0125 0.0065 4.50659355108
0.0125 0.0075 4.51162182273
0.0125 0.0085 4.51525954796
0.0125 0.0095 4.51724763089
0.0125 0.0105 4.51201942862
0.0125 0.0115 4.4952172973
0.0125 0.0125 4.46852219239
0.0125 0.0135 4.43677714314
0.0125 0.0145 4.40286996575
0.0125 0.0155 4.36671820847
0.0125 0.0165 4.32760048957
0.0125 0.0175 4.285553126
0.0125 0.0185 4.24104140026
0.0125 0.0195 4.19429707489
0.0125 0.0205 4.14427256309
0.0125 0.0215 4.08857414325
0.0125 0.0225 4.02603523058
0.0125 0.0235 3.95835775243
0.0125 0.0245 3.88933327274
0.0125 0.0255 3.82301110865
0.0125 0.0265 3.76217976685
0.0125 0.0275 3.70844504591
0.0125 0.0285 3.66289893752
0.0125 0.0295 3.62664341265
0.0125 0.0305 3.60108173064
0.0125 0.0315 3.58782534593
0.0135 -0.0315 3.95549070965
0.0135 -0.0305 3.99054929952
0.0135 -0.0295 4.05568486625
0.0135 -0.0285 4.14168402838
0.0135 -0.0275 4.23911621374
0.0135 -0.0265 4.33922606118
0.0135 -0.0255 4.43370751889
0.0135 -0.0245 4.51520818175
0.0135 -0.0235 4.57886223041
0.0135 -0.0225 4.62365298443
0.0135 -0.0215 4.65249242292
0.0135 -0.0205 4.67068657912
0.0135 -0.0195 4.68330540526
0.0135 -0.0185 4.69363641872
0.0135 -0.0175 4.70234500219
0.0135 -0.0165 4.70794203194
0.0135 -0.0155 4.70778323426
0.0135 -0.0145 4.69756827239
0.0135 -0.0135 4.67457506757
0.0135 -0.0125 4.64008790655
0.0135 -0.0115 4.59713082878
0.0135 -0.0105 4.54895007905
0.0135 -0.0095 4.49847436356
0.0135 -0.0085 4.44825179854
0.0135 -0.0075 4.40048483438
0.0135 -0.0065 4.35705807944
0.0135 -0.0055 4.3196389233
0.0135 -0.0045 4.28976321739
0.0135 -0.0035 4.26881882406
0.0135 -0.0025 4.25794387772
0.0135 -0.0015 4.2578447744
0.0135 -0.0005 4.26858133166
0.0135 0.0005 4.2893690641
0.0135 0.0015 4.31845940744
0.0135 0.0025 4.35317013332
0.0135 0.0035 4.39007126622
0.0135 0.0045 4.42532594723
0.0135 0.0055 4.45526819904
0.0135 0.0065 4.47742628918
0.0135 0.0075 4.49197739778
0.0135 0.0085 4.50180067704
0.0135 0.0095 4.5077811989
0.0135 0.0105 4.50535216827
0.0135 0.0115 4.48938028346
0.0135 0.0125 4.46015609739
0.0135 0.0135 4.42263820757
0.0135 0.0145 4.38181251275
0.0135 0.0155 4.34001249316
0.0135 0.0165 4.29704991008
0.0135 0.0175 4.25180701678
0.0135 0.0185 4.2039454302
0.0135 0.0195 4.15362477378
0.0135 0.0205 4.0994961598
0.0135 0.0215 4.03863228438
0.0135 0.0225 3.97135995735
0.0135 0.0235 3.9017239259
0.0135 0.0245 3.83380328911
0.0135 0.0255 3.77061937652
0.0135 0.0265 3.71360363989
0.0135 0.0275 3.66336735209
0.0135 0.0285 3.62053411827
0.0135 0.0295 3.58611333811
0.0135 0.0305 3.56160824492
0.0135 0.0315 3.54880589904
0.0145 -0.0315 3.8972097294
0.0145 -0.0305 3.93394117581
0.0145 -0.0295 4.00235535086
0.0145 -0.0285 4.09256837732
0.0145 -0.0275 4.19427505979
0.0145 -0.0265 4.29787446606
0.0145 -0.0255 4.39435426722
0.0145 -0.0245 4.47623912098
0.0145 -0.0235 4.53937338499
0.0145 -0.0225 4.58382166661
0.0145 -0.0215 4.61319496654
0.0145 -0.0205 4.63255481057
0.0145 -0.0195 4.6463376654
0.0145 -0.0185 4.65772962475
0.0145 -0.0175 4.66671353819
0.0145 -0.0165 4.67035271033
0.0145 -0.0155 4.6644929682
0.0145 -0.0145 4.64500678292
0.0145 -0.0135 4.61127288434
0.0145 -0.0125 4.56634421142
0.0145 -0.0115 4.51447221583
0.0145 -0.0105 4.45966720279
0.0145 -0.0095 4.40506338349
0.0145 -0.0085 4.35288759189
0.0145 -0.0075 4.30468706949
0.0145 -0.0065 4.26167616164
0.0145 -0.0055 4.22506114129
0.0145 -0.0045 4.19616988333
0.0145 -0.0035 4.17639254501
0.0145 -0.0025 4.16698795142
0.0145 -0.0015 4.16880214225
0.0145 -0.0005 4.18198439844
0.0145 0.0005 4.20579053977
0.0145 0.0015 4.23853362481
0.0145 0.0025 4.27770542191
0.0145 0.0035 4.32021721609
0.0145 0.0045 4.36269214802
0.0145 0.0055 4.40178554086
0.0145 0.0065 4.434495794
0.0145 0.0075 4.4590963619
0.0145 0.0085 4.47606230054
0.0145 0.0095 4.48569406908
0.0145 0.0105 4.48511473604
0.0145 0.0115 4.4705362634
0.0145 0.0125 4.44161768428
0.0145 0.0135 4.40191819771
0.0145 0.0145 4.35634011127
0.0145 0.0155 4.3087376039
0.0145 0.0165 4.26016916803
0.0145 0.0175 4.20991676128
0.0145 0.0185 4.15754037905
0.0145 0.0195 4.10250003027
0.0145 0.0205 4.04230437093
0.0145 0.0215 3.97439543894
0.0145 0.0225 3.9028762496
0.0145 0.0235 3.83431890141
0.0145 0.0245 3.77136040578
0.0145 0.0255 3.71451105649
0.0145 0.0265 3.66331504709
0.0145 0.0275 3.61756848081
0.0145 0.0285 3.57779352325
0.0145 0.0295 3.54521644815
0.0145 0.0305 3.52165859016
0.0145 0.0315 3.50922063311
0.0155 -0.0315 3.8364865178
0.0155 -0.0305 3.87466500447
0.0155 -0.0295 3.94602343064
0.0155 -0.0285 4.0400700965
0.0155 -0.0275 4.14564156257
0.0155 -0.0265 4.25229044472
0.0155 -0.0255 4.35037030108
0.0155 -0.0245 4.43246049423
0.0155 -0.0235 4.49514439498
0.0155 -0.0225 4.5394981299
0.0155 -0.0215 4.56988244498
0.0155 -0.0205 4.59109207814
0.0155 -0.0195 4.6070088422
0.0155 -0.0185 4.62024222174
0.0155 -0.0175 4.62922837213
0.0155 -0.0165 4.62933993361
0.0155 -0.0155 4.61589532825
0.0155 -0.0145 4.58660581638
0.0155 -0.0135 4.54331730136
0.0155 -0.0125 4.49009289505
0.0155 -0.0115 4.4315650349
0.0155 -0.0105 4.37193129441
0.0155 -0.0095 4.31435082933
0.0155 -0.0085 4.26080473954
0.0155 -0.0075 4.21240859682
0.0155 -0.0065 4.16995476241
0.0155 -0.0055 4.13433363003
0.0155 -0.0045 4.10669238086
0.0155 -0.0035 4.08836892493
0.0155 -0.0025 4.08063451624
0.0155 -0.0015 4.08433990842
0.0155 -0.0005 4.09959075457
0.0155 0.0005 4.12556024119
0.0155 0.0015 4.16050977669
0.0155 0.0025 4.20201471737
0.0155 0.0035 4.24727917857
0.0155 0.0045 4.29339953465
0.0155 0.0055 4.33747506003
0.0155 0.0065 4.37663221886
0.0155 0.0075 4.40854181757
0.0155 0.0085 4.43192980051
0.0155 0.0095 4.44570049868
0.0155 0.0105 4.44778666238
0.0155 0.0115 4.43590624675
0.0155 0.0125 4.40955194968
0.0155 0.0135 4.37091800654
0.0155 0.0145 4.32418619015
0.0155 0.0155 4.27311021999
0.0155 0.0165 4.21834070924
0.0155 0.0175 4.15934127403
0.0155 0.0185 4.09746224143
0.0155 0.0195 4.03404749385
0.0155 0.0205 3.96666671046
0.0155 0.0215 3.8937246021
0.0155 0.0225 3.82257542517
0.0155 0.0235 3.75999718202
0.0155 0.0245 3.70551388542
0.0155 0.0255 3.65701583763
0.0155 0.0265 3.6125782458
0.0155 0.0275 3.57158956986
0.0155 0.0285 3.53479955996
0.0155 0.0295 3.50389546377
0.0155 0.0305 3.48114313586
0.0155 0.0315 3.46899967325
0.0165 -0.0315 3.77317435908
0.0165 -0.0305 3.81245789174
0.0165 -0.0295 3.88616903292
0.0165 -0.0285 3.98333209395
0.0165 -0.0275 4.09201054429
0.0165 -0.0265 4.20101049655
0.0165 -0.0255 4.30026582582
0.0165 -0.0245 4.38258319286
0.0165 -0.0235 4.44516402761
0.0165 -0.0225 4.48979828215
0.0165 -0.0215 4.52143726546
0.0165 -0.0205 4.54468571335
0.0165 -0.0195 4.56312419262
0.0165 -0.0185 4.57818396229
0.0165 -0.0175 4.58593541561
0.0165 -0.0165 4.58039468026
0.0165 -0.0155 4.55822273274
0.0165 -0.0145 4.51998431665
0.0165 -0.0135 4.46908178963