% Model:              Benchmark260518.mph
% Version:            COMSOL 6.2.0.339
% Date:               May 20 2026, 19:59
% Dimension:          2
% Nodes:              4096
% Expressions:        1
% Description:        压力
% Length unit:        m
% x                       y                        p (Pa)
5.0E-4                    -0.0315                  3.7999789398054045
5.0E-4                    -0.0305                  3.8278325544687215
5.0E-4                    -0.0295                  3.865648281182803
5.0E-4                    -0.0285                  3.9067290091386933
5.0E-4                    -0.0275                  3.9495469311750355
5.0E-4                    -0.0265                  3.9935587767791985
5.0E-4                    -0.0255                  4.038441647903319
5.0E-4                    -0.0245                  4.084006700725846
5.0E-4                    -0.0235                  4.130121144047547
5.0E-4                    -0.0225                  4.176677428147278
5.0E-4                    -0.0215                  4.223574031506246
5.0E-4                    -0.0205                  4.270713592628095
5.0E-4                    -0.0195                  4.318001471607371
5.0E-4                    -0.0185                  4.365361000389642
5.0E-4                    -0.0175                  4.412779342095643
5.0E-4                    -0.0165                  4.4603363534255465
5.0E-4                    -0.0155                  4.508267231310573
5.0E-4                    -0.0145                  4.5568566765846
5.0E-4                    -0.0135                  4.6053327728070705
5.0E-4                    -0.0125                  4.650786953855582
5.0E-4                    -0.0115                  4.6894074573080955
5.0E-4                    -0.0105                  4.716569673667877
5.0E-4                    -0.0095                  4.731057716046366
5.0E-4                    -0.0085                  4.736874874337989
5.0E-4                    -0.0075                  4.737477222092351
5.0E-4                    -0.0065                  4.734549495703586
5.0E-4                    -0.0055                  4.729194805498122
5.0E-4                    -0.0045                  4.722841454741582
5.0E-4                    -0.0035                  4.717435363216894
5.0E-4                    -0.0025                  4.71419745223819
5.0E-4                    -0.0015                  4.712103392095361
5.0E-4                    -5.0E-4                  4.707704774125373
5.0E-4                    5.0E-4                   4.697171977741622
5.0E-4                    0.0015                   4.678554563811115
5.0E-4                    0.0025                   4.653284790643193
5.0E-4                    0.0035                   4.626131414253697
5.0E-4                    0.0045                   4.60246111963731
5.0E-4                    0.0055                   4.5846872913608365
5.0E-4                    0.0065                   4.571071565618294
5.0E-4                    0.0075                   4.579856476134353
5.0E-4                    0.0085                   4.682911864302394
5.0E-4                    0.0095                   4.863144844213887
5.0E-4                    0.0105                   5.005742598539548
5.0E-4                    0.0115                   5.076548240371104
5.0E-4                    0.0125                   5.096386071522401
5.0E-4                    0.0135                   5.086058590186303
5.0E-4                    0.0145                   5.064526910224528
5.0E-4                    0.0155                   5.04286908762138
5.0E-4                    0.0165                   5.026632620731625
5.0E-4                    0.0175                   5.017833135028166
5.0E-4                    0.0185                   5.013274305413181
5.0E-4                    0.0195                   5.003945649110916
5.0E-4                    0.0205                   4.984943406286674
5.0E-4                    0.0215                   4.962569193885468
5.0E-4                    0.0225                   4.941223676195714
5.0E-4                    0.0235                   4.911239085409674
5.0E-4                    0.0245                   4.85380129426911
5.0E-4                    0.0255                   4.7750124195673775
5.0E-4                    0.0265                   4.696492426491192
5.0E-4                    0.0275                   4.623711064886005
5.0E-4                    0.0285                   4.556348584927475
5.0E-4                    0.0295                   4.493605927935704
5.0E-4                    0.0305                   4.436592277201459
5.0E-4                    0.0315                   4.3948765710805135
0.0015                    -0.0315                  3.7719384370438678
0.0015                    -0.0305                  3.8001617560363745
0.0015                    -0.0295                  3.841151500581991
0.0015                    -0.0285                  3.8859376541162227
0.0015                    -0.0275                  3.931955210904894
0.0015                    -0.0265                  3.9785404737171928
0.0015                    -0.0255                  4.025489230815611
0.0015                    -0.0245                  4.072733958697224
0.0015                    -0.0235                  4.120257368293358
0.0015                    -0.0225                  4.168045028013152
0.0015                    -0.0215                  4.216060559304049
0.0015                    -0.0205                  4.26423342973733
0.0015                    -0.0195                  4.312457896480085
0.0015                    -0.0185                  4.36061601367469
0.0015                    -0.0175                  4.408638657027105
0.0015                    -0.0165                  4.456615243331153
0.0015                    -0.0155                  4.5048636335726036
0.0015                    -0.0145                  4.553668536893912
0.0015                    -0.0135                  4.6024187185219585
0.0015                    -0.0125                  4.648472848184365
0.0015                    -0.0115                  4.688142664998445
0.0015                    -0.0105                  4.716077529307096
0.0015                    -0.0095                  4.731192550099368
0.0015                    -0.0085                  4.7379486229021
0.0015                    -0.0075                  4.738954135039336
0.0015                    -0.0065                  4.735443097096887
0.0015                    -0.0055                  4.728197055718818
0.0015                    -0.0045                  4.718680044705705
0.0015                    -0.0035                  4.709706031691712
0.0015                    -0.0025                  4.703613021534149
0.0015                    -0.0015                  4.700287286174602
0.0015                    -5.0E-4                  4.696623805532947
0.0015                    5.0E-4                   4.688285623147321
0.0015                    0.0015                   4.672275284494027
0.0015                    0.0025                   4.649124419686566
0.0015                    0.0035                   4.623448066748015
0.0015                    0.0045                   4.601284360771963
0.0015                    0.0055                   4.586419857534594
0.0015                    0.0065                   4.584035537058425
0.0015                    0.0075                   4.607155031691884
0.0015                    0.0085                   4.737188794311729
0.0015                    0.0095                   4.9339374581390425
0.0015                    0.0105                   5.0691288052409345
0.0015                    0.0115                   5.133692506099928
0.0015                    0.0125                   5.145903252551636
0.0015                    0.0135                   5.127982032721575
0.0015                    0.0145                   5.096892011971643
0.0015                    0.0155                   5.063408310581114
0.0015                    0.0165                   5.0344645870370055
0.0015                    0.0175                   5.01413717112805
0.0015                    0.0185                   4.99872909327788
0.0015                    0.0195                   4.974038334924261
0.0015                    0.0205                   4.9300469102880955
0.0015                    0.0215                   4.872963696199304
0.0015                    0.0225                   4.818550779848152
0.0015                    0.0235                   4.781054434055429
0.0015                    0.0245                   4.749516044887511
0.0015                    0.0255                   4.702238778259636
0.0015                    0.0265                   4.641605300094143
0.0015                    0.0275                   4.578071091666453
0.0015                    0.0285                   4.514676428255917
0.0015                    0.0295                   4.452007787449583
0.0015                    0.0305                   4.393339761237771
0.0015                    0.0315                   4.352560736658515
0.0025                    -0.0315                  3.7332689091497184
0.0025                    -0.0305                  3.7595337870784338
0.0025                    -0.0295                  3.8015109481919884
0.0025                    -0.0285                  3.849960467934933
0.0025                    -0.0275                  3.900328112171781
0.0025                    -0.0265                  3.950964702269043
0.0025                    -0.0255                  4.001395786111594
0.0025                    -0.0245                  4.05156328416449
0.0025                    -0.0235                  4.101556377825943
0.0025                    -0.0225                  4.1514895949251365
0.0025                    -0.0215                  4.20143419864481
0.0025                    -0.0205                  4.251384591679898
0.0025                    -0.0195                  4.301246004621206
0.0025                    -0.0185                  4.350843867437446
0.0025                    -0.0175                  4.399982579938501
0.0025                    -0.0165                  4.448551387898304
0.0025                    -0.0155                  4.496591548158749
0.0025                    -0.0145                  4.544157027335794
0.0025                    -0.0135                  4.590836642500657
0.0025                    -0.0125                  4.635011374253843
0.0025                    -0.0115                  4.674329507478676
0.0025                    -0.0105                  4.704805328333524
0.0025                    -0.0095                  4.724978953941189
0.0025                    -0.0085                  4.735793855706543
0.0025                    -0.0075                  4.736280154828402
0.0025                    -0.0065                  4.72654472509382
0.0025                    -0.0055                  4.709383775344293
0.0025                    -0.0045                  4.689760673707013
0.0025                    -0.0035                  4.672836704270981
0.0025                    -0.0025                  4.662152417411523
0.0025                    -0.0015                  4.658519336878396
0.0025                    -5.0E-4                  4.659733661192968
0.0025                    5.0E-4                   4.661190861280195
0.0025                    0.0015                   4.658652788985605
0.0025                    0.0025                   4.650716028218424
0.0025                    0.0035                   4.6392072596632055
0.0025                    0.0045                   4.630094649858224
0.0025                    0.0055                   4.633376563748913
0.0025                    0.0065                   4.66239019860664
0.0025                    0.0075                   4.7467616735971685
0.0025                    0.0085                   4.8940874497298745
0.0025                    0.0095                   5.044136085260805
0.0025                    0.0105                   5.145301243651823
0.0025                    0.0115                   5.191906740667663
0.0025                    0.0125                   5.194381671783348
0.0025                    0.0135                   5.169438800798918
0.0025                    0.0145                   5.128344566154804
0.0025                    0.0155                   5.080021072269511
0.0025                    0.0165                   5.032428676392606
0.0025                    0.0175                   4.991520746538473
0.0025                    0.0185                   4.955663766103857
0.0025                    0.0195                   4.91197732477157
0.0025                    0.0205                   4.850053161651317
0.0025                    0.0215                   4.776006585356791
0.0025                    0.0225                   4.706306387255666
0.0025                    0.0235                   4.653420272932971
0.0025                    0.0245                   4.617615957615808
0.0025                    0.0255                   4.5866050870515815
0.0025                    0.0265                   4.547754369823108
0.0025                    0.0275                   4.499136352076109
0.0025                    0.0285                   4.443631447105411
0.0025                    0.0295                   4.384624459330658
0.0025                    0.0305                   4.329762021333251
0.0025                    0.0315                   4.294570509533337
0.0035                    -0.0315                  3.6904434977283884
0.0035                    -0.0305                  3.714506207718084
0.0035                    -0.0295                  3.755407570286755
0.0035                    -0.0285                  3.805573881830793
0.0035                    -0.0275                  3.8596130246520404
0.0035                    -0.0265                  3.9145503852763253
0.0035                    -0.0255                  3.9691037452160742
0.0035                    -0.0245                  4.02289037598512
0.0035                    -0.0235                  4.075956023958759
0.0035                    -0.0225                  4.128510095519301
0.0035                    -0.0215                  4.180756359330758
0.0035                    -0.0205                  4.2327982505786625
0.0035                    -0.0195                  4.284601516623049
0.0035                    -0.0185                  4.335967913561447
0.0035                    -0.0175                  4.38650607720201
0.0035                    -0.0165                  4.4356422218848435
0.0035                    -0.0155                  4.482706393713651
0.0035                    -0.0145                  4.527159193056857
0.0035                    -0.0135                  4.568773875174681
0.0035                    -0.0125                  4.6078230739876345
0.0035                    -0.0115                  4.644627354108652
0.0035                    -0.0105                  4.6783252198296985
0.0035                    -0.0095                  4.705502264360505
0.0035                    -0.0085                  4.719086539211266
0.0035                    -0.0075                  4.712810145285797
0.0035                    -0.0065                  4.68839143971097
0.0035                    -0.0055                  4.65480885546537
0.0035                    -0.0045                  4.621510383592717
0.0035                    -0.0035                  4.595452671039305
0.0035                    -0.0025                  4.58138921701891
0.0035                    -0.0015                  4.5808473653143675
0.0035                    -5.0E-4                  4.592481324571152
0.0035                    5.0E-4                   4.61363310337542
0.0035                    0.0015                   4.640532626091843
0.0035                    0.0025                   4.669151586617147
0.0035                    0.0035                   4.697518338150779
0.0035                    0.0045                   4.7274057219735806
0.0035                    0.0055                   4.767501633926774
0.0035                    0.0065                   4.831972325566031
0.0035                    0.0075                   4.929213691681169
0.0035                    0.0085                   5.044240891892953
0.0035                    0.0095                   5.144182869622588
0.0035                    0.0105                   5.208586714118011
0.0035                    0.0115                   5.234454077918368
0.0035                    0.0125                   5.228252129061121
0.0035                    0.0135                   5.198393996940776
0.0035                    0.0145                   5.150119909911973
0.0035                    0.0155                   5.08935175083848
0.0035                    0.0165                   5.0232580949604575
0.0035                    0.0175                   4.957835361439688
0.0035                    0.0185                   4.893983905895632
0.0035                    0.0195                   4.827246816751656
0.0035                    0.0205                   4.753315208395375
0.0035                    0.0215                   4.675513798805554
0.0035                    0.0225                   4.6014033215116275
0.0035                    0.0235                   4.53981222487635
0.0035                    0.0245                   4.496483765348898
0.0035                    0.0255                   4.467052839757029
0.0035                    0.0265                   4.439933811101051
0.0035                    0.0275                   4.404876017241656
0.0035                    0.0285                   4.359332890384859
0.0035                    0.0295                   4.307736647032769
0.0035                    0.0305                   4.2602834973454815
0.0035                    0.0315                   4.231087553914703
0.0045                    -0.0315                  3.6450760461888483
0.0045                    -0.0305                  3.6674332720228393
0.0045                    -0.0295                  3.706858596596749
0.0045                    -0.0285                  3.7573559099825093
0.0045                    -0.0275                  3.8138458248250697
0.0045                    -0.0265                  3.872596368312753
0.0045                    -0.0255                  3.931350589415202
0.0045                    -0.0245                  3.9890473875383052
0.0045                    -0.0235                  4.045428421850537
0.0045                    -0.0225                  4.100690633080598
0.0045                    -0.0215                  4.15518867556402
0.0045                    -0.0205                  4.209206986919858
0.0045                    -0.0195                  4.262837756579601
0.0045                    -0.0185                  4.315915828588395
0.0045                    -0.0175                  4.367875785199773
0.0045                    -0.0165                  4.417573840267901
0.0045                    -0.0155                  4.463415753341692
0.0045                    -0.0145                  4.504006504869426
0.0045                    -0.0135                  4.539445281215917
0.0045                    -0.0125                  4.571943330687476
0.0045                    -0.0115                  4.604504626156889
0.0045                    -0.0105                  4.638228549525386
0.0045                    -0.0095                  4.6666844716592575
0.0045                    -0.0085                  4.675561150542729
0.0045                    -0.0075                  4.656671255538089
0.0045                    -0.0065                  4.616693953552057
0.0045                    -0.0055                  4.569723740498546
0.0045                    -0.0045                  4.5289364069932505
0.0045                    -0.0035                  4.502957344336312
0.0045                    -0.0025                  4.49448094995275
0.0045                    -0.0015                  4.502432648627664
0.0045                    -5.0E-4                  4.525996138158002
0.0045                    5.0E-4                   4.5667032264643215
0.0045                    0.0015                   4.626280397266686
0.0045                    0.0025                   4.702290396673301
0.0045                    0.0035                   4.786978310634844
0.0045                    0.0045                   4.870317720761202
0.0045                    0.0055                   4.948073550533572
0.0045                    0.0065                   5.0230644433026725
0.0045                    0.0075                   5.0958391966539835
0.0045                    0.0085                   5.160705548950367
0.0045                    0.0095                   5.2110235302687515
0.0045                    0.0105                   5.242442437864033
0.0045                    0.0115                   5.252412687875032
0.0045                    0.0125                   5.241367082209992
0.0045                    0.0135                   5.210485742712529
0.0045                    0.0145                   5.1606852830019445
0.0045                    0.0155                   5.0930110163273365
0.0045                    0.0165                   5.010326003393596
0.0045                    0.0175                   4.918560321795498
0.0045                    0.0185                   4.82279146169717
0.0045                    0.0195                   4.730136836767791
0.0045                    0.0205                   4.647037109025836
0.0045                    0.0215                   4.572546227536849
0.0045                    0.0225                   4.504140407281653
0.0045                    0.0235                   4.443775435499491
0.0045                    0.0245                   4.396875149573944
0.0045                    0.0255                   4.364638040681489
0.0045                    0.0265                   4.3397619192056425
0.0045                    0.0275                   4.311459402111304
0.0045                    0.0285                   4.273667756067262
0.0045                    0.0295                   4.229433386456428
0.0045                    0.0305                   4.188713859884892
0.0045                    0.0315                   4.1639664728596415
0.0055                    -0.0315                  3.5977250590989156
0.0055                    -0.0305                  3.618877031483914
0.0055                    -0.0295                  3.6570336051607937
0.0055                    -0.0285                  3.7073906427202887
0.0055                    -0.0275                  3.7654858057775913
0.0055                    -0.0265                  3.8274359994227365
0.0055                    -0.0255                  3.890240302567981
0.0055                    -0.0245                  3.951969331286274
0.0055                    -0.0235                  4.011747391500497
0.0055                    -0.0225                  4.069553066033962
0.0055                    -0.0215                  4.125881996078697
0.0055                    -0.0205                  4.181343557153772
0.0055                    -0.0195                  4.236313485613696
0.0055                    -0.0185                  4.290731405098468
0.0055                    -0.0175                  4.3439493417733805
0.0055                    -0.0165                  4.3943922393788775
0.0055                    -0.0155                  4.439497756828142
0.0055                    -0.0145                  4.477276375080611
0.0055                    -0.0135                  4.508030230083383
0.0055                    -0.0125                  4.534872568412924
0.0055                    -0.0115                  4.562413488869139
0.0055                    -0.0105                  4.590957074186308
0.0055                    -0.0095                  4.611407590941715
0.0055                    -0.0085                  4.6091233905980635
0.0055                    -0.0075                  4.578653394821751
0.0055                    -0.0065                  4.530789224516099
0.0055                    -0.0055                  4.483804555611491
0.0055                    -0.0045                  4.4520476073567
0.0055                    -0.0035                  4.439678390915234
0.0055                    -0.0025                  4.443670130714384
0.0055                    -0.0015                  4.460969192966529
0.0055                    -5.0E-4                  4.4926254695357075
0.0055                    5.0E-4                   4.544324267592568
0.0055                    0.0015                   4.62523236568503
0.0055                    0.0025                   4.73862154643839
0.0055                    0.0035                   4.870001885500285
0.0055                    0.0045                   4.994918999453999
0.0055                    0.0055                   5.095741318250325
0.0055                    0.0065                   5.165170200087891
0.0055                    0.0075                   5.205108666394651
0.0055                    0.0085                   5.225750567411619
0.0055                    0.0095                   5.238739342219393
0.0055                    0.0105                   5.248157184083514
0.0055                    0.0115                   5.250026887569281
0.0055                    0.0125                   5.23888189045905
0.0055                    0.0135                   5.2101195613359135
0.0055                    0.0145                   5.159526507328015
0.0055                    0.0155                   5.082496230003451
0.0055                    0.0165                   4.9785483897420315
0.0055                    0.0175                   4.857214961333209
0.0055                    0.0185                   4.732904426839193
0.0055                    0.0195                   4.623020111794783
0.0055                    0.0205                   4.536882912351233
0.0055                    0.0215                   4.468659731498878
0.0055                    0.0225                   4.411184521374524
0.0055                    0.0235                   4.360379108184247
0.0055                    0.0245                   4.316951985828396
0.0055                    0.0255                   4.283414716899784
0.0055                    0.0265                   4.2563321612109455
0.0055                    0.0275                   4.227936371684432
0.0055                    0.0285                   4.192601930381353
0.0055                    0.0295                   4.152318804710832
0.0055                    0.0305                   4.115783329843632
0.0055                    0.0315                   4.09378835957844
0.0065                    -0.0315                  3.548733507635009
0.0065                    -0.0305                  3.5689937229596023
0.0065                    -0.0295                  3.6061305929207874
0.0065                    -0.0285                  3.656246351672095
0.0065                    -0.0275                  3.7155284261547523
0.0065                    -0.0265                  3.7802590154092535
0.0065                    -0.0255                  3.8470107755053538
0.0065                    -0.0245                  3.91298255063966
0.0065                    -0.0235                  3.976365563026749
0.0065                    -0.0225                  4.036568651333597
0.0065                    -0.0215                  4.094101296059424
0.0065                    -0.0205                  4.150093248711881
0.0065                    -0.0195                  4.205588719707637
0.0065                    -0.0185                  4.260910017551182
0.0065                    -0.0175                  4.315307869144596
0.0065                    -0.0165                  4.3668704896811565
0.0065                    -0.0155                  4.412424813800423
0.0065                    -0.0145                  4.449530386434329
0.0065                    -0.0135                  4.477888885469911
0.0065                    -0.0125                  4.500897103239314
0.0065                    -0.0115                  4.523235131473503
0.0065                    -0.0105                  4.543551976996485
0.0065                    -0.0095                  4.552205854800054
0.0065                    -0.0085                  4.538303165973023
0.0065                    -0.0075                  4.5017391589851155
0.0065                    -0.0065                  4.4580580157040615
0.0065                    -0.0055                  4.426303473438581
0.0065                    -0.0045                  4.413376328376676
0.0065                    -0.0035                  4.4152563247801595
0.0065                    -0.0025                  4.427483317922768
0.0065                    -0.0015                  4.450148224729421
0.0065                    -5.0E-4                  4.48702239157474
0.0065                    5.0E-4                   4.546159831891827
0.0065                    0.0015                   4.64070151190894
0.0065                    0.0025                   4.774416958447723
0.0065                    0.0035                   4.926055490971603
0.0065                    0.0045                   5.065695192151859
0.0065                    0.0055                   5.171669390063181
0.0065                    0.0065                   5.231996173053611
0.0065                    0.0075                   5.250252417169817
0.0065                    0.0085                   5.245356404334552
0.0065                    0.0095                   5.238593585451622
0.0065                    0.0105                   5.237602191770432
0.0065                    0.0115                   5.236359286365592
0.0065                    0.0125                   5.225253219229167