% Model:              Benchmark260518.mph
% Version:            COMSOL 6.2.0.339
% Date:               May 19 2026, 11:23
% Dimension:          2
% Nodes:              4096
% Expressions:        1
% Description:        压力
% Length unit:        m
% x                       y                        p (Pa)
% mirrored_by_python_y_to_minus_y, coord_match_decimals=12
0.0005 -0.0315 4.98563658609
0.0005 -0.0305 4.98028270929
0.0005 -0.0295 4.97410186235
0.0005 -0.0285 4.96857928721
0.0005 -0.0275 4.96238988508
0.0005 -0.0265 4.95177774458
0.0005 -0.0255 4.92510052901
0.0005 -0.0245 4.76561531647
0.0005 -0.0235 4.37318240199
0.0005 -0.0225 4.02073838025
0.0005 -0.0215 3.90670359479
0.0005 -0.0205 3.8838312248
0.0005 -0.0195 3.87742289528
0.0005 -0.0185 3.88889220865
0.0005 -0.0175 3.91966684801
0.0005 -0.0165 3.98073469913
0.0005 -0.0155 4.07192099402
0.0005 -0.0145 4.18312893537
0.0005 -0.0135 4.30542253116
0.0005 -0.0125 4.43083446873
0.0005 -0.0115 4.55443364331
0.0005 -0.0105 4.6734317278
0.0005 -0.0095 4.78409707539
0.0005 -0.0085 4.88198975243
0.0005 -0.0075 4.96364351699
0.0005 -0.0065 5.0266201548
0.0005 -0.0055 5.07055042909
0.0005 -0.0045 5.09692584608
0.0005 -0.0035 5.11021949916
0.0005 -0.0025 5.11748836845
0.0005 -0.0015 5.1251367799
0.0005 -0.0005 5.13850601263
0.0005 0.0005 5.15941346468
0.0005 0.0015 5.18376074175
0.0005 0.0025 5.20415253438
0.0005 0.0035 5.21484142091
0.0005 0.0045 5.21508925063
0.0005 0.0055 5.20943843923
0.0005 0.0065 5.20453853775
0.0005 0.0075 5.20504780006
0.0005 0.0085 5.21162922179
0.0005 0.0095 5.22167209591
0.0005 0.0105 5.23160577407
0.0005 0.0115 5.2389433756
0.0005 0.0125 5.24277378618
0.0005 0.0135 5.24213031139
0.0005 0.0145 5.23463361041
0.0005 0.0155 5.21555686663
0.0005 0.0165 5.17964230808
0.0005 0.0175 5.12854422888
0.0005 0.0185 5.06856125123
0.0005 0.0195 5.00538438579
0.0005 0.0205 4.94349040595
0.0005 0.0215 4.88423714673
0.0005 0.0225 4.82750356545
0.0005 0.0235 4.77300616996
0.0005 0.0245 4.72044464325
0.0005 0.0255 4.66957365774
0.0005 0.0265 4.62024384623
0.0005 0.0275 4.57243463466
0.0005 0.0285 4.52633418763
0.0005 0.0295 4.48238562789
0.0005 0.0305 4.44206118332
0.0005 0.0315 4.4124062506
0.0015 -0.0315 4.99209877094
0.0015 -0.0305 4.9854612845
0.0015 -0.0295 4.97816745159
0.0015 -0.0285 4.97228811041
0.0015 -0.0275 4.96630294848
0.0015 -0.0265 4.95805963962
0.0015 -0.0255 4.94447086679
0.0015 -0.0245 4.79052779594
0.0015 -0.0235 4.379740255
0.0015 -0.0225 3.97957252186
0.0015 -0.0215 3.85761508689
0.0015 -0.0205 3.87047318528
0.0015 -0.0195 3.87447112207
0.0015 -0.0185 3.88537838334
0.0015 -0.0175 3.90992646076
0.0015 -0.0165 3.96524561153
0.0015 -0.0155 4.05745276775
0.0015 -0.0145 4.17789614595
0.0015 -0.0135 4.31450558363
0.0015 -0.0125 4.45499625261
0.0015 -0.0115 4.59108966302
0.0015 -0.0105 4.71720218291
0.0015 -0.0095 4.82850864895
0.0015 -0.0085 4.92085365239
0.0015 -0.0075 4.99185845668
0.0015 -0.0065 5.04225064529
0.0015 -0.0055 5.07603473563
0.0015 -0.0045 5.09687991382
0.0015 -0.0035 5.10819169129
0.0015 -0.0025 5.11461665145
0.0015 -0.0015 5.12151349901
0.0015 -0.0005 5.13398567608
0.0015 0.0005 5.15307497339
0.0015 0.0015 5.17428221038
0.0015 0.0025 5.19038617191
0.0015 0.0035 5.19680751254
0.0015 0.0045 5.19439468293
0.0015 0.0055 5.18859599516
0.0015 0.0065 5.18610761532
0.0015 0.0075 5.19095114995
0.0015 0.0085 5.20277194974
0.0015 0.0095 5.21780201968
0.0015 0.0105 5.2313750343
0.0015 0.0115 5.24054919757
0.0015 0.0125 5.24500865029
0.0015 0.0135 5.24412703308
0.0015 0.0145 5.23545754393
0.0015 0.0155 5.21459969949
0.0015 0.0165 5.17470719055
0.0015 0.0175 5.11711141546
0.0015 0.0185 5.050639526
0.0015 0.0195 4.9826669152
0.0015 0.0205 4.91824200809
0.0015 0.0215 4.85845268695
0.0015 0.0225 4.80246137474
0.0015 0.0235 4.74914732928
0.0015 0.0245 4.69764554037
0.0015 0.0255 4.6473692506
0.0015 0.0265 4.59796151787
0.0015 0.0275 4.54926419483
0.0015 0.0285 4.50132849708
0.0015 0.0295 4.45469086834
0.0015 0.0305 4.41191464279
0.0015 0.0315 4.38240713216
0.0025 -0.0315 5.00296861341
0.0025 -0.0305 4.99532640694
0.0025 -0.0295 4.98726998139
0.0025 -0.0285 4.98149678223
0.0025 -0.0275 4.97614850233
0.0025 -0.0265 4.96840925228
0.0025 -0.0255 4.96129097224
0.0025 -0.0245 4.8337416827
0.0025 -0.0235 4.46261395144
0.0025 -0.0225 4.03183549245
0.0025 -0.0215 3.85019918648
0.0025 -0.0205 3.86250479273
0.0025 -0.0195 3.87586830623
0.0025 -0.0185 3.8866182146
0.0025 -0.0175 3.90807738886
0.0025 -0.0165 3.95870836435
0.0025 -0.0155 4.0516180936
0.0025 -0.0145 4.18314178881
0.0025 -0.0135 4.33820864002
0.0025 -0.0125 4.49807691368
0.0025 -0.0115 4.64829017998
0.0025 -0.0105 4.77919512987
0.0025 -0.0095 4.88493430219
0.0025 -0.0085 4.96338812638
0.0025 -0.0075 5.01674390779
0.0025 -0.0065 5.05144330437
0.0025 -0.0055 5.07506169235
0.0025 -0.0045 5.0915978645
0.0025 -0.0035 5.10263960118
0.0025 -0.0025 5.11001714779
0.0025 -0.0015 5.11631125038
0.0025 -0.0005 5.12424483031
0.0025 0.0005 5.13360575799
0.0025 0.0015 5.14089000184
0.0025 0.0025 5.14217536331
0.0025 0.0035 5.13648812737
0.0025 0.0045 5.12705074709
0.0025 0.0055 5.11984865301
0.0025 0.0065 5.12072205643
0.0025 0.0075 5.1326487948
0.0025 0.0085 5.15475363566
0.0025 0.0095 5.18289196546
0.0025 0.0105 5.21097472061
0.0025 0.0115 5.23279813584
0.0025 0.0125 5.24451555848
0.0025 0.0135 5.24372536277
0.0025 0.0145 5.22860291267
0.0025 0.0155 5.19794731283
0.0025 0.0165 5.14744306389
0.0025 0.0175 5.08030965853
0.0025 0.0185 5.00700810606
0.0025 0.0195 4.93511142262
0.0025 0.0205 4.86951741728
0.0025 0.0215 4.81057491891
0.0025 0.0225 4.75657410435
0.0025 0.0235 4.70555946229
0.0025 0.0245 4.65598772238
0.0025 0.0255 4.60684182397
0.0025 0.0265 4.55754207692
0.0025 0.0275 4.50788021042
0.0025 0.0285 4.45815096849
0.0025 0.0295 4.40988618276
0.0025 0.0305 4.36770456419
0.0025 0.0315 4.34120846167
0.0035 -0.0315 5.018285112
0.0035 -0.0305 5.010065499
0.0035 -0.0295 5.00204224021
0.0035 -0.0285 4.99742058381
0.0035 -0.0275 4.99342211534
0.0035 -0.0265 4.98607167527
0.0035 -0.0255 4.98490118737
0.0035 -0.0245 4.89093365533
0.0035 -0.0235 4.55965532744
0.0035 -0.0225 4.09127268677
0.0035 -0.0215 3.86079731745
0.0035 -0.0205 3.87157563244
0.0035 -0.0195 3.88302332061
0.0035 -0.0185 3.89555683261
0.0035 -0.0175 3.91820229024
0.0035 -0.0165 3.96926898849
0.0035 -0.0155 4.06577237741
0.0035 -0.0145 4.20747275664
0.0035 -0.0135 4.37766250714
0.0035 -0.0125 4.551633332
0.0035 -0.0115 4.70847363707
0.0035 -0.0105 4.83497778325
0.0035 -0.0095 4.92641979948
0.0035 -0.0085 4.98628162681
0.0035 -0.0075 5.02380239069
0.0035 -0.0065 5.04906176562
0.0035 -0.0055 5.06828153715
0.0035 -0.0045 5.08437202962
0.0035 -0.0035 5.09679545813
0.0035 -0.0025 5.10322443842
0.0035 -0.0015 5.10273835172
0.0035 -0.0005 5.09603207096
0.0035 0.0005 5.08412952296
0.0035 0.0015 5.06685302055
0.0035 0.0025 5.04502219111
0.0035 0.0035 5.02170278439
0.0035 0.0045 5.00237087035
0.0035 0.0055 4.99270581311
0.0035 0.0065 4.99646163397
0.0035 0.0075 5.01545764767
0.0035 0.0085 5.0489637612
0.0035 0.0095 5.09342671876
0.0035 0.0105 5.14284730904
0.0035 0.0115 5.18838653569
0.0035 0.0125 5.21930365266
0.0035 0.0135 5.22522043868
0.0035 0.0145 5.2021204051
0.0035 0.0155 5.15447430191
0.0035 0.0165 5.0879606768
0.0035 0.0175 5.01162791965
0.0035 0.0185 4.93557138687
0.0035 0.0195 4.8651167798
0.0035 0.0205 4.8025409603
0.0035 0.0215 4.74709432601
0.0035 0.0225 4.6966259183
0.0035 0.0235 4.64877707436
0.0035 0.0245 4.60165305606
0.0035 0.0255 4.55399939596
0.0035 0.0265 4.505193992
0.0035 0.0275 4.45528218901
0.0035 0.0285 4.40530627106
0.0035 0.0295 4.3580912141
0.0035 0.0305 4.31906473956
0.0035 0.0315 4.29600633217
0.0045 -0.0315 5.03846544691
0.0045 -0.0305 5.03048252002
0.0045 -0.0295 5.02348673239
0.0045 -0.0285 5.02120136112
0.0045 -0.0275 5.02036587204
0.0045 -0.0265 5.01624924257
0.0045 -0.0255 5.02348563324
0.0045 -0.0245 4.96412936191
0.0045 -0.0235 4.67834831288
0.0045 -0.0225 4.20175764922
0.0045 -0.0215 3.91164423367
0.0045 -0.0205 3.88499106442
0.0045 -0.0195 3.89692790051
0.0045 -0.0185 3.91554428267
0.0045 -0.0175 3.94168567327
0.0045 -0.0165 3.99680390145
0.0045 -0.0155 4.09917900766
0.0045 -0.0145 4.24877638534
0.0045 -0.0135 4.42731967836
0.0045 -0.0125 4.60536056255
0.0045 -0.0115 4.75722752169
0.0045 -0.0105 4.8692597919
0.0045 -0.0095 4.94212382095
0.0045 -0.0085 4.98701520014
0.0045 -0.0075 5.01692607698
0.0045 -0.0065 5.03962425709
0.0045 -0.0055 5.05939957261
0.0045 -0.0045 5.07657324548
0.0045 -0.0035 5.08640748345
0.0045 -0.0025 5.08376980461
0.0045 -0.0015 5.06684615728
0.0045 -0.0005 5.03739454937
0.0045 0.0005 4.99841305708
0.0045 0.0015 4.95404576206
0.0045 0.0025 4.9105949643
0.0045 0.0035 4.87386895863
0.0045 0.0045 4.84817594055
0.0045 0.0055 4.83662060675
0.0045 0.0065 4.84094174908
0.0045 0.0075 4.86289411617
0.0045 0.0085 4.90286314259
0.0045 0.0095 4.95831940544
0.0045 0.0105 5.02401364875
0.0045 0.0115 5.09056026339
0.0045 0.0125 5.14317115815
0.0045 0.0135 5.1630534048
0.0045 0.0145 5.1382414875
0.0045 0.0155 5.07613673676
0.0045 0.0165 4.9965731068
0.0045 0.0175 4.9164987962
0.0045 0.0185 4.84387432373
0.0045 0.0195 4.78011919036
0.0045 0.0205 4.72432513535
0.0045 0.0215 4.67476217322
0.0045 0.0225 4.62905363594
0.0045 0.0235 4.58488934686
0.0045 0.0245 4.54041660362
0.0045 0.0255 4.4944637634
0.0045 0.0265 4.44664599831
0.0045 0.0275 4.39752939942
0.0045 0.0285 4.34896095757
0.0045 0.0295 4.30440208868
0.0045 0.0305 4.26891224092
0.0045 0.0315 4.2486484634
0.0055 -0.0315 5.06337782601
0.0055 -0.0305 5.05630828639
0.0055 -0.0295 5.0508238468
0.0055 -0.0285 5.05112869756
0.0055 -0.0275 5.05519977163
0.0055 -0.0265 5.05929637696
0.0055 -0.0255 5.07500714907
0.0055 -0.0245 5.04220441015
0.0055 -0.0235 4.80133837627
0.0055 -0.0225 4.3531733073
0.0055 -0.0215 3.99955788163
0.0055 -0.0205 3.90754575566
0.0055 -0.0195 3.92654574712
0.0055 -0.0185 3.94913404774
0.0055 -0.0175 3.97981642179
0.0055 -0.0165 4.03965239703
0.0055 -0.0155 4.14563959019
0.0055 -0.0145 4.2982280403
0.0055 -0.0135 4.47677448822
0.0055 -0.0125 4.64782619195
0.0055 -0.0115 4.78433350728
0.0055 -0.0105 4.87732485013
0.0055 -0.0095 4.935480734
0.0055 -0.0085 4.97396246344
0.0055 -0.0075 5.00273116636
0.0055 -0.0065 5.02719942513
0.0055 -0.0055 5.04849927687
0.0055 -0.0045 5.06240186918
0.0055 -0.0035 5.0633430428
0.0055 -0.0025 5.04633235457
0.0055 -0.0015 5.00942165831
0.0055 -0.0005 4.95496973386
0.0055 0.0005 4.89169768377
0.0055 0.0015 4.83085555696
0.0055 0.0025 4.78046303197
0.0055 0.0035 4.74347179494
0.0055 0.0045 4.719339283
0.0055 0.0055 4.70736104758
0.0055 0.0065 4.70755649487
0.0055 0.0075 4.7221788038
0.0055 0.0085 4.7548336003
0.0055 0.0095 4.8078825032
0.0055 0.0105 4.87778528043
0.0055 0.0115 4.95327765373
0.0055 0.0125 5.01762653693
0.0055 0.0135 5.04924516719
0.0055 0.0145 5.03033392373
0.0055 0.0155 4.96743554512
0.0055 0.0165 4.88710662805
0.0055 0.0175 4.8109551664
0.0055 0.0185 4.74581005765
0.0055 0.0195 4.69055460918
0.0055 0.0205 4.64293086946
0.0055 0.0215 4.60007951997
0.0055 0.0225 4.55949973446
0.0055 0.0235 4.51904053504
0.0055 0.0245 4.47713345056
0.0055 0.0255 4.43294667169
0.0055 0.0265 4.38652872533
0.0055 0.0275 4.33897215067
0.0055 0.0285 4.29255953087
0.0055 0.0295 4.25076381667
0.0055 0.0305 4.21809253332
0.0055 0.0315 4.19972115212
0.0065 -0.0315 5.09246711088
0.0065 -0.0305 5.08568180155
0.0065 -0.0295 5.08061676363
0.0065 -0.0285 5.08207667658
0.0065 -0.0275 5.08953894843
0.0065 -0.0265 5.10055689422
0.0065 -0.0255 5.11701683099
0.0065 -0.0245 5.09927737318
0.0065 -0.0235 4.91262343132
0.0065 -0.0225 4.52745351499
0.0065 -0.0215 4.12762308975
0.0065 -0.0205 3.9583983868
0.0065 -0.0195 3.97127175434
0.0065 -0.0185 3.99495635786
0.0065 -0.0175 4.03191087225
0.0065 -0.0165 4.09309345583
0.0065 -0.0155 4.19674358768
0.0065 -0.0145 4.34516496434
0.0065 -0.0135 4.51410145842
0.0065 -0.0125 4.66884944637
0.0065 -0.0115 4.78578132537
0.0065 -0.0105 4.86364341718
0.0065 -0.0095 4.915778304
0.0065 -0.0085 4.95415403425
0.0065 -0.0075 4.98577931972
0.0065 -0.0065 5.01248079308
0.0065 -0.0055 5.03165760689
0.0065 -0.0045 5.04039854833
0.0065 -0.0035 5.03286471615
0.0065 -0.0025 5.00203480661
0.0065 -0.0015 4.94602050514
0.0065 -0.0005 4.87359910813
0.0065 0.0005 4.80194421231
0.0065 0.0015 4.74359567819
0.0065 0.0025 4.70163417115
0.0065 0.0035 4.67337267594
0.0065 0.0045 4.65499628201
0.0065 0.0055 4.64386789505
0.0065 0.0065 4.63860241673
0.0065 0.0075 4.64029487086
0.0065 0.0085 4.65348364866
0.0065 0.0095 4.68515561993
0.0065 0.0105 4.73858313903
0.0065 0.0115 4.80679019551
0.0065 0.0125 4.87157535458
0.0065 0.0135 4.90827079718
0.0065 0.0145 4.89851586813
0.0065 0.0155 4.84746016105
0.0065 0.0165 4.77901383885
0.0065 0.0175 4.71244652365
0.0065 0.0185 4.65500342751
0.0065 0.0195 4.60712979163
0.0065 0.0205 4.56626503298
0.0065 0.0215 4.52915934393
0.0065 0.0225 4.49294646837
0.0065 0.0235 4.45557966826
0.0065 0.0245 4.41580673244
0.0065 0.0255 4.373214502
0.0065 0.0265 4.32825874536
0.0065 0.0275 4.28231625297
0.0065 0.0285 4.23773971532
0.0065 0.0295 4.19784280554
0.0065 0.0305 4.16681123667
0.0065 0.0315 4.14942457451
0.0075 -0.0315 5.12523185104
0.0075 -0.0305 5.11730508475
0.0075 -0.0295 5.11054313424
0.0075 -0.0285 5.11092663372
0.0075 -0.0275 5.11810657603
0.0075 -0.0265 5.12807308691
0.0075 -0.0255 5.13367036238
0.0075 -0.0245 5.12477384033
0.0075 -0.0235 5.01161388363
0.0075 -0.0225 4.71433076217
0.0075 -0.0215 4.30864262729
0.0075 -0.0205 4.05466258492
0.0075 -0.0195 4.02467513521
0.0075 -0.0185 4.05358566435
0.0075 -0.0175 4.0923420581
0.0075 -0.0165 4.14959553488
0.0075 -0.0155 4.24470210904
0.0075 -0.0145 4.38018536545
0.0075 -0.0135 4.53010286416
0.0075 -0.0125 4.66333925708
0.0075 -0.0115 4.7647583289
0.0075 -0.0105 4.83697292078
0.0075 -0.0095 4.89006934329
0.0075 -0.0085 4.93216359592
0.0075 -0.0075 4.96642932025
0.0075 -0.0065 4.99308536939
0.0075 -0.0055 5.01291748798
0.0075 -0.0045 5.02226337368
0.0075 -0.0035 5.0100741475
0.0075 -0.0025 4.96914306799
0.0075 -0.0015 4.90361905277
0.0075 -0.0005 4.82950439136
0.0075 0.0005 4.76400653315
0.0075 0.0015 4.71409431373
0.0075 0.0025 4.67933952005
0.0075 0.0035 4.6561129442
0.0075 0.0045 4.64037046909
0.0075 0.0055 4.62905419993
0.0075 0.0065 4.62046098494
0.0075 0.0075 4.61418349108
0.0075 0.0085 4.61188948768
0.0075 0.0095 4.61866232348
0.0075 0.0105 4.64253398
0.0075 0.0115 4.68614800976
0.0075 0.0125 4.7377362518
0.0075 0.0135 4.77358661164
0.0075 0.0145 4.77269233461
0.0075 0.0155 4.73577282003
0.0075 0.0165 4.68278795573
0.0075 0.0175 4.62857182346
0.0075 0.0185 4.57916752603
0.0075 0.0195 4.53701330734
0.0075 0.0205 4.50044532245
0.0075 0.0215 4.46693501247
0.0075 0.0225 4.43347029945
0.0075 0.0235 4.39800333401
0.0075 0.0245 4.35956858265
0.0075 0.0255 4.31805850066
0.0075 0.0265 4.27407504077
0.0075 0.0275 4.22898208266
0.0075 0.0285 4.18509233653
0.0075 0.0295 4.14569845442
0.0075 0.0305 4.11498570968
0.0075 0.0315 4.09774896459
0.0085 -0.0315 5.16132854699
0.0085 -0.0305 5.15147474022
0.0085 -0.0295 5.14164884389
0.0085 -0.0285 5.13922910321
0.0085 -0.0275 5.14415845487
0.0085 -0.0265 5.15090362164
0.0085 -0.0255 5.14938706648
0.0085 -0.0245 5.15483502728
0.0085 -0.0235 5.11290333698
0.0085 -0.0225 4.89581642723
0.0085 -0.0215 4.52625574104
0.0085 -0.0205 4.20299773269
0.0085 -0.0195 4.09248325573
0.0085 -0.0185 4.11537748358
0.0085 -0.0175 4.15256617848
0.0085 -0.0165 4.20513581445
0.0085 -0.0155 4.28438392252
0.0085 -0.0145 4.39646085253
0.0085 -0.0135 4.52132867088
0.0085 -0.0125 4.63650839623
0.0085 -0.0115 4.73106550319
0.0085 -0.0105 4.8055518611
0.0085 -0.0095 4.86296842261
0.0085 -0.0085 4.90719994498
0.0085 -0.0075 4.94375995057
0.0085 -0.0065 4.97703284402
0.0085 -0.0055 5.00599174781
0.0085 -0.0045 5.01957843353
0.0085 -0.0035 5.00688803492
0.0085 -0.0025 4.96645506215
0.0085 -0.0015 4.90576879727
0.0085 -0.0005 4.83703707955
0.0085 0.0005 4.77325911614
0.0085 0.0015 4.72277628622
0.0085 0.0025 4.68613993549
0.0085 0.0035 4.66028773982
0.0085 0.0045 4.64198179077
0.0085 0.0055 4.62818677178
0.0085 0.0065 4.61686415177
0.0085 0.0075 4.60697426329
0.0085 0.0085 4.59841288631
0.0085 0.0095 4.59278292801
0.0085 0.0105 4.59477137479
0.0085 0.0115 4.61064107783
0.0085 0.0125 4.63930563028
0.0085 0.0135 4.66656205829
0.0085 0.0145 4.67103351221
0.0085 0.0155 4.64469327524
0.0085 0.0165 4.60271303527
0.0085 0.0175 4.55954765812
0.0085 0.0185 4.51854046732
0.0085 0.0195 4.48143985484
0.0085 0.0205 4.44798903766
0.0085 0.0215 4.41611014977
0.0085 0.0225 4.38364977993
0.0085 0.0235 4.34872943528
0.0085 0.0245 4.31065052707
0.0085 0.0255 4.26933835462
0.0085 0.0265 4.22514712721
0.0085 0.0275 4.17936118663
0.0085 0.0285 4.13443534569
0.0085 0.0295 4.09393347705
0.0085 0.0305 4.06229046482
0.0085 0.0315 4.04450173103
0.0095 -0.0315 5.20042921011
0.0095 -0.0305 5.18903065858
0.0095 -0.0295 5.1760764515
0.0095 -0.0285 5.16998864534
0.0095 -0.0275 5.17258172071
0.0095 -0.0265 5.18061565294
0.0095 -0.0255 5.1876082191
0.0095 -0.0245 5.20858452925
0.0095 -0.0235 5.20171200876
0.0095 -0.0225 5.05158594919
0.0095 -0.0215 4.75502073185
0.0095 -0.0205 4.41333598165
0.0095 -0.0195 4.2031039059
0.0095 -0.0185 4.18223311626
0.0095 -0.0175 4.219251867
0.0095 -0.0165 4.25769961186
0.0095 -0.0155 4.31376612511
0.0095 -0.0145 4.39723535095
0.0095 -0.0135 4.49899122698
0.0095 -0.0125 4.60139983592
0.0095 -0.0115 4.69487755527
0.0095 -0.0105 4.7722489587
0.0095 -0.0095 4.83182127056
0.0095 -0.0085 4.88151170172
0.0095 -0.0075 4.92956787184
0.0095 -0.0065 4.97667283894
0.0095 -0.0055 5.01427590637
0.0095 -0.0045 5.03300505815
0.0095 -0.0035 5.02718278326
0.0095 -0.0025 4.99559392336
0.0095 -0.0015 4.94131779162
0.0095 -0.0005 4.87398149251
0.0095 0.0005 4.80558545464
0.0095 0.0015 4.74610654681
0.0095 0.0025 4.70061520674
0.0095 0.0035 4.66801685957
0.0095 0.0045 4.64476692334
0.0095 0.0055 4.62743165982
0.0095 0.0065 4.61331054659
0.0095 0.0075 4.60082532816
0.0095 0.0085 4.58964095479
0.0095 0.0095 4.57997959946
0.0095 0.0105 4.57276894482
0.0095 0.0115 4.57164430028
0.0095 0.0125 4.58018067709
0.0095 0.0135 4.59401762848
0.0095 0.0145 4.59863592511
0.0095 0.0155 4.58041368956
0.0095 0.0165 4.54383728583
0.0095 0.0175 4.50521236481
0.0095 0.0185 4.47038965855
0.0095 0.0195 4.4379191726
0.0095 0.0205 4.40722509495
0.0095 0.0215 4.37638387973
0.0095 0.0225 4.34386352315
0.0095 0.0235 4.30879591089
0.0095 0.0245 4.27027760377
0.0095 0.0255 4.2277694782
0.0095 0.0265 4.18146326279
0.0095 0.0275 4.13280143479
0.0095 0.0285 4.08483861804
0.0095 0.0295 4.04169498453
0.0095 0.0305 4.00815811319
0.0095 0.0315 3.98937648008
0.0105 -0.0315 5.24205203827
0.0105 -0.0305 5.23046208133
0.0105 -0.0295 5.21565251287
0.0105 -0.0285 5.20620213428
0.0105 -0.0275 5.20661660892
0.0105 -0.0265 5.21669690019
0.0105 -0.0255 5.23172424934
0.0105 -0.0245 5.24857759817
0.0105 -0.0235 5.2507489623
0.0105 -0.0225 5.17817227389
0.0105 -0.0215 4.97835641335
0.0105 -0.0205 4.67996115351
0.0105 -0.0195 4.40100354814
0.0105 -0.0185 4.27723684899
0.0105 -0.0175 4.2825441408
0.0105 -0.0165 4.30377927889
0.0105 -0.0155 4.33267093104
0.0105 -0.0145 4.39244032244
0.0105 -0.0135 4.47593080456
0.0105 -0.0125 4.56635917206
0.0105 -0.0115 4.65589009581
0.0105 -0.0105 4.7375049467
0.0105 -0.0095 4.80816832109
0.0105 -0.0085 4.87435707038
0.0105 -0.0075 4.93468041403
0.0105 -0.0065 4.98595367233
0.0105 -0.0055 5.02653511892
0.0105 -0.0045 5.05234934598
0.0105 -0.0035 5.05519665177
0.0105 -0.0025 5.02858207196
0.0105 -0.0015 4.97712398656
0.0105 -0.0005 4.91154036174
0.0105 0.0005 4.839342632
0.0105 0.0015 4.76988349148
0.0105 0.0025 4.71283284665
0.0105 0.0035 4.67095461998
0.0105 0.0045 4.64165304759
0.0105 0.0055 4.62069046968
0.0105 0.0065 4.60451207705
0.0105 0.0075 4.59085866233
0.0105 0.0085 4.57875571272
0.0105 0.0095 4.56782880363
0.0105 0.0105 4.55791646311
0.0105 0.0115 4.55007310547
0.0105 0.0125 4.54759121943
0.0105 0.0135 4.55119783231
0.0105 0.0145 4.55417643862
0.0105 0.0155 4.54341542281
0.0105 0.0165 4.51132807996
0.0105 0.0175 4.47039526617
0.0105 0.0185 4.43470815299
0.0105 0.0195 4.40409040634
0.0105 0.0205 4.37520119127
0.0105 0.0215 4.34523592888
0.0105 0.0225 4.31234685853
0.0105 0.0235 4.27685019427
0.0105 0.0245 4.23757267471
0.0105 0.0255 4.19233648793
0.0105 0.0265 4.14148274464
0.0105 0.0275 4.08753993768
0.0105 0.0285 4.03463926827
0.0105 0.0295 3.98770446605
0.0105 0.0305 3.95182039402
0.0105 0.0315 3.93200220897
0.0115 -0.0315 5.28560961443
0.0115 -0.0305 5.27593864092
0.0115 -0.0295 5.2621312019
0.0115 -0.0285 5.25099054011
0.0115 -0.0275 5.24830425547
0.0115 -0.0265 5.25588151953
0.0115 -0.0255 5.26923759281
0.0115 -0.0245 5.27791095168
0.0115 -0.0235 5.29369513176
0.0115 -0.0225 5.28414806446
0.0115 -0.0215 5.17343634068
0.0115 -0.0205 4.97156114339
0.0115 -0.0195 4.71586476868
0.0115 -0.0185 4.48323577255
0.0115 -0.0175 4.36422764492
0.0115 -0.0165 4.33294047839
0.0115 -0.0155 4.34189920362
0.0115 -0.0145 4.38505263258
0.0115 -0.0135 4.45595543656
0.0115 -0.0125 4.54301599789
0.0115 -0.0115 4.64032611491
0.0115 -0.0105 4.74004362858
0.0115 -0.0095 4.82890113282
0.0115 -0.0085 4.89814803205
0.0115 -0.0075 4.94816648731
0.0115 -0.0065 4.98860697948
0.0115 -0.0055 5.02625052061
0.0115 -0.0045 5.05514961624
0.0115 -0.0035 5.06081758399
0.0115 -0.0025 5.03709108055
0.0115 -0.0015 4.99090553454
0.0115 -0.0005 4.92708087808
0.0115 0.0005 4.84983454381
0.0115 0.0015 4.77171689524
0.0115 0.0025 4.70517351636
0.0115 0.0035 4.65559626416
0.0115 0.0045 4.62193391472
0.0115 0.0055 4.59980766565
0.0115 0.0065 4.58479208277
0.0115 0.0075 4.57349894613
0.0115 0.0085 4.56351249111
0.0115 0.0095 4.55354567952
0.0115 0.0105 4.54346546979
0.0115 0.0115 4.53439795354
0.0115 0.0125 4.52856809331
0.0115 0.0135 4.52850999392
0.0115 0.0145 4.5324064846
0.0115 0.0155 4.53076979649
0.0115 0.0165 4.50892459381
0.0115 0.0175 4.46586003836
0.0115 0.0185 4.4196474709
0.0115 0.0195 4.38200303913
0.0115 0.0205 4.35083485567
0.0115 0.0215 4.32042182145
0.0115 0.0225 4.28720620032
0.0115 0.0235 4.25060684681
0.0115 0.0245 4.20907224503
0.0115 0.0255 4.15954538473
0.0115 0.0265 4.10209626572
0.0115 0.0275 4.04085144027
0.0115 0.0285 3.98164304788
0.0115 0.0295 3.93041285419
0.0115 0.0305 3.89245622802
0.0115 0.0315 3.87206438713
0.0125 -0.0315 5.33050935109
0.0125 -0.0305 5.32523907219
0.0125 -0.0295 5.31639588503
0.0125 -0.0285 5.30680993867
0.0125 -0.0275 5.30045389365
0.0125 -0.0265 5.30073730783
0.0125 -0.0255 5.30832844916
0.0125 -0.0245 5.31925480316
0.0125 -0.0235 5.34072261964
0.0125 -0.0225 5.3497562174
0.0125 -0.0215 5.31800457873
0.0125 -0.0205 5.25985596041
0.0125 -0.0195 5.14234307146
0.0125 -0.0185 4.92689455273
0.0125 -0.0175 4.68360857127
0.0125 -0.0165 4.51743319341
0.0125 -0.0155 4.45059125893
0.0125 -0.0145 4.45958865397
0.0125 -0.0135 4.52324597839
0.0125 -0.0125 4.62065486984
0.0125 -0.0115 4.73334659346
0.0125 -0.0105 4.83521837252
0.0125 -0.0095 4.90570733144
0.0125 -0.0085 4.94220150676
0.0125 -0.0075 4.95984666841
0.0125 -0.0065 4.9779725439
0.0125 -0.0055 5.00261130621
0.0125 -0.0045 5.02509108522
0.0125 -0.0035 5.02953321522
0.0125 -0.0025 5.0092915925
0.0125 -0.0015 4.96392437986
0.0125 -0.0005 4.89373843112
0.0125 0.0005 4.80929005897
0.0125 0.0015 4.72633457331
0.0125 0.0025 4.65723078478
0.0125 0.0035 4.60717265689
0.0125 0.0045 4.57527794834
0.0125 0.0055 4.55768748621
0.0125 0.0065 4.54949322418
0.0125 0.0075 4.54577775305
0.0125 0.0085 4.54229153642
0.0125 0.0095 4.53660566893
0.0125 0.0105 4.52915394748
0.0125 0.0115 4.52177011964
0.0125 0.0125 4.51659172451
0.0125 0.0135 4.51705343241
0.0125 0.0145 4.52574433248
0.0125 0.0155 4.53802620714
0.0125 0.0165 4.53593827939
0.0125 0.0175 4.50137034446
0.0125 0.0185 4.44241995047
0.0125 0.0195 4.38418049651
0.0125 0.0205 4.33876509651
0.0125 0.0215 4.3021644052
0.0125 0.0225 4.26656546636
0.0125 0.0235 4.22684318518
0.0125 0.0245 4.18005067702
0.0125 0.0255 4.12398983602
0.0125 0.0265 4.05896627669
0.0125 0.0275 3.98965227787
0.0125 0.0285 3.92364135692
0.0125 0.0295 3.86844922801
0.0125 0.0305 3.82953859276
0.0125 0.0315 3.80974924093
0.0135 -0.0315 5.37594207681
0.0135 -0.0305 5.37742598833
0.0135 -0.0295 5.37769728936
0.0135 -0.0285 5.37414379819
0.0135 -0.0275 5.36642492111
0.0135 -0.0265 5.3575083732
0.0135 -0.0255 5.35361806592
0.0135 -0.0245 5.3578836553
0.0135 -0.0235 5.36711048263
0.0135 -0.0225 5.37652255874
0.0135 -0.0215 5.40494452278
0.0135 -0.0205 5.50834887774
0.0135 -0.0195 5.62869693862
0.0135 -0.0185 5.60364673318
0.0135 -0.0175 5.39789914366
0.0135 -0.0165 5.12793773126
0.0135 -0.0155 4.92410929756
0.0135 -0.0145 4.83378223981
0.0135 -0.0135 4.83693958537
0.0135 -0.0125 4.89357123574
0.0135 -0.0115 4.96119258812
0.0135 -0.0105 5.00664230961
0.0135 -0.0095 5.01612229418
0.0135 -0.0085 4.99791619732
0.0135 -0.0075 4.97454499409
0.0135 -0.0065 4.96265708273
0.0135 -0.0055 4.96529808587
0.0135 -0.0045 4.97077626664
0.0135 -0.0035 4.9623292316
0.0135 -0.0025 4.92989732603
0.0135 -0.0015 4.86955479109
0.0135 -0.0005 4.78805316203
0.0135 0.0005 4.70086744362
0.0135 0.0015 4.62187161652
0.0135 0.0025 4.55993349744
0.0135 0.0035 4.51848382171
0.0135 0.0045 4.49674714932
0.0135 0.0055 4.49116387326
0.0135 0.0065 4.49644792751
0.0135 0.0075 4.50629522537
0.0135 0.0085 4.51465173271
0.0135 0.0095 4.51779952114
0.0135 0.0105 4.51617503136
0.0135 0.0115 4.5124952575
0.0135 0.0125 4.50940363021
0.0135 0.0135 4.51149359436
0.0135 0.0145 4.52786649306
0.0135 0.0155 4.56025273758
0.0135 0.0165 4.5875049007
0.0135 0.0175 4.57629919138
0.0135 0.0185 4.51559689185
0.0135 0.0195 4.42984585867
0.0135 0.0205 4.35177395874
0.0135 0.0215 4.2939152044
0.0135 0.0225 4.24794920501
0.0135 0.0235 4.20105784154
0.0135 0.0245 4.14591936099
0.0135 0.0255 4.08100603335
0.0135 0.0265 4.00784531096
0.0135 0.0275 3.93120073347
0.0135 0.0285 3.85944181753
0.0135 0.0295 3.8015681816
0.0135 0.0305 3.76360011755
0.0135 0.0315 3.74616169906
0.0145 -0.0315 5.42088550229
0.0145 -0.0305 5.43077319877
0.0145 -0.0295 5.4429353292
0.0145 -0.0285 5.44922325907
0.0145 -0.0275 5.44442888426
0.0145 -0.0265 5.42879659432
0.0145 -0.0255 5.4090997759
0.0145 -0.0245 5.39428241891
0.0145 -0.0235 5.38698086616
0.0145 -0.0225 5.38678365849
0.0145 -0.0215 5.44364984275
0.0145 -0.0205 5.70579366344
0.0145 -0.0195 6.11491440741
0.0145 -0.0185 6.37845800993
0.0145 -0.0175 6.34154955817
0.0145 -0.0165 6.07129592485
0.0145 -0.0155 5.74784454412
0.0145 -0.0145 5.49849574387
0.0145 -0.0135 5.3529650895
0.0145 -0.0125 5.28290321296
0.0145 -0.0115 5.24019307411
0.0145 -0.0105 5.19219069087
0.0145 -0.0095 5.12913902944
0.0145 -0.0085 5.05740613896
0.0145 -0.0075 4.995402123
0.0145 -0.0065 4.9545752861
0.0145 -0.0055 4.9284937262
0.0145 -0.0045 4.89920131909
0.0145 -0.0035 4.85323457462
0.0145 -0.0025 4.78372833772
0.0145 -0.0015 4.69704173574
0.0145 -0.0005 4.60846951047
0.0145 0.0005 4.52739250508
0.0145 0.0015 4.46132276921
0.0145 0.0025 4.41500124091
0.0145 0.0035 4.39056856187
0.0145 0.0045 4.38718296379
0.0145 0.0055 4.40116982849
0.0145 0.0065 4.42651654394
0.0145 0.0075 4.45565943938
0.0145 0.0085 4.48097258426
0.0145 0.0095 4.49742013939
0.0145 0.0105 4.50460378303
0.0145 0.0115 4.50608689314
0.0145 0.0125 4.50572092566
0.0145 0.0135 4.51005995125
0.0145 0.0145 4.53556818049
0.0145 0.0155 4.59260904448
0.0145 0.0165 4.65713549689
0.0145 0.0175 4.67955889703
0.0145 0.0185 4.62882783744
0.0145 0.0195 4.51858183142
0.0145 0.0205 4.39343796753
0.0145 0.0215 4.29241839065
0.0145 0.0225 4.22200490217
0.0145 0.0235 4.16419836543
0.0145 0.0245 4.10123667429
0.0145 0.0255 4.02762847114
0.0145 0.0265 3.94670763791
0.0145 0.0275 3.86460039777
0.0145 0.0285 3.78974342058
0.0145 0.0295 3.73211232203
0.0145 0.0305 3.69724310866
0.0145 0.0315 3.68336698382
0.0155 -0.0315 5.46416610846
0.0155 -0.0305 5.48274219894
0.0155 -0.0295 5.50684160899
0.0155 -0.0285 5.523518466
0.0155 -0.0275 5.52449835207
0.0155 -0.0265 5.50780533085
0.0155 -0.0255 5.47714480042
0.0155 -0.0245 5.44286966301
0.0155 -0.0235 5.41255474643
0.0155 -0.0225 5.39070934622
0.0155 -0.0215 5.47838161305
0.0155 -0.0205 5.88621683111
0.0155 -0.0195 6.54803090775
0.0155 -0.0185 7.07479645926
0.0155 -0.0175 7.20571251762
0.0155 -0.0165 6.96494407854
0.0155 -0.0155 6.54910108844
0.0155 -0.0145 6.14386359219
0.0155 -0.0135 5.83211452314
0.0155 -0.0125 5.61816931763
0.0155 -0.0115 5.464194924
0.0155 -0.0105 5.33345859189
0.0155 -0.0095 5.21499967685
0.0155 -0.0085 5.11011462205
0.0155 -0.0075 5.02014364744
0.0155 -0.0065 4.94556465976
0.0155 -0.0055 4.87520246369
0.0155 -0.0045 4.79085044815
0.0155 -0.0035 4.68998260914
0.0155 -0.0025 4.5786914239
0.0155 -0.0015 4.46990900306
0.0155 -0.0005 4.37915605526
0.0155 0.0005 4.30877610374
0.0155 0.0015 4.25895692376
0.0155 0.0025 4.2322762533
0.0155 0.0035 4.2302726849
0.0155 0.0045 4.25159848528
0.0155 0.0055 4.29159381094
0.0155 0.0065 4.34275269882
0.0155 0.0075 4.39575189141
0.0155 0.0085 4.44132416618
0.0155 0.0095 4.47374166789
0.0155 0.0105 4.49202326124
0.0155 0.0115 4.50031566877
0.0155 0.0125 4.50422162561
0.0155 0.0135 4.51267480938
0.0155 0.0145 4.54868683933
0.0155 0.0155 4.63006859756
0.0155 0.0165 4.73077931141
0.0155 0.0175 4.78721104132
0.0155 0.0185 4.74849045122
0.0155 0.0195 4.61355681309
0.0155 0.0205 4.43243261551
0.0155 0.0215 4.27109076428
0.0155 0.0225 4.16207390418
0.0155 0.0235 4.09168742699
0.0155 0.0245 4.02983737242
0.0155 0.0255 3.95789157689
0.0155 0.0265 3.87545225418
0.0155 0.0275 3.79204262955
0.0155 0.0285 3.71846431643
0.0155 0.0295 3.66474999475
0.0155 0.0305 3.6348412091
0.0155 0.0315 3.62499747056
0.0165 -0.0315 5.50392003536
0.0165 -0.0305 5.52973607072
0.0165 -0.0295 5.56304749925
0.0165 -0.0285 5.58694692078
0.0165 -0.0275 5.59243084092
0.0165 -0.0265 5.57839170977
0.0165 -0.0255 5.54647364333
0.0165 -0.0245 5.50131171725
0.0165 -0.0235 5.4523944413
0.0165 -0.0225 5.4265743289
0.0165 -0.0215 5.56239712431
0.0165 -0.0205 6.06006501401
0.0165 -0.0195 6.83734757171
0.0165 -0.0185 7.49036799988
0.0165 -0.0175 7.70937624704
0.0165 -0.0165 7.49057325224
0.0165 -0.0155 7.02614168715
0.0165 -0.0145 6.52774972507
0.0165 -0.0135 6.11245196094