% Model:              Benchmark260518.mph
% Version:            COMSOL 6.2.0.339
% Date:               May 19 2026, 02:54
% Dimension:          2
% Nodes:              4096
% Expressions:        1
% Description:        压力
% Length unit:        m
% x                       y                        p (Pa)
% mirrored_by_python_y_to_minus_y, coord_match_decimals=12
0.0005 -0.0315 4.61206415338
0.0005 -0.0305 4.62665770156
0.0005 -0.0295 4.64676571551
0.0005 -0.0285 4.66886210082
0.0005 -0.0275 4.6917939621
0.0005 -0.0265 4.71483745497
0.0005 -0.0255 4.73737285201
0.0005 -0.0245 4.758768467
0.0005 -0.0235 4.77826298728
0.0005 -0.0225 4.79484738728
0.0005 -0.0215 4.80723599103
0.0005 -0.0205 4.81397749209
0.0005 -0.0195 4.81380237185
0.0005 -0.0185 4.80618404416
0.0005 -0.0175 4.79161905116
0.0005 -0.0165 4.77202806841
0.0005 -0.0155 4.75071112
0.0005 -0.0145 4.73258767652
0.0005 -0.0135 4.72070077047
0.0005 -0.0125 4.71376980491
0.0005 -0.0115 4.71048669392
0.0005 -0.0105 4.70796712078
0.0005 -0.0095 4.71076976141
0.0005 -0.0085 4.74593708626
0.0005 -0.0075 4.68995477262
0.0005 -0.0065 4.57497112975
0.0005 -0.0055 4.54073210739
0.0005 -0.0045 4.5343698322
0.0005 -0.0035 4.55184638099
0.0005 -0.0025 4.61283548058
0.0005 -0.0015 4.7100151565
0.0005 -0.0005 4.81184830986
0.0005 0.0005 4.88865946813
0.0005 0.0015 4.92292716423
0.0005 0.0025 4.91728042526
0.0005 0.0035 4.89264077822
0.0005 0.0045 4.86995382954
0.0005 0.0055 4.86046284235
0.0005 0.0065 4.86516163775
0.0005 0.0075 4.87773057871
0.0005 0.0085 4.89051655834
0.0005 0.0095 4.89965608654
0.0005 0.0105 4.904793347
0.0005 0.0115 4.90503926574
0.0005 0.0125 4.89716299434
0.0005 0.0135 4.87489253649
0.0005 0.0145 4.83095814654
0.0005 0.0155 4.76688884963
0.0005 0.0165 4.69091962297
0.0005 0.0175 4.61047105148
0.0005 0.0185 4.53060722522
0.0005 0.0195 4.45278334434
0.0005 0.0205 4.37742222426
0.0005 0.0215 4.30483697648
0.0005 0.0225 4.235157033
0.0005 0.0235 4.16839253112
0.0005 0.0245 4.10440696657
0.0005 0.0255 4.04295190353
0.0005 0.0265 3.98374436676
0.0005 0.0275 3.9265794
0.0005 0.0285 3.87150676901
0.0005 0.0295 3.81892817038
0.0005 0.0305 3.77054193558
0.0005 0.0315 3.73496183769
0.0015 -0.0315 4.59808990322
0.0015 -0.0305 4.61409373095
0.0015 -0.0295 4.63800597734
0.0015 -0.0285 4.66492191216
0.0015 -0.0275 4.69305576839
0.0015 -0.0265 4.72146541449
0.0015 -0.0255 4.74941153888
0.0015 -0.0245 4.77616853706
0.0015 -0.0235 4.80086654232
0.0015 -0.0225 4.8222590876
0.0015 -0.0215 4.83854039384
0.0015 -0.0205 4.84755046324
0.0015 -0.0195 4.84724862081
0.0015 -0.0185 4.83652085666
0.0015 -0.0175 4.81636353153
0.0015 -0.0165 4.78990897504
0.0015 -0.0155 4.76202578948
0.0015 -0.0145 4.73884885688
0.0015 -0.0135 4.72343159899
0.0015 -0.0125 4.71380086053
0.0015 -0.0115 4.70878550678
0.0015 -0.0105 4.7036977013
0.0015 -0.0095 4.74509104081
0.0015 -0.0085 4.87965013376
0.0015 -0.0075 4.84916513049
0.0015 -0.0065 4.62496388644
0.0015 -0.0055 4.51796995119
0.0015 -0.0045 4.5130331615
0.0015 -0.0035 4.52476444646
0.0015 -0.0025 4.58099186021
0.0015 -0.0015 4.67805796878
0.0015 -0.0005 4.77940276847
0.0015 0.0005 4.85186844849
0.0015 0.0015 4.88149050955
0.0015 0.0025 4.87549250641
0.0015 0.0035 4.85500618461
0.0015 0.0045 4.83902060354
0.0015 0.0055 4.83704419923
0.0015 0.0065 4.8492294255
0.0015 0.0075 4.8690637421
0.0015 0.0085 4.88815781366
0.0015 0.0095 4.90134077595
0.0015 0.0105 4.90801686959
0.0015 0.0115 4.90809997918
0.0015 0.0125 4.89971375943
0.0015 0.0135 4.87810367356
0.0015 0.0145 4.83406969452
0.0015 0.0155 4.76678653795
0.0015 0.0165 4.68513923507
0.0015 0.0175 4.5978140225
0.0015 0.0185 4.51145604701
0.0015 0.0195 4.4286915617
0.0015 0.0205 4.3501685321
0.0015 0.0215 4.2760088841
0.0015 0.0225 4.20611865218
0.0015 0.0235 4.14011330944
0.0015 0.0245 4.07733946476
0.0015 0.0255 4.01697279457
0.0015 0.0265 3.95817753764
0.0015 0.0275 3.90028965213
0.0015 0.0285 3.84300930445
0.0015 0.0295 3.78682728693
0.0015 0.0305 3.73495114109
0.0015 0.0315 3.69913728888
0.0025 -0.0315 4.57884046021
0.0025 -0.0305 4.59614442759
0.0025 -0.0295 4.62468470191
0.0025 -0.0285 4.6589290422
0.0025 -0.0275 4.69570011649
0.0025 -0.0265 4.7332325378
0.0025 -0.0255 4.77027296298
0.0025 -0.0245 4.80567585006
0.0025 -0.0235 4.83814625662
0.0025 -0.0225 4.86598272188
0.0025 -0.0215 4.88681369352
0.0025 -0.0205 4.89770738159
0.0025 -0.0195 4.89629521329
0.0025 -0.0185 4.88161088121
0.0025 -0.0175 4.85462835123
0.0025 -0.0165 4.81997298098
0.0025 -0.0155 4.78464879773
0.0025 -0.0145 4.75406954372
0.0025 -0.0135 4.73084734133
0.0025 -0.0125 4.71414990916
0.0025 -0.0115 4.70291493003
0.0025 -0.0105 4.70199907371
0.0025 -0.0095 4.86458732118
0.0025 -0.0085 5.22005999533
0.0025 -0.0075 5.29098682645
0.0025 -0.0065 4.90694778597
0.0025 -0.0055 4.58646192592
0.0025 -0.0045 4.5157611905
0.0025 -0.0035 4.5184955962
0.0025 -0.0025 4.56862530544
0.0025 -0.0015 4.65453726638
0.0025 -0.0005 4.73695045455
0.0025 0.0005 4.78596640254
0.0025 0.0015 4.79851407552
0.0025 0.0025 4.7887404308
0.0025 0.0035 4.77400694689
0.0025 0.0045 4.76693225742
0.0025 0.0055 4.77382855005
0.0025 0.0065 4.7949935372
0.0025 0.0075 4.8257776021
0.0025 0.0085 4.85941762754
0.0025 0.0095 4.88835204519
0.0025 0.0105 4.90595635885
0.0025 0.0115 4.90830302811
0.0025 0.0125 4.89537094476
0.0025 0.0135 4.86831666747
0.0025 0.0145 4.82094618368
0.0025 0.0155 4.75055264533
0.0025 0.0165 4.66373611274
0.0025 0.0175 4.56886456095
0.0025 0.0185 4.47411414987
0.0025 0.0195 4.38397275194
0.0025 0.0205 4.30034167976
0.0025 0.0215 4.22374603292
0.0025 0.0225 4.15380054118
0.0025 0.0235 4.08939119063
0.0025 0.0245 4.02889631989
0.0025 0.0255 3.97049408625
0.0025 0.0265 3.91250258663
0.0025 0.0275 3.85374351707
0.0025 0.0285 3.7939946237
0.0025 0.0295 3.73500510167
0.0025 0.0305 3.68280969105
0.0025 0.0315 3.6499510654
0.0035 -0.0315 4.55732726925
0.0035 -0.0305 4.57664784112
0.0035 -0.0295 4.61022367312
0.0035 -0.0285 4.65267049231
0.0035 -0.0275 4.69974651292
0.0035 -0.0265 4.74840879858
0.0035 -0.0255 4.79635316602
0.0035 -0.0245 4.84151196586
0.0035 -0.0235 4.88172259362
0.0035 -0.0225 4.91454045967
0.0035 -0.0215 4.93732908591
0.0035 -0.0205 4.94758916333
0.0035 -0.0195 4.94411613243
0.0035 -0.0185 4.92678333114
0.0035 -0.0175 4.89611150677
0.0035 -0.0165 4.85629085147
0.0035 -0.0155 4.81456739863
0.0035 -0.0145 4.77597565229
0.0035 -0.0135 4.74076424115
0.0035 -0.0125 4.71366767315
0.0035 -0.0115 4.70005153579
0.0035 -0.0105 4.75738712144
0.0035 -0.0095 5.16822201093
0.0035 -0.0085 5.83173481187
0.0035 -0.0075 6.06236930518
0.0035 -0.0065 5.60303349018
0.0035 -0.0055 5.01432596225
0.0035 -0.0045 4.72936146848
0.0035 -0.0035 4.64369030955
0.0035 -0.0025 4.64520386224
0.0035 -0.0015 4.67889733081
0.0035 -0.0005 4.70779821832
0.0035 0.0005 4.71677136213
0.0035 0.0015 4.70965997928
0.0035 0.0025 4.69623081939
0.0035 0.0035 4.68520900218
0.0035 0.0045 4.68231058504
0.0035 0.0055 4.69101097781
0.0035 0.0065 4.71392493407
0.0035 0.0075 4.75097040012
0.0035 0.0085 4.79752002934
0.0035 0.0095 4.8440195627
0.0035 0.0105 4.87837948801
0.0035 0.0115 4.88907539385
0.0035 0.0125 4.87297324877
0.0035 0.0135 4.83699006014
0.0035 0.0145 4.78377068542
0.0035 0.0155 4.71201936326
0.0035 0.0165 4.62377539239
0.0035 0.0175 4.52464604681
0.0035 0.0185 4.42292692753
0.0035 0.0195 4.32550046558
0.0035 0.0205 4.23658617196
0.0035 0.0215 4.15769560165
0.0035 0.0225 4.08821529574
0.0035 0.0235 4.02606665803
0.0035 0.0245 3.96837509126
0.0035 0.0255 3.91214621928
0.0035 0.0265 3.85495016887
0.0035 0.0275 3.79554105361
0.0035 0.0285 3.73450426138
0.0035 0.0295 3.6753409275
0.0035 0.0305 3.62554335068
0.0035 0.0315 3.59600762284
0.0045 -0.0315 4.53409371825
0.0045 -0.0305 4.55632076329
0.0045 -0.0295 4.5957979223
0.0045 -0.0285 4.64698272625
0.0045 -0.0275 4.7049048304
0.0045 -0.0265 4.76526191588
0.0045 -0.0255 4.82433690752
0.0045 -0.0245 4.87867185333
0.0045 -0.0235 4.9248464511
0.0045 -0.0225 4.95959767496
0.0045 -0.0215 4.98044610346
0.0045 -0.0205 4.98690288638
0.0045 -0.0195 4.98071507095
0.0045 -0.0185 4.96291611901
0.0045 -0.0175 4.9332055569
0.0045 -0.0165 4.89299054048
0.0045 -0.0155 4.84528101828
0.0045 -0.0145 4.8003584018
0.0045 -0.0135 4.76023061236
0.0045 -0.0125 4.72812679683
0.0045 -0.0115 4.74653467213
0.0045 -0.0105 4.97368278294
0.0045 -0.0095 5.65835576538
0.0045 -0.0085 6.54012814396
0.0045 -0.0075 6.91210194937
0.0045 -0.0065 6.49679260464
0.0045 -0.0055 5.74718639928
0.0045 -0.0045 5.20197378654
0.0045 -0.0035 4.92374807207
0.0045 -0.0025 4.79294675628
0.0045 -0.0015 4.73265835267
0.0045 -0.0005 4.70070709869
0.0045 0.0005 4.67697653047
0.0045 0.0015 4.65750747243
0.0045 0.0025 4.64279035743
0.0045 0.0035 4.6332519885
0.0045 0.0045 4.629262767
0.0045 0.0055 4.63207279449
0.0045 0.0065 4.64553753079
0.0045 0.0075 4.67464176844
0.0045 0.0085 4.72003330537
0.0045 0.0095 4.7732963303
0.0045 0.0105 4.81826969177
0.0045 0.0115 4.83758370992
0.0045 0.0125 4.82279146236
0.0045 0.0135 4.78166717295
0.0045 0.0145 4.72607580121
0.0045 0.0155 4.65726751383
0.0045 0.0165 4.57184180098
0.0045 0.0175 4.47165616538
0.0045 0.0185 4.36496391089
0.0045 0.0195 4.2616932754
0.0045 0.0205 4.16869617239
0.0045 0.0215 4.08851065245
0.0045 0.0225 4.02011718398
0.0045 0.0235 3.96033187385
0.0045 0.0245 3.90495266693
0.0045 0.0255 3.85000104686
0.0045 0.0265 3.79283830684
0.0045 0.0275 3.73268601561
0.0045 0.0285 3.67123349785
0.0045 0.0295 3.61319028965
0.0045 0.0305 3.56609601636
0.0045 0.0315 3.53911014872
0.0055 -0.0315 4.50914350296
0.0055 -0.0305 4.53500603437
0.0055 -0.0295 4.58123517404
0.0055 -0.0285 4.64162741829
0.0055 -0.0275 4.71037124401
0.0055 -0.0265 4.78197042227
0.0055 -0.0255 4.85119085515
0.0055 -0.0245 4.91298804211
0.0055 -0.0235 4.9626282492
0.0055 -0.0225 4.99641514134
0.0055 -0.0215 5.01293969109
0.0055 -0.0205 5.01464002119
0.0055 -0.0195 5.00631819047
0.0055 -0.0185 4.98921778095
0.0055 -0.0175 4.96117721823
0.0055 -0.0165 4.9259672133
0.0055 -0.0155 4.88073034109
0.0055 -0.0145 4.82869217351
0.0055 -0.0135 4.7878404261
0.0055 -0.0125 4.77699703582
0.0055 -0.0115 4.87276430736
0.0055 -0.0105 5.24130758597
0.0055 -0.0095 6.00230939155
0.0055 -0.0085 6.89530268019
0.0055 -0.0075 7.32000056046
0.0055 -0.0065 6.98413367282
0.0055 -0.0055 6.25424340081
0.0055 -0.0045 5.60815938647
0.0055 -0.0035 5.17254281512
0.0055 -0.0025 4.9138448167
0.0055 -0.0015 4.77968206306
0.0055 -0.0005 4.71112461265
0.0055 0.0005 4.67143532487
0.0055 0.0015 4.6462429505
0.0055 0.0025 4.62985098947
0.0055 0.0035 4.6194314752
0.0055 0.0045 4.61315294364
0.0055 0.0055 4.61033650428
0.0055 0.0065 4.61259389961
0.0055 0.0075 4.62506664403
0.0055 0.0085 4.65418311913
0.0055 0.0095 4.69862144366
0.0055 0.0105 4.74271551646
0.0055 0.0115 4.76444221028
0.0055 0.0125 4.75175669789
0.0055 0.0135 4.71265545633
0.0055 0.0145 4.66132436528
0.0055 0.0155 4.59923545351
0.0055 0.0165 4.51905282955
0.0055 0.0175 4.41925411774
0.0055 0.0185 4.30929885505
0.0055 0.0195 4.20209051902
0.0055 0.0205 4.10665405668
0.0055 0.0215 4.02628565484
0.0055 0.0225 3.95939334881
0.0055 0.0235 3.90111350739
0.0055 0.0245 3.84611475204
0.0055 0.0255 3.79033938561
0.0055 0.0265 3.73137462441
0.0055 0.0275 3.66919100662
0.0055 0.0285 3.60673717898
0.0055 0.0295 3.54953506773
0.0055 0.0305 3.50468617167
0.0055 0.0315 3.47971282123
0.0065 -0.0315 4.48223693472
0.0065 -0.0305 4.51228743114
0.0065 -0.0295 4.56588651335
0.0065 -0.0285 4.63570305257
0.0065 -0.0275 4.71483358576
0.0065 -0.0265 4.79656520538
0.0065 -0.0255 4.87419145498
0.0065 -0.0245 4.94118762309
0.0065 -0.0235 4.99195085892
0.0065 -0.0225 5.02335745228
0.0065 -0.0215 5.03635840806
0.0065 -0.0205 5.03599945753
0.0065 -0.0195 5.027230228
0.0065 -0.0185 5.01161836301
0.0065 -0.0175 4.98715699182
0.0065 -0.0165 4.95301568421
0.0065 -0.0155 4.90582310057
0.0065 -0.0145 4.84558537634
0.0065 -0.0135 4.80082722347
0.0065 -0.0125 4.81371657468
0.0065 -0.0115 4.95278137556
0.0065 -0.0105 5.30823914767
0.0065 -0.0095 5.93461435497
0.0065 -0.0085 6.65748089156
0.0065 -0.0075 7.03629379215
0.0065 -0.0065 6.85104940302
0.0065 -0.0055 6.32700292301
0.0065 -0.0045 5.75975514293
0.0065 -0.0035 5.29449225694
0.0065 -0.0025 4.98585227651
0.0065 -0.0015 4.81686185716
0.0065 -0.0005 4.72964903916
0.0065 0.0005 4.68091945294
0.0065 0.0015 4.65120919064
0.0065 0.0025 4.63202158267
0.0065 0.0035 4.61931648187
0.0065 0.0045 4.61096618969
0.0065 0.0055 4.60561780236
0.0065 0.0065 4.60285000702
0.0065 0.0075 4.60459657884
0.0065 0.0085 4.61636193359
0.0065 0.0095 4.64271917221
0.0065 0.0105 4.67658209106
0.0065 0.0115 4.69614411018
0.0065 0.0125 4.68510287616
0.0065 0.0135 4.65053611686
0.0065 0.0145 4.60576095695
0.0065 0.0155 4.55058746965
0.0065 0.0165 4.47503422142
0.0065 0.0175 4.37580427403
0.0065 0.0185 4.26377702809
0.0065 0.0195 4.15402150615
0.0065 0.0205 4.05692167793
0.0065 0.0215 3.9764364363
0.0065 0.0225 3.91059896147
0.0065 0.0235 3.85263131211
0.0065 0.0245 3.79596755219
0.0065 0.0255 3.73661972109
0.0065 0.0265 3.67271581246
0.0065 0.0275 3.60580997102
0.0065 0.0285 3.54062462787
0.0065 0.0295 3.48353413541
0.0065 0.0305 3.44088047584
0.0065 0.0315 3.41805195968
0.0075 -0.0315 4.45294474197
0.0075 -0.0305 4.48759175967
0.0075 -0.0295 4.54893229065
0.0075 -0.0285 4.62806335646
0.0075 -0.0275 4.71673212377
0.0075 -0.0265 4.80700585144
0.0075 -0.0255 4.89092527933
0.0075 -0.0245 4.96087015944
0.0075 -0.0235 5.01117691537
0.0075 -0.0225 5.04057188938
0.0075 -0.0215 5.05272819062
0.0075 -0.0205 5.05392365851
0.0075 -0.0195 5.04862776579
0.0075 -0.0185 5.03529308629
0.0075 -0.0175 5.00774451545
0.0075 -0.0165 4.95689234056
0.0075 -0.0155 4.88565376951
0.0075 -0.0145 4.81077793222
0.0075 -0.0135 4.76072948082
0.0075 -0.0125 4.77658456512
0.0075 -0.0115 4.90243301294
0.0075 -0.0105 5.1809619062
0.0075 -0.0095 5.62807408037
0.0075 -0.0085 6.13250167311
0.0075 -0.0075 6.45124163846
0.0075 -0.0065 6.44299026955
0.0075 -0.0055 6.16550547871
0.0075 -0.0045 5.75474574298
0.0075 -0.0035 5.34662700787
0.0075 -0.0025 5.03860517075
0.0075 -0.0015 4.85348023231
0.0075 -0.0005 4.75270459057
0.0075 0.0005 4.69449855916
0.0075 0.0015 4.65846179553
0.0075 0.0025 4.63518770803
0.0075 0.0035 4.61977743625
0.0075 0.0045 4.60962651571
0.0075 0.0055 4.60317572786
0.0075 0.0065 4.59917957585
0.0075 0.0075 4.59717854237
0.0075 0.0085 4.59946776417
0.0075 0.0095 4.61143446691
0.0075 0.0105 4.63363397265
0.0075 0.0115 4.65210085451
0.0075 0.0125 4.64636023669
0.0075 0.0135 4.615246358
0.0075 0.0145 4.57239810595
0.0075 0.0155 4.51952748991
0.0075 0.0165 4.44607298909
0.0075 0.0175 4.34690388818
0.0075 0.0185 4.23258255889
0.0075 0.0195 4.12009622578
0.0075 0.0205 4.02121951437
0.0075 0.0215 3.93981261817
0.0075 0.0225 3.87280035231
0.0075 0.0235 3.81266508057
0.0075 0.0245 3.75273088704
0.0075 0.0255 3.68745989942
0.0075 0.0265 3.61523989305
0.0075 0.0275 3.54074693066
0.0075 0.0285 3.47124326396
0.0075 0.0295 3.41413272848
0.0075 0.0305 3.37431083512
0.0075 0.0315 3.35424897811
0.0085 -0.0315 4.42065523694
0.0085 -0.0305 4.46013765158
0.0085 -0.0295 4.52935361828
0.0085 -0.0285 4.61743533699
0.0085 -0.0275 4.71450664365
0.0085 -0.0265 4.81141707292
0.0085 -0.0255 4.89937400159
0.0085 -0.0245 4.97031671114
0.0085 -0.0235 5.01957722583
0.0085 -0.0225 5.04825393103
0.0085 -0.0215 5.06202825813
0.0085 -0.0205 5.06853320709
0.0085 -0.0195 5.06844672346
0.0085 -0.0185 5.04965019473
0.0085 -0.0175 4.99844634685
0.0085 -0.0165 4.91373749264
0.0085 -0.0155 4.81069029959
0.0085 -0.0145 4.72067904579
0.0085 -0.0135 4.67875615194
0.0085 -0.0125 4.70748481007
0.0085 -0.0115 4.8143692859
0.0085 -0.0105 5.01566252205
0.0085 -0.0095 5.32549613762
0.0085 -0.0085 5.67651477861
0.0085 -0.0075 5.94108367857
0.0085 -0.0065 6.02260101342
0.0085 -0.0055 5.90511118126
0.0085 -0.0045 5.64762777061
0.0085 -0.0035 5.34074608871
0.0085 -0.0025 5.07296711479
0.0085 -0.0015 4.88775109238
0.0085 -0.0005 4.77453412495
0.0085 0.0005 4.70585883937
0.0085 0.0015 4.66288862456
0.0085 0.0025 4.63529066879
0.0085 0.0035 4.61744213729
0.0085 0.0045 4.60616613919
0.0085 0.0055 4.59933807198
0.0085 0.0065 4.59513963845
0.0085 0.0075 4.5922004259
0.0085 0.0085 4.59093633584
0.0085 0.0095 4.59555177931
0.0085 0.0105 4.61137544664
0.0085 0.0115 4.63413041131
0.0085 0.0125 4.64246403148
0.0085 0.0135 4.62126532514
0.0085 0.0145 4.57682436718
0.0085 0.0155 4.51611978307
0.0085 0.0165 4.43533157036
0.0085 0.0175 4.33060618033
0.0085 0.0185 4.21125982707
0.0085 0.0195 4.09486405734
0.0085 0.0205 3.99380574605
0.0085 0.0215 3.91048500939
0.0085 0.0225 3.84007541949
0.0085 0.0235 3.77579445097
0.0085 0.0245 3.71117971148
0.0085 0.0255 3.63777354878
0.0085 0.0265 3.55482920917
0.0085 0.0275 3.47149383143
0.0085 0.0285 3.39779351782
0.0085 0.0295 3.34137604826
0.0085 0.0305 3.30516836031
0.0085 0.0315 3.28848583256
0.0095 -0.0315 4.38458912801
0.0095 -0.0305 4.4288127958
0.0095 -0.0295 4.50570252552
0.0095 -0.0285 4.60222621534
0.0095 -0.0275 4.7065915506
0.0095 -0.0265 4.80830689458
0.0095 -0.0255 4.89814940435
0.0095 -0.0245 4.96860986424
0.0095 -0.0235 5.01703953388
0.0095 -0.0225 5.04609260654
0.0095 -0.0215 5.06336675869
0.0095 -0.0205 5.07565652483
0.0095 -0.0195 5.07318946168
0.0095 -0.0185 5.03390569597
0.0095 -0.0175 4.9474050074
0.0095 -0.0165 4.8269983801
0.0095 -0.0155 4.70704748524
0.0095 -0.0145 4.62981103618
0.0095 -0.0135 4.61578843463
0.0095 -0.0125 4.65631272851
0.0095 -0.0115 4.74121825642
0.0095 -0.0105 4.8809868679
0.0095 -0.0095 5.09203721038
0.0095 -0.0085 5.33329762532
0.0095 -0.0075 5.52743189888
0.0095 -0.0065 5.62378227746
0.0095 -0.0055 5.59863541951
0.0095 -0.0045 5.46464024095
0.0095 -0.0035 5.26895906881
0.0095 -0.0025 5.06862329766
0.0095 -0.0015 4.9036382497
0.0095 -0.0005 4.78583467651
0.0095 0.0005 4.70831241262
0.0095 0.0015 4.65888050731
0.0095 0.0025 4.6276838695
0.0095 0.0035 4.60855944277
0.0095 0.0045 4.5976337421
0.0095 0.0055 4.59177056745
0.0095 0.0065 4.58829846597
0.0095 0.0075 4.58558913062
0.0095 0.0085 4.58354031804
0.0095 0.0095 4.58554321814
0.0095 0.0105 4.60071789777
0.0095 0.0115 4.63292701609
0.0095 0.0125 4.66363361861
0.0095 0.0135 4.66504437619
0.0095 0.0145 4.62537214294
0.0095 0.0155 4.54837802554
0.0095 0.0165 4.44177324449
0.0095 0.0175 4.31535247576
0.0095 0.0185 4.18366695527
0.0095 0.0195 4.0620930417
0.0095 0.0205 3.95955366806
0.0095 0.0215 3.87549684473
0.0095 0.0225 3.80313065657
0.0095 0.0235 3.73471865291
0.0095 0.0245 3.66264237664
0.0095 0.0255 3.57943234508
0.0095 0.0265 3.48706426546
0.0095 0.0275 3.39776397817
0.0095 0.0285 3.32233676393
0.0095 0.0295 3.26730604528
0.0095 0.0305 3.23491447753
0.0095 0.0315 3.22171982652
0.0105 -0.0315 4.3439076385
0.0105 -0.0305 4.39210237848
0.0105 -0.0295 4.47578429489
0.0105 -0.0285 4.58008710328
0.0105 -0.0275 4.69106061065
0.0105 -0.0265 4.79651332579
0.0105 -0.0255 4.8868008089
0.0105 -0.0245 4.95588587547
0.0105 -0.0235 5.00350370653
0.0105 -0.0225 5.03355671357
0.0105 -0.0215 5.05455953076
0.0105 -0.0205 5.06749246159
0.0105 -0.0195 5.05235622528
0.0105 -0.0185 4.98597499714
0.0105 -0.0175 4.86795172061
0.0105 -0.0165 4.72925267781
0.0105 -0.0155 4.62217471902
0.0105 -0.0145 4.57776354207
0.0105 -0.0135 4.58262860623
0.0105 -0.0125 4.61688599434
0.0105 -0.0115 4.67981616873
0.0105 -0.0105 4.78002365962
0.0105 -0.0095 4.91657473586
0.0105 -0.0085 5.06725518133
0.0105 -0.0075 5.19864769206
0.0105 -0.0065 5.28100446669
0.0105 -0.0055 5.29603705408
0.0105 -0.0045 5.24238238774
0.0105 -0.0035 5.13633472814
0.0105 -0.0025 5.00564628469
0.0105 -0.0015 4.87788808119
0.0105 -0.0005 4.7717017581
0.0105 0.0005 4.69367473738
0.0105 0.0015 4.64124388787
0.0105 0.0025 4.60844496878
0.0105 0.0035 4.58976876603
0.0105 0.0045 4.58079831084
0.0105 0.0055 4.57749472806
0.0105 0.0065 4.57633910757
0.0105 0.0075 4.57543901505
0.0105 0.0085 4.57455918981
0.0105 0.0095 4.57680000217
0.0105 0.0105 4.59384687283
0.0105 0.0115 4.63632440551
0.0105 0.0125 4.68958222912
0.0105 0.0135 4.71769088687
0.0105 0.0145 4.69004153624
0.0105 0.0155 4.59737171702
0.0105 0.0165 4.45635173804
0.0105 0.0175 4.29750332936
0.0105 0.0185 4.14591434791
0.0105 0.0195 4.01511235731
0.0105 0.0205 3.90887189044
0.0105 0.0215 3.82349839476
0.0105 0.0225 3.75068693871
0.0105 0.0235 3.67926285107
0.0105 0.0245 3.59937603552
0.0105 0.0255 3.50803278573
0.0105 0.0265 3.41130481824
0.0105 0.0275 3.3218850151
0.0105 0.0285 3.24873266622
0.0105 0.0295 3.19627395981
0.0105 0.0305 3.16674924385
0.0105 0.0315 3.15618428057
0.0115 -0.0315 4.29794268635
0.0115 -0.0305 4.34828856154
0.0115 -0.0295 4.43656705845
0.0115 -0.0285 4.54742715737
0.0115 -0.0275 4.6649922867
0.0115 -0.0265 4.77466026718
0.0115 -0.0255 4.86576591139
0.0115 -0.0245 4.93351106293
0.0115 -0.0235 4.97970025941
0.0115 -0.0225 5.01091175883
0.0115 -0.0215 5.03379241059
0.0115 -0.0205 5.04266356598
0.0115 -0.0195 5.01386695913
0.0115 -0.0185 4.92631812122
0.0115 -0.0175 4.78958789125
0.0115 -0.0165 4.65497269747
0.0115 -0.0155 4.57648371188
0.0115 -0.0145 4.55578615877
0.0115 -0.0135 4.56342044062
0.0115 -0.0125 4.58670160761
0.0115 -0.0115 4.62973651829
0.0115 -0.0105 4.69475903268
0.0115 -0.0095 4.77518546513
0.0115 -0.0085 4.86030184808
0.0115 -0.0075 4.93818546717
0.0115 -0.0065 4.99554498135
0.0115 -0.0055 5.02106746972
0.0115 -0.0045 5.00928755775
0.0115 -0.0035 4.96184969226
0.0115 -0.0025 4.88811619363
0.0115 -0.0015 4.80297039919
0.0115 -0.0005 4.72152054029
0.0115 0.0005 4.65437460774
0.0115 0.0015 4.6058560276
0.0115 0.0025 4.57521799719
0.0115 0.0035 4.55917743282
0.0115 0.0045 4.55364210987
0.0115 0.0055 4.55431764661
0.0115 0.0065 4.55736566316
0.0115 0.0075 4.56031973652
0.0115 0.0085 4.56260271998
0.0115 0.0095 4.56695997752
0.0115 0.0105 4.58563776242
0.0115 0.0115 4.63286793997
0.0115 0.0125 4.69731626124
0.0115 0.0135 4.74043682079
0.0115 0.0145 4.72329643406
0.0115 0.0155 4.62758102054
0.0115 0.0165 4.46830145554
0.0115 0.0175 4.28452512716
0.0115 0.0185 4.11191779162
0.0115 0.0195 3.96872282033
0.0115 0.0205 3.85475252865
0.0115 0.0215 3.76181731877
0.0115 0.0225 3.68298743538
0.0115 0.0235 3.60754065173
0.0115 0.0245 3.52360990484
0.0115 0.0255 3.42973061418
0.0115 0.0265 3.33510403567
0.0115 0.0275 3.25065905643
0.0115 0.0285 3.18195725249
0.0115 0.0295 3.13234419383
0.0115 0.0305 3.10452297683
0.0115 0.0315 3.09556791318
0.0125 -0.0315 4.24650508746
0.0125 -0.0305 4.29602083239
0.0125 -0.0295 4.38488587752
0.0125 -0.0285 4.49954007668
0.0125 -0.0275 4.623797019
0.0125 -0.0265 4.74011008118
0.0125 -0.0255 4.83508033969
0.0125 -0.0245 4.90387864657
0.0125 -0.0235 4.95016248085
0.0125 -0.0225 4.98265173232
0.0125 -0.0215 5.00667321098
0.0125 -0.0205 5.01485411834
0.0125 -0.0195 4.98170387177
0.0125 -0.0185 4.883196587
0.0125 -0.0175 4.73914297449
0.0125 -0.0165 4.61571966858
0.0125 -0.0155 4.55782621073
0.0125 -0.0145 4.54770679276
0.0125 -0.0135 4.55321381273
0.0125 -0.0125 4.56551952448
0.0125 -0.0115 4.58819034826
0.0125 -0.0105 4.6210369439
0.0125 -0.0095 4.658275216
0.0125 -0.0085 4.69567229296
0.0125 -0.0075 4.73079674195
0.0125 -0.0065 4.76074672052
0.0125 -0.0055 4.78054236194
0.0125 -0.0045 4.78446236362
0.0125 -0.0035 4.76883684125
0.0125 -0.0025 4.7342639859
0.0125 -0.0015 4.68633494227
0.0125 -0.0005 4.63396258756
0.0125 0.0005 4.58621104276
0.0125 0.0015 4.54952662502
0.0125 0.0025 4.52653824284
0.0125 0.0035 4.51646328545
0.0125 0.0045 4.51634998478
0.0125 0.0055 4.52234971221
0.0125 0.0065 4.530960586
0.0125 0.0075 4.5391447252
0.0125 0.0085 4.54579258467
0.0125 0.0095 4.55313516158
0.0125 0.0105 4.57160395672
0.0125 0.0115 4.61414045312
0.0125 0.0125 4.67249049648
0.0125 0.0135 4.71385963742
0.0125 0.0145 4.70547951145
0.0125 0.0155 4.62450403177
0.0125 0.0165 4.46964460982
0.0125 0.0175 4.27478201124
0.0125 0.0185 4.08546052946
0.0125 0.0195 3.9292229863
0.0125 0.0205 3.80552662049
0.0125 0.0215 3.7034440794
0.0125 0.0225 3.61599545318
0.0125 0.0235 3.53358069646
0.0125 0.0245 3.44619484734
0.0125 0.0255 3.35364482008
0.0125 0.0265 3.26539511876
0.0125 0.0275 3.18870948857
0.0125 0.0285 3.12590302374
0.0125 0.0295 3.07980321012
0.0125 0.0305 3.05286101776
0.0125 0.0315 3.04418176378
0.0135 -0.0315 4.19022404308
0.0135 -0.0305 4.23516076021
0.0135 -0.0295 4.31907456758
0.0135 -0.0285 4.43259305113
0.0135 -0.0275 4.56169245919
0.0135 -0.0265 4.68793560183
0.0135 -0.0255 4.79292664381
0.0135 -0.0245 4.8687167005
0.0135 -0.0235 4.9206185442
0.0135 -0.0225 4.95832152389
0.0135 -0.0215 4.99049414076
0.0135 -0.0205 5.01037006541
0.0135 -0.0195 4.98250070224
0.0135 -0.0185 4.87871719033
0.0135 -0.0175 4.72866748351
0.0135 -0.0165 4.60643356698
0.0135 -0.0155 4.55372998424
0.0135 -0.0145 4.54611840509
0.0135 -0.0135 4.5486353061
0.0135 -0.0125 4.55167069794
0.0135 -0.0115 4.55556329485
0.0135 -0.0105 4.55926769156
0.0135 -0.0095 4.56125034617
0.0135 -0.0085 4.56188600051
0.0135 -0.0075 4.56349925391
0.0135 -0.0065 4.56799584658
0.0135 -0.0055 4.5742937073
0.0135 -0.0045 4.57841426984
0.0135 -0.0035 4.57574691607
0.0135 -0.0025 4.56357071084
0.0135 -0.0015 4.54248511587
0.0135 -0.0005 4.51637968334
0.0135 0.0005 4.49098700217
0.0135 0.0015 4.4717638361
0.0135 0.0025 4.46209631357
0.0135 0.0035 4.46247430223
0.0135 0.0045 4.47085451131
0.0135 0.0055 4.48384620373
0.0135 0.0065 4.49840435079
0.0135 0.0075 4.51164819059
0.0135 0.0085 4.5224334914
0.0135 0.0095 4.53209811323
0.0135 0.0105 4.5471783382
0.0135 0.0115 4.57665981874
0.0135 0.0125 4.61735987827
0.0135 0.0135 4.65000321052
0.0135 0.0145 4.65010344829
0.0135 0.0155 4.58841789897
0.0135 0.0165 4.45057835967
0.0135 0.0175 4.26155029878
0.0135 0.0185 4.06551356915
0.0135 0.0195 3.89513521011
0.0135 0.0205 3.75763946694
0.0135 0.0215 3.64716864792
0.0135 0.0225 3.55445158943
0.0135 0.0235 3.4660657584
0.0135 0.0245 3.37371868466
0.0135 0.0255 3.28154930878
0.0135 0.0265 3.19954204521
0.0135 0.0275 3.13211087873
0.0135 0.0285 3.07890732589
0.0135 0.0295 3.03963299768
0.0135 0.0305 3.01527031905
0.0135 0.0315 3.00679382012
0.0145 -0.0315 4.1305886924
0.0145 -0.0305 4.16772996503
0.0145 -0.0295 4.24106722981
0.0145 -0.0285 4.34702786714
0.0145 -0.0275 4.47589448397
0.0145 -0.0265 4.61284725847
0.0145 -0.0255 4.73432044457
0.0145 -0.0245 4.8256398342
0.0145 -0.0235 4.89279301144
0.0145 -0.0225 4.94881870434
0.0145 -0.0215 5.00619849661
0.0145 -0.0205 5.04878580551
0.0145 -0.0195 5.02875566768
0.0145 -0.0185 4.92059422094
0.0145 -0.0175 4.75997047437
0.0145 -0.0165 4.62416500067
0.0145 -0.0155 4.5610048804
0.0145 -0.0145 4.54850393812
0.0145 -0.0135 4.54710215333
0.0145 -0.0125 4.54177455994
0.0145 -0.0115 4.52928739183
0.0145 -0.0105 4.50838274197
0.0145 -0.0095 4.48126509702
0.0145 -0.0085 4.45286812767
0.0145 -0.0075 4.42825236396
0.0145 -0.0065 4.41081511442
0.0145 -0.0055 4.40106262656
0.0145 -0.0045 4.39681119149
0.0145 -0.0035 4.39458971375
0.0145 -0.0025 4.39139666392
0.0145 -0.0015 4.38603753326
0.0145 -0.0005 4.37959789689
0.0145 0.0005 4.37492685188
0.0145 0.0015 4.37537782331
0.0145 0.0025 4.38331261697
0.0145 0.0035 4.39889013845
0.0145 0.0045 4.41969860674
0.0145 0.0055 4.44212147172
0.0145 0.0065 4.46275877996
0.0145 0.0075 4.47968941622
0.0145 0.0085 4.49312273305
0.0145 0.0095 4.50329154273
0.0145 0.0105 4.51215031443
0.0145 0.0115 4.52543140467
0.0145 0.0125 4.54701657485
0.0145 0.0135 4.57073317405
0.0145 0.0145 4.57431543291
0.0145 0.0155 4.52597038542
0.0145 0.0165 4.41003207562
0.0145 0.0175 4.24108362598
0.0145 0.0185 4.05132281797
0.0145 0.0195 3.87116735236
0.0145 0.0205 3.71747148582
0.0145 0.0215 3.5938703894
0.0145 0.0225 3.49251093108
0.0145 0.0235 3.3976814791
0.0145 0.0245 3.30126648316
0.0145 0.0255 3.20943943904
0.0145 0.0265 3.13231148331
0.0145 0.0275 3.07487810352
0.0145 0.0285 3.0347524496
0.0145 0.0295 3.00696465898
0.0145 0.0305 2.98970668231
0.0145 0.0315 2.98324406913
0.0155 -0.0315 4.06973200039
0.0155 -0.0305 4.09801378948
0.0155 -0.0295 4.15769021659
0.0155 -0.0285 4.24927281813
0.0155 -0.0275 4.36866858239
0.0155 -0.0265 4.50878738959
0.0155 -0.0255 4.64790481521
0.0155 -0.0245 4.7633840867
0.0155 -0.0235 4.85913863646
0.0155 -0.0225 4.95431055937
0.0155 -0.0215 5.0528808658
0.0155 -0.0205 5.11979997516
0.0155 -0.0195 5.10551087872
0.0155 -0.0185 4.99380672536
0.0155 -0.0175 4.8225250287
0.0155 -0.0165 4.66685821646
0.0155 -0.0155 4.58157175755
0.0155 -0.0145 4.55513891541
0.0155 -0.0135 4.54608054544
0.0155 -0.0125 4.53120429047
0.0155 -0.0115 4.50414559394
0.0155 -0.0105 4.46351908656
0.0155 -0.0095 4.41452110894
0.0155 -0.0085 4.36540467446
0.0155 -0.0075 4.3215183536
0.0155 -0.0065 4.28624168314
0.0155 -0.0055 4.26033295044
0.0155 -0.0045 4.24312353017
0.0155 -0.0035 4.23316381886
0.0155 -0.0025 4.2288272308
0.0155 -0.0015 4.22920362022
0.0155 -0.0005 4.23459895775
0.0155 0.0005 4.24629755462
0.0155 0.0015 4.26575388347
0.0155 0.0025 4.29347985574
0.0155 0.0035 4.32797361903
0.0155 0.0045 4.36528352282
0.0155 0.0055 4.4002614393
0.0155 0.0065 4.42790171761
0.0155 0.0075 4.44759353307
0.0155 0.0085 4.46223715152
0.0155 0.0095 4.47164925812
0.0155 0.0105 4.47377141371
0.0155 0.0115 4.47321818378
0.0155 0.0125 4.47970054147
0.0155 0.0135 4.49275037872
0.0155 0.0145 4.49286572218
0.0155 0.0155 4.45288786868
0.0155 0.0165 4.35781683011
0.0155 0.0175 4.21255054665
0.0155 0.0185 4.0371045987
0.0155 0.0195 3.85599148451
0.0155 0.0205 3.68955429657
0.0155 0.0215 3.54789980441
0.0155 0.0225 3.4292559558
0.0155 0.0235 3.32340445372
0.0155 0.0245 3.22452073361
0.0155 0.0255 3.13601201029
0.0155 0.0265 3.06377671858
0.0155 0.0275 3.0143949732
0.0155 0.0285 2.98778721688
0.0155 0.0295 2.97548520395
0.0155 0.0305 2.9693409965
0.0155 0.0315 2.96677744223
0.0165 -0.0315 4.01118122561
0.0165 -0.0305 4.03100912945
0.0165 -0.0295 4.07721401856
0.0165 -0.0285 4.15220771554
0.0165 -0.0275 4.2553436379
0.0165 -0.0265 4.38402890266
0.0165 -0.0255 4.52572229677
0.0165 -0.0245 4.66110121194
0.0165 -0.0235 4.79588740829
0.0165 -0.0225 4.94656426724
0.0165 -0.0215 5.09072128288
0.0165 -0.0205 5.17715641177
0.0165 -0.0195 5.16732054555
0.0165 -0.0185 5.05612478511
0.0165 -0.0175 4.88201200696
0.0165 -0.0165 4.71459936846
0.0165 -0.0155 4.60761538026
0.0165 -0.0145 4.56129950598
0.0165 -0.0135 4.54018760037