% Model:              Benchmark260518.mph
% Version:            COMSOL 6.2.0.339
% Date:               May 19 2026, 14:20
% Dimension:          2
% Nodes:              4096
% Expressions:        1
% Description:        压力
% Length unit:        m
% x                       y                        p (Pa)
5.0E-4                    -0.0315                  3.5928842177570575
5.0E-4                    -0.0305                  3.60977367555658
5.0E-4                    -0.0295                  3.633030600324053
5.0E-4                    -0.0285                  3.658756694351389
5.0E-4                    -0.0275                  3.6858682799643803
5.0E-4                    -0.0265                  3.713839449477642
5.0E-4                    -0.0255                  3.742407965034167
5.0E-4                    -0.0245                  3.7714614294311053
5.0E-4                    -0.0235                  3.8009263138201517
5.0E-4                    -0.0225                  3.8307547138396405
5.0E-4                    -0.0215                  3.8609417929701872
5.0E-4                    -0.0205                  3.891481595094648
5.0E-4                    -0.0195                  3.922338338652345
5.0E-4                    -0.0185                  3.9535346915209355
5.0E-4                    -0.0175                  3.9851337063833063
5.0E-4                    -0.0165                  4.017075850555036
5.0E-4                    -0.0155                  4.049293488506679
5.0E-4                    -0.0145                  4.081754490183423
5.0E-4                    -0.0135                  4.114330227582075
5.0E-4                    -0.0125                  4.146917600034766
5.0E-4                    -0.0115                  4.179378239339713
5.0E-4                    -0.0105                  4.2113555276893795
5.0E-4                    -0.0095                  4.242450528788366
5.0E-4                    -0.0085                  4.272314561238886
5.0E-4                    -0.0075                  4.300543329765102
5.0E-4                    -0.0065                  4.32667449851416
5.0E-4                    -0.0055                  4.350074072955698
5.0E-4                    -0.0045                  4.369960823750926
5.0E-4                    -0.0035                  4.385540426310435
5.0E-4                    -0.0025                  4.395968109866546
5.0E-4                    -0.0015                  4.400331835764405
5.0E-4                    -5.0E-4                  4.397677573740045
5.0E-4                    5.0E-4                   4.387058393303011
5.0E-4                    0.0015                   4.367604895334306
5.0E-4                    0.0025                   4.338609434129902
5.0E-4                    0.0035                   4.2996053836576635
5.0E-4                    0.0045                   4.250420867679913
5.0E-4                    0.0055                   4.1911960980554035
5.0E-4                    0.0065                   4.122368926257037
5.0E-4                    0.0075                   4.044646376785243
5.0E-4                    0.0085                   3.9589809295000076
5.0E-4                    0.0095                   3.866564795969352
5.0E-4                    0.0105                   3.7688596455792736
5.0E-4                    0.0115                   3.667715566207241
5.0E-4                    0.0125                   3.565640581138665
5.0E-4                    0.0135                   3.466227414021625
5.0E-4                    0.0145                   3.374506691566895
5.0E-4                    0.0155                   3.2962013052782844
5.0E-4                    0.0165                   3.2386081032295833
5.0E-4                    0.0175                   3.204471876778087
5.0E-4                    0.0185                   3.187706339572064
5.0E-4                    0.0195                   3.183169708139519
5.0E-4                    0.0205                   3.201708451246344
5.0E-4                    0.0215                   3.2469044130291627
5.0E-4                    0.0225                   3.484005790894167
5.0E-4                    0.0235                   4.123446412460176
5.0E-4                    0.0245                   4.785363758870927
5.0E-4                    0.0255                   5.047319389630992
5.0E-4                    0.0265                   5.08631523461491
5.0E-4                    0.0275                   5.099409284392484
5.0E-4                    0.0285                   5.105676928720041
5.0E-4                    0.0295                   5.110973106875753
5.0E-4                    0.0305                   5.116710698705059
5.0E-4                    0.0315                   5.121603406082024
0.0015                    -0.0315                  3.5759892145047623
0.0015                    -0.0305                  3.5928708482183827
0.0015                    -0.0295                  3.617602126274945
0.0015                    -0.0285                  3.6449952403799464
0.0015                    -0.0275                  3.6735267214805303
0.0015                    -0.0265                  3.702678932327121
0.0015                    -0.0255                  3.73223068915876
0.0015                    -0.0245                  3.762097443192478
0.0015                    -0.0235                  3.7922531937366313
0.0015                    -0.0225                  3.8226925053672502
0.0015                    -0.0215                  3.8534226273153243
0.0015                    -0.0205                  3.8844572454766793
0.0015                    -0.0195                  3.915817731787836
0.0015                    -0.0185                  3.947545921162636
0.0015                    -0.0175                  3.979701710215392
0.0015                    -0.0165                  4.0123421838285624
0.0015                    -0.0155                  4.045509523405805
0.0015                    -0.0145                  4.079249487608203
0.0015                    -0.0135                  4.11360374684342
0.0015                    -0.0125                  4.148568158823741
0.0015                    -0.0115                  4.184039016489424
0.0015                    -0.0105                  4.2197689852744995
0.0015                    -0.0095                  4.255399248408422
0.0015                    -0.0085                  4.2904967354333206
0.0015                    -0.0075                  4.324582261589194
0.0015                    -0.0065                  4.357059258444713
0.0015                    -0.0055                  4.387165211266101
0.0015                    -0.0045                  4.414035704373052
0.0015                    -0.0035                  4.436699430585985
0.0015                    -0.0025                  4.454055596605901
0.0015                    -0.0015                  4.464895734221784
0.0015                    -5.0E-4                  4.467977189355354
0.0015                    5.0E-4                   4.462121134613032
0.0015                    0.0015                   4.446312124352566
0.0015                    0.0025                   4.419781610645007
0.0015                    0.0035                   4.382052726841564
0.0015                    0.0045                   4.332924017782919
0.0015                    0.0055                   4.272417322521541
0.0015                    0.0065                   4.200762767514011
0.0015                    0.0075                   4.118447359850488
0.0015                    0.0085                   4.026281656047678
0.0015                    0.0095                   3.9254441408053737
0.0015                    0.0105                   3.817526694486312
0.0015                    0.0115                   3.7046540155866343
0.0015                    0.0125                   3.5898117174737862
0.0015                    0.0135                   3.4775960625411484
0.0015                    0.0145                   3.37506581274258
0.0015                    0.0155                   3.290579289115635
0.0015                    0.0165                   3.232243995807341
0.0015                    0.0175                   3.2005607239040907
0.0015                    0.0185                   3.186059135866749
0.0015                    0.0195                   3.179605812535113
0.0015                    0.0205                   3.174859052539048
0.0015                    0.0215                   3.1517020042557964
0.0015                    0.0225                   3.409141608687858
0.0015                    0.0235                   4.143666012044905
0.0015                    0.0245                   4.832445076119964
0.0015                    0.0255                   5.076165188854758
0.0015                    0.0265                   5.093481577739665
0.0015                    0.0275                   5.10285049352081
0.0015                    0.0285                   5.109274609978247
0.0015                    0.0295                   5.1150125223658245
0.0015                    0.0305                   5.12162923331385
0.0015                    0.0315                   5.127525558059002
0.0025                    -0.0315                  3.5527125125187706
0.0025                    -0.0305                  3.56808096381051
0.0025                    -0.0295                  3.59277240511971
0.0025                    -0.0285                  3.621510877701554
0.0025                    -0.0275                  3.6517314535658523
0.0025                    -0.0265                  3.682507847060652
0.0025                    -0.0255                  3.713528054075317
0.0025                    -0.0245                  3.7446968474085818
0.0025                    -0.0235                  3.776010367251846
0.0025                    -0.0225                  3.807499941220731
0.0025                    -0.0215                  3.839205266850994
0.0025                    -0.0205                  3.8711742784779566
0.0025                    -0.0195                  3.903472756625819
0.0025                    -0.0185                  3.9361871769702783
0.0025                    -0.0175                  3.9694354709686523
0.0025                    -0.0165                  4.003384849029105
0.0025                    -0.0155                  4.038245342638366
0.0025                    -0.0145                  4.074257930006949
0.0025                    -0.0135                  4.111678570577836
0.0025                    -0.0125                  4.150711308208897
0.0025                    -0.0115                  4.191435896761265
0.0025                    -0.0105                  4.233758442717042
0.0025                    -0.0095                  4.277361701433463
0.0025                    -0.0085                  4.321715741042744
0.0025                    -0.0075                  4.366114149534251
0.0025                    -0.0065                  4.40971288263401
0.0025                    -0.0055                  4.451553367052291
0.0025                    -0.0045                  4.490516926702681
0.0025                    -0.0035                  4.525264724287179
0.0025                    -0.0025                  4.5542122869235815
0.0025                    -0.0015                  4.575603024415392
0.0025                    -5.0E-4                  4.587702539374767
0.0025                    5.0E-4                   4.589032576484784
0.0025                    0.0015                   4.578536141055775
0.0025                    0.0025                   4.555604086117103
0.0025                    0.0035                   4.519943601638125
0.0025                    0.0045                   4.471352580894812
0.0025                    0.0055                   4.409562698908195
0.0025                    0.0065                   4.334294379846495
0.0025                    0.0075                   4.245496148817002
0.0025                    0.0085                   4.143608391415898
0.0025                    0.0095                   4.029737602800902
0.0025                    0.0105                   3.905764540982647
0.0025                    0.0115                   3.774519999144587
0.0025                    0.0125                   3.640263755989836
0.0025                    0.0135                   3.509622661803991
0.0025                    0.0145                   3.3922184020352146
0.0025                    0.0155                   3.299002586360919
0.0025                    0.0165                   3.236895804010285
0.0025                    0.0175                   3.203613691450612
0.0025                    0.0185                   3.1876636574149706
0.0025                    0.0195                   3.1792545297373596
0.0025                    0.0205                   3.1627017150803924
0.0025                    0.0215                   3.14241465873438
0.0025                    0.0225                   3.503905978552484
0.0025                    0.0235                   4.290455223224604
0.0025                    0.0245                   4.899108949767042
0.0025                    0.0255                   5.091920937592152
0.0025                    0.0265                   5.101463446300327
0.0025                    0.0275                   5.112192947238633
0.0025                    0.0285                   5.118610335063176
0.0025                    0.0295                   5.124165672856692
0.0025                    0.0305                   5.131107039737233
0.0025                    0.0315                   5.137599190187506
0.0035                    -0.0315                  3.5269267413865806
0.0035                    -0.0305                  3.5405703536596
0.0035                    -0.0295                  3.5638136560400726
0.0035                    -0.0285                  3.592495498156021
0.0035                    -0.0275                  3.6236979395683404
0.0035                    -0.0265                  3.6558748805315964
0.0035                    -0.0255                  3.688384514539559
0.0035                    -0.0245                  3.7210067639752027
0.0035                    -0.0235                  3.753700800731276
0.0035                    -0.0225                  3.786502821426169
0.0035                    -0.0215                  3.819480125844483
0.0035                    -0.0205                  3.852715507990992
0.0035                    -0.0195                  3.8863103823929364
0.0035                    -0.0185                  3.920400205152439
0.0035                    -0.0175                  3.9551781780378032
0.0035                    -0.0165                  3.990920095653239
0.0035                    -0.0155                  4.028000072907229
0.0035                    -0.0145                  4.066880129513411
0.0035                    -0.0135                  4.108070530990954
0.0035                    -0.0125                  4.1520644017138
0.0035                    -0.0115                  4.199239233258905
0.0035                    -0.0105                  4.24973761450235
0.0035                    -0.0095                  4.303358917082173
0.0035                    -0.0085                  4.359496198393878
0.0035                    -0.0075                  4.417166836241481
0.0035                    -0.0065                  4.475122149617876
0.0035                    -0.0055                  4.53193745661091
0.0035                    -0.0045                  4.5859954130500595
0.0035                    -0.0035                  4.635376994505907
0.0035                    -0.0025                  4.677813376103527
0.0035                    -0.0015                  4.710835797264654
0.0035                    -5.0E-4                  4.732163431373651
0.0035                    5.0E-4                   4.740195209494479
0.0035                    0.0015                   4.734289669109266
0.0035                    0.0025                   4.714571243780637
0.0035                    0.0035                   4.6812964366370995
0.0035                    0.0045                   4.634256354683886
0.0035                    0.0055                   4.572653388103966
0.0035                    0.0065                   4.495370874414273
0.0035                    0.0075                   4.401425817978854
0.0035                    0.0085                   4.290504216315517
0.0035                    0.0095                   4.163432638687974
0.0035                    0.0105                   4.022444014111457
0.0035                    0.0115                   3.871434982850762
0.0035                    0.0125                   3.7165891860738753
0.0035                    0.0135                   3.567106131928772
0.0035                    0.0145                   3.434826484444953
0.0035                    0.0155                   3.331293601077373
0.0035                    0.0165                   3.2608822823771915
0.0035                    0.0175                   3.2203711203560004
0.0035                    0.0185                   3.1984556441969447
0.0035                    0.0195                   3.183283789526693
0.0035                    0.0205                   3.173289152049799
0.0035                    0.0215                   3.1857484611639446
0.0035                    0.0225                   3.6346817900577904
0.0035                    0.0235                   4.457926629934291
0.0035                    0.0245                   4.985577518030926
0.0035                    0.0255                   5.116773566399148
0.0035                    0.0265                   5.118003353048001
0.0035                    0.0275                   5.129428514740791
0.0035                    0.0285                   5.13486693084664
0.0035                    0.0295                   5.13884029075292
0.0035                    0.0305                   5.145213796951752
0.0035                    0.0315                   5.151863804151042
0.0045                    -0.0315                  3.4996502244820666
0.0045                    -0.0305                  3.5118306344534336
0.0045                    -0.0295                  3.5332966885174413
0.0045                    -0.0285                  3.560910676400576
0.0045                    -0.0275                  3.5920892780143543
0.0045                    -0.0265                  3.625022921511561
0.0045                    -0.0255                  3.6586955730576722
0.0045                    -0.0245                  3.6926496428924356
0.0045                    -0.0235                  3.7267328130067234
0.0045                    -0.0225                  3.7609442354650153
0.0045                    -0.0215                  3.7953563438787983
0.0045                    -0.0205                  3.830077553899795
0.0045                    -0.0195                  3.865243248818725
0.0045                    -0.0185                  3.9010307831657984
0.0045                    -0.0175                  3.9376912906902763
0.0045                    -0.0165                  3.975587619465892
0.0045                    -0.0155                  4.015223581753255
0.0045                    -0.0145                  4.057248104115281
0.0045                    -0.0135                  4.102424727122828
0.0045                    -0.0125                  4.1515630993924795
0.0045                    -0.0115                  4.205399845401354
0.0045                    -0.0105                  4.264426149575747
0.0045                    -0.0095                  4.328694524677241
0.0045                    -0.0085                  4.3976508038044795
0.0045                    -0.0075                  4.470062402528276
0.0045                    -0.0065                  4.544099563528588
0.0045                    -0.0055                  4.617500464637288
0.0045                    -0.0045                  4.687700982164621
0.0045                    -0.0035                  4.75182839975282
0.0045                    -0.0025                  4.80668705988145
0.0045                    -0.0015                  4.849092743173657
0.0045                    -5.0E-4                  4.876536018679171
0.0045                    5.0E-4                   4.8879372314029474
0.0045                    0.0015                   4.883909215195079
0.0045                    0.0025                   4.8659209325969055
0.0045                    0.0035                   4.834968118893706
0.0045                    0.0045                   4.790796020043561
0.0045                    0.0055                   4.731946574151462
0.0045                    0.0065                   4.656273005627033
0.0045                    0.0075                   4.561530187475817
0.0045                    0.0085                   4.446135389328324
0.0045                    0.0095                   4.310061764812567
0.0045                    0.0105                   4.1555173412924615
0.0045                    0.0115                   3.9874751836806723
0.0045                    0.0125                   3.8142968976224285
0.0045                    0.0135                   3.6479466544777184
0.0045                    0.0145                   3.5021302856878087
0.0045                    0.0155                   3.387895510443597
0.0045                    0.0165                   3.3076555218590924
0.0045                    0.0175                   3.256436342597448
0.0045                    0.0185                   3.2253632703804107
0.0045                    0.0195                   3.1965616697949195
0.0045                    0.0205                   3.1769617514635113
0.0045                    0.0215                   3.295529044519523
0.0045                    0.0225                   3.86014499248867
0.0045                    0.0235                   4.652543629296755
0.0045                    0.0245                   5.090774926587267
0.0045                    0.0255                   5.164614294461956
0.0045                    0.0265                   5.152833175582281
0.0045                    0.0275                   5.157587090880751
0.0045                    0.0285                   5.158298188360409
0.0045                    0.0295                   5.159164442093277
0.0045                    0.0305                   5.164256365264782
0.0045                    0.0315                   5.170679679493391
0.0055                    -0.0315                  3.4713360333006316
0.0055                    -0.0305                  3.4823430508007744
0.0055                    -0.0295                  3.502155627771671
0.0055                    -0.0285                  3.5283457061612804
0.0055                    -0.0275                  3.558788200949391
0.0055                    -0.0265                  3.591768136654027
0.0055                    -0.0255                  3.626089038697781
0.0055                    -0.0245                  3.6610610612208028
0.0055                    -0.0235                  3.696371149736544
0.0055                    -0.0225                  3.731939262836678
0.0055                    -0.0215                  3.7678169535476758
0.0055                    -0.0205                  3.8041274009316184
0.0055                    -0.0195                  3.841037311417886
0.0055                    -0.0185                  3.8787577308574366
0.0055                    -0.0175                  3.917572255458695
0.0055                    -0.0165                  3.957884333842431
0.0055                    -0.0155                  4.000265743883891
0.0055                    -0.0145                  4.045485317543812
0.0055                    -0.0135                  4.094499823389983
0.0055                    -0.0125                  4.14839521803918
0.0055                    -0.0115                  4.208271304663398
0.0055                    -0.0105                  4.275047770180299
0.0055                    -0.0095                  4.349189552520382
0.0055                    -0.0085                  4.430411415716454
0.0055                    -0.0075                  4.517404974636214
0.0055                    -0.0065                  4.607701079274503
0.0055                    -0.0055                  4.697813844380468
0.0055                    -0.0045                  4.78354387150722
0.0055                    -0.0035                  4.860367607145883
0.0055                    -0.0025                  4.923794189210001
0.0055                    -0.0015                  4.970060176144134
0.0055                    -5.0E-4                  4.997562670822259
0.0055                    5.0E-4                   5.00734667830045
0.0055                    0.0015                   5.001963466869747
0.0055                    0.0025                   4.983957855869918
0.0055                    0.0035                   4.9547739740634835
0.0055                    0.0045                   4.9142796597173035
0.0055                    0.0055                   4.860669032187892
0.0055                    0.0065                   4.790874603715983
0.0055                    0.0075                   4.701405710879273
0.0055                    0.0085                   4.589101646396111
0.0055                    0.0095                   4.452050310974335
0.0055                    0.0105                   4.291141043739827
0.0055                    0.0115                   4.111861076351968
0.0055                    0.0125                   3.924965265309774
0.0055                    0.0135                   3.7452502576570925
0.0055                    0.0145                   3.588750778295328
0.0055                    0.0155                   3.465645152208776
0.0055                    0.0165                   3.376842015937864
0.0055                    0.0175                   3.3146694821646756
0.0055                    0.0185                   3.271130196414456
0.0055                    0.0195                   3.239789172535408
0.0055                    0.0205                   3.2167735869618928
0.0055                    0.0215                   3.4707830419959187
0.0055                    0.0225                   4.140732954392524
0.0055                    0.0235                   4.839139856341348
0.0055                    0.0245                   5.185453477076462
0.0055                    0.0255                   5.223215293416571
0.0055                    0.0265                   5.201368648332502
0.0055                    0.0275                   5.193110942094634
0.0055                    0.0285                   5.18717933906992
0.0055                    0.0295                   5.184803858530887
0.0055                    0.0305                   5.188315110655211
0.0055                    0.0315                   5.1941232055587045
0.0065                    -0.0315                  3.442238812954005
0.0065                    -0.0305                  3.452316318661452
0.0065                    -0.0295                  3.4707141153626546
0.0065                    -0.0285                  3.495484950319893
0.0065                    -0.0275                  3.524883569193124
0.0065                    -0.0265                  3.557408744179012
0.0065                    -0.0255                  3.5918764797736293
0.0065                    -0.0245                  3.6274735860823664
0.0065                    -0.0235                  3.663741098623433
0.0065                    -0.0225                  3.7004979607479047
0.0065                    -0.0215                  3.737752875144719
0.0065                    -0.0205                  3.775633142244363
0.0065                    -0.0195                  3.8143361499529833
0.0065                    -0.0185                  3.8541058359777702
0.0065                    -0.0175                  3.895240276102605
0.0065                    -0.0165                  3.938134291133648
0.0065                    -0.0155                  3.983346846646238
0.0065                    -0.0145                  4.031664518917516
0.0065                    -0.0135                  4.084128536230363
0.0065                    -0.0125                  4.142001819326773
0.0065                    -0.0115                  4.206669248755247
0.0065                    -0.0105                  4.279470597842588
0.0065                    -0.0095                  4.361403193410604
0.0065                    -0.0085                  4.4526763265973575
0.0065                    -0.0075                  4.552235937024026
0.0065                    -0.0065                  4.657247106453429
0.0065                    -0.0055                  4.7628153056312055
0.0065                    -0.0045                  4.86242370613992
0.0065                    -0.0035                  4.948856565819247
0.0065                    -0.0025                  5.015747050992599
0.0065                    -0.0015                  5.059491065297271
0.0065                    -5.0E-4                  5.081278493746852
0.0065                    5.0E-4                   5.0857362721869315
0.0065                    0.0015                   5.076948552641862
0.0065                    0.0025                   5.057461590489651
0.0065                    0.0035                   5.028824215941707
0.0065                    0.0045                   4.991300645639586
0.0065                    0.0055                   4.943248728549424
0.0065                    0.0065                   4.8811680948268386
0.0065                    0.0075                   4.8012179430658835
0.0065                    0.0085                   4.699445656681109
0.0065                    0.0095                   4.571079038415679
0.0065                    0.0105                   4.413467755131726
0.0065                    0.0115                   4.2310837439788225
0.0065                    0.0125                   4.036955628781344