% Model:              Benchmark260518.mph
% Version:            COMSOL 6.2.0.339
% Date:               May 21 2026, 18:14
% Dimension:          2
% Nodes:              4096
% Expressions:        1
% Description:        压力
% Length unit:        m
% x                       y                        p (Pa)
5.0E-4                    -0.0315                  3.616149085124204
5.0E-4                    -0.0305                  3.6363407611957506
5.0E-4                    -0.0295                  3.663870387868548
5.0E-4                    -0.0285                  3.693798422169146
5.0E-4                    -0.0275                  3.725087128669646
5.0E-4                    -0.0265                  3.757369051551571
5.0E-4                    -0.0255                  3.7904048741426224
5.0E-4                    -0.0245                  3.824060547196711
5.0E-4                    -0.0235                  3.8582406622070295
5.0E-4                    -0.0225                  3.8928923983621
5.0E-4                    -0.0215                  3.9279968312605256
5.0E-4                    -0.0205                  3.9635538275896005
5.0E-4                    -0.0195                  3.9995798922144568
5.0E-4                    -0.0185                  4.036109476666366
5.0E-4                    -0.0175                  4.0731954775381505
5.0E-4                    -0.0165                  4.110904894405381
5.0E-4                    -0.0155                  4.1493040025411405
5.0E-4                    -0.0145                  4.188445926270827
5.0E-4                    -0.0135                  4.228347044457537
5.0E-4                    -0.0125                  4.268966890568758
5.0E-4                    -0.0115                  4.310186518936575
5.0E-4                    -0.0105                  4.351766263826154
5.0E-4                    -0.0095                  4.393347319918617
5.0E-4                    -0.0085                  4.434487196270698
5.0E-4                    -0.0075                  4.474718755246319
5.0E-4                    -0.0065                  4.513610576369514
5.0E-4                    -0.0055                  4.550804158001124
5.0E-4                    -0.0045                  4.586082850700147
5.0E-4                    -0.0035                  4.619289763888478
5.0E-4                    -0.0025                  4.6498102209405054
5.0E-4                    -0.0015                  4.676326085350774
5.0E-4                    -5.0E-4                  4.697486816921394
5.0E-4                    5.0E-4                   4.712423955728956
5.0E-4                    0.0015                   4.72083143855912
5.0E-4                    0.0025                   4.723584791393657
5.0E-4                    0.0035                   4.723013241789628
5.0E-4                    0.0045                   4.721126925462909
5.0E-4                    0.0055                   4.718116314262305
5.0E-4                    0.0065                   4.713856495765449
5.0E-4                    0.0075                   4.722209065481886
5.0E-4                    0.0085                   4.764750952675153
5.0E-4                    0.0095                   4.8292228777099915
5.0E-4                    0.0105                   4.882275860819345
5.0E-4                    0.0115                   4.918048908222084
5.0E-4                    0.0125                   4.946718595862429
5.0E-4                    0.0135                   4.969473748924675
5.0E-4                    0.0145                   4.981515125654662
5.0E-4                    0.0155                   4.983138918632198
5.0E-4                    0.0165                   4.982009063613247
5.0E-4                    0.0175                   4.981862839584315
5.0E-4                    0.0185                   4.981884117221029
5.0E-4                    0.0195                   4.9817499548083894
5.0E-4                    0.0205                   4.981520180507386
5.0E-4                    0.0215                   4.981467875009647
5.0E-4                    0.0225                   4.978725353789889
5.0E-4                    0.0235                   4.968667363818755
5.0E-4                    0.0245                   4.942887853314876
5.0E-4                    0.0255                   4.903023116219648
5.0E-4                    0.0265                   4.859562744652603
5.0E-4                    0.0275                   4.815676966416544
5.0E-4                    0.0285                   4.772776979126928
5.0E-4                    0.0295                   4.731529247679795
5.0E-4                    0.0305                   4.6934951164951295
5.0E-4                    0.0315                   4.665579150605415
0.0015                    -0.0315                  3.5958603150726094
0.0015                    -0.0305                  3.6161052834592544
0.0015                    -0.0295                  3.645640566953926
0.0015                    -0.0285                  3.6779322433754498
0.0015                    -0.0275                  3.711168921787781
0.0015                    -0.0265                  3.744936181652162
0.0015                    -0.0255                  3.779095463090738
0.0015                    -0.0245                  3.813573112597904
0.0015                    -0.0235                  3.848325135428808
0.0015                    -0.0225                  3.8833255358717187
0.0015                    -0.0215                  3.9185684118064597
0.0015                    -0.0205                  3.9540674016770243
0.0015                    -0.0195                  3.989856427612377
0.0015                    -0.0185                  4.025996022723113
0.0015                    -0.0175                  4.062579277845816
0.0015                    -0.0165                  4.099735338668786
0.0015                    -0.0155                  4.1376272245190595
0.0015                    -0.0145                  4.1764422232790155
0.0015                    -0.0135                  4.2163729649753385
0.0015                    -0.0125                  4.2575798875568225
0.0015                    -0.0115                  4.3001325535118875
0.0015                    -0.0105                  4.343934033231655
0.0015                    -0.0095                  4.388654780215459
0.0015                    -0.0085                  4.433723682457301
0.0015                    -0.0075                  4.47839162929326
0.0015                    -0.0065                  4.52184669007054
0.0015                    -0.0055                  4.563345016242175
0.0015                    -0.0045                  4.602243427631986
0.0015                    -0.0035                  4.637788712388537
0.0015                    -0.0025                  4.668843393211857
0.0015                    -0.0015                  4.6940664269746115
0.0015                    -5.0E-4                  4.712415014495571
0.0015                    5.0E-4                   4.723478965077362
0.0015                    0.0015                   4.727814916292176
0.0015                    0.0025                   4.727412794230934
0.0015                    0.0035                   4.725058654489332
0.0015                    0.0045                   4.722265805309339
0.0015                    0.0055                   4.718855793661985
0.0015                    0.0065                   4.716321706492247
0.0015                    0.0075                   4.71387969582295
0.0015                    0.0085                   4.742053085409741
0.0015                    0.0095                   4.796367892459677
0.0015                    0.0105                   4.834044474095952
0.0015                    0.0115                   4.85717878576794
0.0015                    0.0125                   4.876633378468503
0.0015                    0.0135                   4.8962048086556775
0.0015                    0.0145                   4.914595772147514
0.0015                    0.0155                   4.927550184403664
0.0015                    0.0165                   4.933791449647774
0.0015                    0.0175                   4.936436341338132
0.0015                    0.0185                   4.937334338788173
0.0015                    0.0195                   4.936939833140601
0.0015                    0.0205                   4.935690598703666
0.0015                    0.0215                   4.932960378345448
0.0015                    0.0225                   4.928112303236865
0.0015                    0.0235                   4.921346259722064
0.0015                    0.0245                   4.906024001687362
0.0015                    0.0255                   4.876065697186356
0.0015                    0.0265                   4.836357865359668
0.0015                    0.0275                   4.793143587046388
0.0015                    0.0285                   4.749070513887178
0.0015                    0.0295                   4.705481661512747
0.0015                    0.0305                   4.665166326437455
0.0015                    0.0315                   4.637401461233364
0.0025                    -0.0315                  3.5680401027080744
0.0025                    -0.0305                  3.586435590594608
0.0025                    -0.0295                  3.616077809182496
0.0025                    -0.0285                  3.650318817441727
0.0025                    -0.0275                  3.6859468513102467
0.0025                    -0.0265                  3.721874731773186
0.0025                    -0.0255                  3.7578003730074663
0.0025                    -0.0245                  3.7936394251699515
0.0025                    -0.0235                  3.8293664828081155
0.0025                    -0.0225                  3.864975985691366
0.0025                    -0.0215                  3.9004750104012653
0.0025                    -0.0205                  3.9358896612596803
0.0025                    -0.0195                  3.9712755950798093
0.0025                    -0.0185                  4.006731207070715
0.0025                    -0.0175                  4.042413429132901
0.0025                    -0.0165                  4.078552999973978
0.0025                    -0.0155                  4.115466678199531
0.0025                    -0.0145                  4.153560179256074
0.0025                    -0.0135                  4.193312423471908
0.0025                    -0.0125                  4.235226197924449
0.0025                    -0.0115                  4.279730346412522
0.0025                    -0.0105                  4.327034623599742
0.0025                    -0.0095                  4.376962594944596
0.0025                    -0.0085                  4.428824623668984
0.0025                    -0.0075                  4.481407377916134
0.0025                    -0.0065                  4.533109525939231
0.0025                    -0.0055                  4.582146942279618
0.0025                    -0.0045                  4.626693930967474
0.0025                    -0.0035                  4.664974490868564
0.0025                    -0.0025                  4.695493867091949
0.0025                    -0.0015                  4.7173951030301655
0.0025                    -5.0E-4                  4.730676268071074
0.0025                    5.0E-4                   4.736252602072591
0.0025                    0.0015                   4.7361052354309265
0.0025                    0.0025                   4.732963919202863
0.0025                    0.0035                   4.729103819030263
0.0025                    0.0045                   4.725222481314253
0.0025                    0.0055                   4.721842013371018
0.0025                    0.0065                   4.720082461813579
0.0025                    0.0075                   4.725870213425475
0.0025                    0.0085                   4.750452085825548
0.0025                    0.0095                   4.782796914062507
0.0025                    0.0105                   4.805446932099756
0.0025                    0.0115                   4.820750089532057
0.0025                    0.0125                   4.834254346620499
0.0025                    0.0135                   4.848395174658798
0.0025                    0.0145                   4.863582356747317
0.0025                    0.0155                   4.877674202127704
0.0025                    0.0165                   4.887168906819133
0.0025                    0.0175                   4.891487991526261
0.0025                    0.0185                   4.891846298359859
0.0025                    0.0195                   4.889761759883943
0.0025                    0.0205                   4.885913324731758
0.0025                    0.0215                   4.880660970386314
0.0025                    0.0225                   4.874325429661261
0.0025                    0.0235                   4.864920447935812
0.0025                    0.0245                   4.849569364540017
0.0025                    0.0255                   4.825547019462126
0.0025                    0.0265                   4.791691446552999
0.0025                    0.0275                   4.7509113726885
0.0025                    0.0285                   4.706844489096837
0.0025                    0.0295                   4.662608634376308
0.0025                    0.0305                   4.623376165423399
0.0025                    0.0315                   4.598832368123858
0.0035                    -0.0315                  3.5376675366917274
0.0035                    -0.0305                  3.5538695385707024
0.0035                    -0.0295                  3.5818290701095155
0.0035                    -0.0285                  3.6162205669180514
0.0035                    -0.0275                  3.653300774128625
0.0035                    -0.0265                  3.69111501695124
0.0035                    -0.0255                  3.728848290231673
0.0035                    -0.0245                  3.7662041918321765
0.0035                    -0.0235                  3.803078950746791
0.0035                    -0.0225                  3.8394384850178436
0.0035                    -0.0215                  3.87528033640117
0.0035                    -0.0205                  3.9106304854528435
0.0035                    -0.0195                  3.945557007583382
0.0035                    -0.0185                  3.980191594705669
0.0035                    -0.0175                  4.014755377165408
0.0035                    -0.0165                  4.049586524678002
0.0035                    -0.0155                  4.085165577087843
0.0035                    -0.0145                  4.122131286476622
0.0035                    -0.0135                  4.1612736368498675
0.0035                    -0.0125                  4.203484873283191
0.0035                    -0.0115                  4.249644448723883
0.0035                    -0.0105                  4.3004191167760375
0.0035                    -0.0095                  4.355985192255952
0.0035                    -0.0085                  4.415725417034192
0.0035                    -0.0075                  4.478006297804856
0.0035                    -0.0065                  4.540140937736913
0.0035                    -0.0055                  4.598599779603151
0.0035                    -0.0045                  4.64961723697181
0.0035                    -0.0035                  4.690163811776988
0.0035                    -0.0025                  4.718821016910264
0.0035                    -0.0015                  4.7361980507456485
0.0035                    -5.0E-4                  4.744423581999178
0.0035                    5.0E-4                   4.746007700744288
0.0035                    0.0015                   4.743470040462665
0.0035                    0.0025                   4.73908964710076
0.0035                    0.0035                   4.734290822038364
0.0035                    0.0045                   4.729947127316073
0.0035                    0.0055                   4.727036627800813
0.0035                    0.0065                   4.726772166195755
0.0035                    0.0075                   4.735003547663018
0.0035                    0.0085                   4.753684476539975
0.0035                    0.0095                   4.773010155902148
0.0035                    0.0105                   4.78666935009281
0.0035                    0.0115                   4.796742960185592
0.0035                    0.0125                   4.806206235934898
0.0035                    0.0135                   4.816160469807316
0.0035                    0.0145                   4.826886672714722
0.0035                    0.0155                   4.837034133735601
0.0035                    0.0165                   4.843984579993032
0.0035                    0.0175                   4.846304258525946
0.0035                    0.0185                   4.844128653318395
0.0035                    0.0195                   4.838859072518473
0.0035                    0.0205                   4.831775855328453
0.0035                    0.0215                   4.823600861691464
0.0035                    0.0225                   4.813922478446141
0.0035                    0.0235                   4.801427969843078
0.0035                    0.0245                   4.784519586987767
0.0035                    0.0255                   4.761641852497214
0.0035                    0.0265                   4.73159454194313
0.0035                    0.0275                   4.694617568343993
0.0035                    0.0285                   4.653334986184806
0.0035                    0.0295                   4.612141444730856
0.0035                    0.0305                   4.577318362881956
0.0035                    0.0315                   4.556864692380408
0.0045                    -0.0315                  3.505889251045839
0.0045                    -0.0305                  3.5202709768528693
0.0045                    -0.0295                  3.5461016848076654
0.0045                    -0.0285                  3.579338150612394
0.0045                    -0.0275                  3.6165559594472825
0.0045                    -0.0265                  3.6553926087915642
0.0045                    -0.0255                  3.6944883699548567
0.0045                    -0.0245                  3.7331745527602975
0.0045                    -0.0235                  3.771149311334127
0.0045                    -0.0225                  3.8082800232741487
0.0045                    -0.0215                  3.8445149427842678
0.0045                    -0.0205                  3.8798561719610047
0.0045                    -0.0195                  3.9143657678861334
0.0045                    -0.0185                  3.948190503534124
0.0045                    -0.0175                  3.9815962029705085
0.0045                    -0.0165                  4.015005501793409
0.0045                    -0.0155                  4.049033339046578
0.0045                    -0.0145                  4.084512779442817
0.0045                    -0.0135                  4.122499184605577
0.0045                    -0.0125                  4.164233431117104
0.0045                    -0.0115                  4.211036796626705
0.0045                    -0.0105                  4.2641014697261355
0.0045                    -0.0095                  4.324145001517376
0.0045                    -0.0085                  4.390934314026661
0.0045                    -0.0075                  4.462745963344254
0.0045                    -0.0065                  4.5359155225686365
0.0045                    -0.0055                  4.604812653991457
0.0045                    -0.0045                  4.662956318419473
0.0045                    -0.0035                  4.70585261223254
0.0045                    -0.0025                  4.73273086018448
0.0045                    -0.0015                  4.746699967846102
0.0045                    -5.0E-4                  4.752448194723929
0.0045                    5.0E-4                   4.752983228806506
0.0045                    0.0015                   4.749953648297916
0.0045                    0.0025                   4.744934498205024
0.0045                    0.0035                   4.73969830419201
0.0045                    0.0045                   4.735907498696525
0.0045                    0.0055                   4.73435434790867
0.0045                    0.0065                   4.73671171581807
0.0045                    0.0075                   4.744479062437738
0.0045                    0.0085                   4.754718169945159
0.0045                    0.0095                   4.764101250408235
0.0045                    0.0105                   4.772287395104273
0.0045                    0.0115                   4.779849663000835
0.0045                    0.0125                   4.787087509451142
0.0045                    0.0135                   4.793880747809398
0.0045                    0.0145                   4.799883357753329
0.0045                    0.0155                   4.8036413533873175
0.0045                    0.0165                   4.8038160429724766
0.0045                    0.0175                   4.800156045468762
0.0045                    0.0185                   4.793039673042947
0.0045                    0.0195                   4.7835259405619555
0.0045                    0.0205                   4.7727161966267735
0.0045                    0.0215                   4.761003909397331
0.0045                    0.0225                   4.7479784067163076
0.0045                    0.0235                   4.73278851076467
0.0045                    0.0245                   4.7143486232137874
0.0045                    0.0255                   4.691542626385369
0.0045                    0.0265                   4.663582290459151
0.0045                    0.0275                   4.630539184842153
0.0045                    0.0285                   4.594237453281238
0.0045                    0.0295                   4.558687538231112
0.0045                    0.0305                   4.529520791996308
0.0045                    0.0315                   4.51288406188726
0.0055                    -0.0315                  3.4730923172677106
0.0055                    -0.0305                  3.4860847455420902
0.0055                    -0.0295                  3.5099540225685355
0.0055                    -0.0285                  3.5415443389923165
0.0055                    -0.0275                  3.5779511453626545
0.0055                    -0.0265                  3.6168566563669553
0.0055                    -0.0255                  3.6566108937760253
0.0055                    -0.0245                  3.6961914972669687
0.0055                    -0.0235                  3.735032441176884
0.0055                    -0.0225                  3.772840173847873
0.0055                    -0.0215                  3.8094711568468145
0.0055                    -0.0205                  3.8448745912860147
0.0055                    -0.0195                  3.879081996323039
0.0055                    -0.0185                  3.9122276108700813
0.0055                    -0.0175                  3.9445869616489784
0.0055                    -0.0165                  3.976622412492097
0.0055                    -0.0155                  4.009026088878429
0.0055                    -0.0145                  4.04275219211409
0.0055                    -0.0135                  4.079030296711453
0.0055                    -0.0125                  4.1193452887150865
0.0055                    -0.0115                  4.165359054288115
0.0055                    -0.0105                  4.218735502654257
0.0055                    -0.0095                  4.2808078960951566
0.0055                    -0.0085                  4.3520200373925
0.0055                    -0.0075                  4.431116849628136
0.0055                    -0.0065                  4.514148543666874
0.0055                    -0.0055                  4.593794388144885
0.0055                    -0.0045                  4.660639670314447
0.0055                    -0.0035                  4.708354941148764
0.0055                    -0.0025                  4.736477412882836
0.0055                    -0.0015                  4.750422084083639
0.0055                    -5.0E-4                  4.756899338910137
0.0055                    5.0E-4                   4.758421585238411
0.0055                    0.0015                   4.755652377384061
0.0055                    0.0025                   4.750448900508524
0.0055                    0.0035                   4.746015016467775
0.0055                    0.0045                   4.744834865533412
0.0055                    0.0055                   4.747102487402787
0.0055                    0.0065                   4.750998992236049
0.0055                    0.0075                   4.752381689055738
0.0055                    0.0085                   4.7521904792449545
0.0055                    0.0095                   4.754569814660166
0.0055                    0.0105                   4.759658755306273
0.0055                    0.0115                   4.766182812591971
0.0055                    0.0125                   4.772263184359512
0.0055                    0.0135                   4.77641488458236
0.0055                    0.0145                   4.776953203712627
0.0055                    0.0155                   4.772513656453503
0.0055                    0.0165                   4.763532447999587
0.0055                    0.0175                   4.751526043206243
0.0055                    0.0185                   4.737812437162291
0.0055                    0.0195                   4.72332803667826
0.0055                    0.0205                   4.708580589572391
0.0055                    0.0215                   4.693579353385881
0.0055                    0.0225                   4.677891333218937
0.0055                    0.0235                   4.660777177634303
0.0055                    0.0245                   4.64137607143099
0.0055                    0.0255                   4.61890465964973
0.0055                    0.0265                   4.592943263833918
0.0055                    0.0275                   4.563862962600343
0.0055                    0.0285                   4.533242728623702
0.0055                    0.0295                   4.5040882738092165
0.0055                    0.0305                   4.480598608331543
0.0055                    0.0315                   4.467351803862142
0.0065                    -0.0315                  3.439506677899923
0.0065                    -0.0305                  3.4514301321398877
0.0065                    -0.0295                  3.4736456255173973
0.0065                    -0.0285                  3.5035607264211652
0.0065                    -0.0275                  3.5387075026691424
0.0065                    -0.0265                  3.5769841225957504
0.0065                    -0.0255                  3.616702309638436
0.0065                    -0.0245                  3.656636134252767
0.0065                    -0.0235                  3.695987645110756
0.0065                    -0.0225                  3.7342824159615535
0.0065                    -0.0215                  3.771257925179274
0.0065                    -0.0205                  3.806787372291029
0.0065                    -0.0195                  3.8408486721848325
0.0065                    -0.0185                  3.8735328633481196
0.0065                    -0.0175                  3.905080964570141
0.0065                    -0.0165                  3.935935222152736
0.0065                    -0.0155                  3.966789751195315
0.0065                    -0.0145                  3.9986282980843413
0.0065                    -0.0135                  4.032742107551207
0.0065                    -0.0125                  4.070722517803099
0.0065                    -0.0115                  4.1144121456441205
0.0065                    -0.0105                  4.1657814745830075
0.0065                    -0.0095                  4.22667803804368
0.0065                    -0.0085                  4.298337771951735
0.0065                    -0.0075                  4.380505025367254
0.0065                    -0.0065                  4.470062174713882
0.0065                    -0.0055                  4.559464143352444
0.0065                    -0.0045                  4.637348750170073
0.0065                    -0.0035                  4.695048196691843
0.0065                    -0.0025                  4.7303535706866695
0.0065                    -0.0015                  4.749024896571936
0.0065                    -5.0E-4                  4.759107336931525
0.0065                    5.0E-4                   4.762935750447987
0.0065                    0.0015                   4.761338564566137
0.0065                    0.0025                   4.757997592900477
0.0065                    0.0035                   4.758039006420102
0.0065                    0.0045                   4.763518110050319
0.0065                    0.0055                   4.770249212262179
0.0065                    0.0065                   4.769776351150007
0.0065                    0.0075                   4.7594296700427305
0.0065                    0.0085                   4.748446550437462
0.0065                    0.0095                   4.745000198957415
0.0065                    0.0105                   4.747965168730706
0.0065                    0.0115                   4.753318653828588
0.0065                    0.0125                   4.757725866507306