% Model:              Benchmark260518.mph
% Version:            COMSOL 6.2.0.339
% Date:               May 21 2026, 01:22
% Dimension:          2
% Nodes:              4096
% Expressions:        1
% Description:        压力
% Length unit:        m
% x                       y                        p (Pa)
5.0E-4                    -0.0315                  3.8974445002956664
5.0E-4                    -0.0305                  3.924666145270964
5.0E-4                    -0.0295                  3.9616113374217394
5.0E-4                    -0.0285                  4.001692092952407
5.0E-4                    -0.0275                  4.043426861990249
5.0E-4                    -0.0265                  4.086261024382122
5.0E-4                    -0.0255                  4.129848993829188
5.0E-4                    -0.0245                  4.174002563750008
5.0E-4                    -0.0235                  4.218598027199665
5.0E-4                    -0.0225                  4.263528119648308
5.0E-4                    -0.0215                  4.3086740048434695
5.0E-4                    -0.0205                  4.353932599330877
5.0E-4                    -0.0195                  4.399235903297555
5.0E-4                    -0.0185                  4.444540674335055
5.0E-4                    -0.0175                  4.489803117208043
5.0E-4                    -0.0165                  4.534963570788417
5.0E-4                    -0.0155                  4.579663825278217
5.0E-4                    -0.0145                  4.6223058207506496
5.0E-4                    -0.0135                  4.659518734212494
5.0E-4                    -0.0125                  4.687494494700068
5.0E-4                    -0.0115                  4.703763153297538
5.0E-4                    -0.0105                  4.7100656439510304
5.0E-4                    -0.0095                  4.710804702842767
5.0E-4                    -0.0085                  4.708469477550566
5.0E-4                    -0.0075                  4.704113940765849
5.0E-4                    -0.0065                  4.698498671105373
5.0E-4                    -0.0055                  4.6918856336371135
5.0E-4                    -0.0045                  4.684043379537878
5.0E-4                    -0.0035                  4.6749094268663
5.0E-4                    -0.0025                  4.664320190867833
5.0E-4                    -0.0015                  4.651622277318108
5.0E-4                    -5.0E-4                  4.665762851194784
5.0E-4                    5.0E-4                   4.75362640743859
5.0E-4                    0.0015                   4.87618662879834
5.0E-4                    0.0025                   4.962810924789926
5.0E-4                    0.0035                   5.009532649677666
5.0E-4                    0.0045                   5.031844629115824
5.0E-4                    0.0055                   5.039080127754753
5.0E-4                    0.0065                   5.037247288200111
5.0E-4                    0.0075                   5.029921542238778
5.0E-4                    0.0085                   5.019526695160064
5.0E-4                    0.0095                   5.007574909900154
5.0E-4                    0.0105                   4.994838754847629
5.0E-4                    0.0115                   4.981440407042908
5.0E-4                    0.0125                   4.966882594218028
5.0E-4                    0.0135                   4.950078623575859
5.0E-4                    0.0145                   4.927234612510437
5.0E-4                    0.0155                   4.895940737032347
5.0E-4                    0.0165                   4.86557186111984
5.0E-4                    0.0175                   4.846871180152923
5.0E-4                    0.0185                   4.830731628470643
5.0E-4                    0.0195                   4.805066304223558
5.0E-4                    0.0205                   4.772075090181994
5.0E-4                    0.0215                   4.735685350219038
5.0E-4                    0.0225                   4.697887286105048
5.0E-4                    0.0235                   4.660707527955181
5.0E-4                    0.0245                   4.624932816260309
5.0E-4                    0.0255                   4.5903011185559555
5.0E-4                    0.0265                   4.556669898779962
5.0E-4                    0.0275                   4.524095297784624
5.0E-4                    0.0285                   4.492658106315895
5.0E-4                    0.0295                   4.4626333794245845
5.0E-4                    0.0305                   4.435040177051324
5.0E-4                    0.0315                   4.41470971934959
0.0015                    -0.0315                  3.8700274254829
0.0015                    -0.0305                  3.8977123355341066
0.0015                    -0.0295                  3.9379399802148605
0.0015                    -0.0285                  3.9818920208109985
0.0015                    -0.0275                  4.0270407191524376
0.0015                    -0.0265                  4.072710439554913
0.0015                    -0.0255                  4.118659429726353
0.0015                    -0.0245                  4.164787640443721
0.0015                    -0.0235                  4.211053239084159
0.0015                    -0.0225                  4.2574131787358285
0.0015                    -0.0215                  4.303802389683586
0.0015                    -0.0205                  4.350157654517189
0.0015                    -0.0195                  4.396476114754965
0.0015                    -0.0185                  4.442872897502077
0.0015                    -0.0175                  4.489590468696102
0.0015                    -0.0165                  4.536792119583169
0.0015                    -0.0155                  4.5838488687414225
0.0015                    -0.0145                  4.62834044294963
0.0015                    -0.0135                  4.666155523048252
0.0015                    -0.0125                  4.69295973515505
0.0015                    -0.0115                  4.70728085067555
0.0015                    -0.0105                  4.712420372328888
0.0015                    -0.0095                  4.712415406783188
0.0015                    -0.0085                  4.709298758159319
0.0015                    -0.0075                  4.704514268243521
0.0015                    -0.0065                  4.698860702051119
0.0015                    -0.0055                  4.692362227030937
0.0015                    -0.0045                  4.684827646846725
0.0015                    -0.0035                  4.676441573621895
0.0015                    -0.0025                  4.668768443925337
0.0015                    -0.0015                  4.667362553394103
0.0015                    -5.0E-4                  4.6856798618656645
0.0015                    5.0E-4                   4.773434120928953
0.0015                    0.0015                   4.893906936183969
0.0015                    0.0025                   4.971091697012247
0.0015                    0.0035                   5.013541732512704
0.0015                    0.0045                   5.0344763855339885
0.0015                    0.0055                   5.042171161155286
0.0015                    0.0065                   5.040312256054667
0.0015                    0.0075                   5.031453418767095
0.0015                    0.0085                   5.017919929957779
0.0015                    0.0095                   5.001569055525838
0.0015                    0.0105                   4.983692091996172
0.0015                    0.0115                   4.965203469504631
0.0015                    0.0125                   4.94656959284576
0.0015                    0.0135                   4.927065266524092
0.0015                    0.0145                   4.903893784330239
0.0015                    0.0155                   4.8758831569894525
0.0015                    0.0165                   4.85643717999063
0.0015                    0.0175                   4.843740809955047
0.0015                    0.0185                   4.823624515928975
0.0015                    0.0195                   4.795467629169447
0.0015                    0.0205                   4.7613313131280846
0.0015                    0.0215                   4.7245160944801405
0.0015                    0.0225                   4.68655842791504
0.0015                    0.0235                   4.649100680363217
0.0015                    0.0245                   4.61270830020864
0.0015                    0.0255                   4.577383031303258
0.0015                    0.0265                   4.542946984351188
0.0015                    0.0275                   4.509213740320483
0.0015                    0.0285                   4.476122328535304
0.0015                    0.0295                   4.443968856624848
0.0015                    0.0305                   4.414490124829657
0.0015                    0.0315                   4.394149306275124
0.0025                    -0.0315                  3.8321332685847933
0.0025                    -0.0305                  3.858091087991044
0.0025                    -0.0295                  3.8996147037779307
0.0025                    -0.0285                  3.9476073741677293
0.0025                    -0.0275                  3.9975601576271593
0.0025                    -0.0265                  4.047800413188489
0.0025                    -0.0255                  4.09779814873318
0.0025                    -0.0245                  4.147421766660842
0.0025                    -0.0235                  4.1966822762150064
0.0025                    -0.0225                  4.245619395645093
0.0025                    -0.0215                  4.294245560503564
0.0025                    -0.0205                  4.342552444900157
0.0025                    -0.0195                  4.3905845525092255
0.0025                    -0.0185                  4.4385465566566245
0.0025                    -0.0175                  4.486806314720874
0.0025                    -0.0165                  4.535555135980171
0.0025                    -0.0155                  4.583929875610073
0.0025                    -0.0145                  4.629022621669586
0.0025                    -0.0135                  4.666943673149014
0.0025                    -0.0125                  4.693461560290741
0.0025                    -0.0115                  4.708270368621389
0.0025                    -0.0105                  4.71508175842887
0.0025                    -0.0095                  4.715772111955869
0.0025                    -0.0085                  4.711922877646702
0.0025                    -0.0075                  4.706070408021985
0.0025                    -0.0065                  4.6997760576057255
0.0025                    -0.0055                  4.6936772280152645
0.0025                    -0.0045                  4.688779200062038
0.0025                    -0.0035                  4.686807176446822
0.0025                    -0.0025                  4.69187973662917
0.0025                    -0.0015                  4.713185107480477
0.0025                    -5.0E-4                  4.766226434809834
0.0025                    5.0E-4                   4.84754641201679
0.0025                    0.0015                   4.924940054369543
0.0025                    0.0025                   4.978279416782814
0.0025                    0.0035                   5.010632727736853
0.0025                    0.0045                   5.02924254669182
0.0025                    0.0055                   5.038018952521103
0.0025                    0.0065                   5.037645026306201
0.0025                    0.0075                   5.028932046337565
0.0025                    0.0085                   5.013560567103477
0.0025                    0.0095                   4.993432192359001
0.0025                    0.0105                   4.970203127166666
0.0025                    0.0115                   4.945668156648558
0.0025                    0.0125                   4.921742949563133
0.0025                    0.0135                   4.8992537134414444
0.0025                    0.0145                   4.877872867789888
0.0025                    0.0155                   4.858005227540849
0.0025                    0.0165                   4.842164854206965
0.0025                    0.0175                   4.825446540143084
0.0025                    0.0185                   4.800778986258326
0.0025                    0.0195                   4.770129495564422
0.0025                    0.0205                   4.736144977047621
0.0025                    0.0215                   4.700142322325946
0.0025                    0.0225                   4.66320707013837
0.0025                    0.0235                   4.625994326353633
0.0025                    0.0245                   4.589291404087424
0.0025                    0.0255                   4.5533093605117365
0.0025                    0.0265                   4.517839023668534
0.0025                    0.0275                   4.482612115656795
0.0025                    0.0285                   4.4476414219968445
0.0025                    0.0295                   4.413858118053735
0.0025                    0.0305                   4.384412985898319
0.0025                    0.0315                   4.365945299776714
0.0035                    -0.0315                  3.790050264584463
0.0035                    -0.0305                  3.8141478459008624
0.0035                    -0.0295                  3.8550966635575468
0.0035                    -0.0285                  3.905393761204865
0.0035                    -0.0275                  3.9596723094165007
0.0035                    -0.0265                  4.0149340249136465
0.0035                    -0.0255                  4.069828087851177
0.0035                    -0.0245                  4.12386031858699
0.0035                    -0.0235                  4.176939250852299
0.0035                    -0.0225                  4.229140294548609
0.0035                    -0.0215                  4.28056129379523
0.0035                    -0.0205                  4.331251603871924
0.0035                    -0.0195                  4.381224495269019
0.0035                    -0.0185                  4.430518763786009
0.0035                    -0.0175                  4.479217701976852
0.0035                    -0.0165                  4.52725030873839
0.0035                    -0.0155                  4.573884115624981
0.0035                    -0.0145                  4.617181112004607
0.0035                    -0.0135                  4.654917128758829
0.0035                    -0.0125                  4.683918905555325
0.0035                    -0.0115                  4.703533180023528
0.0035                    -0.0105                  4.7149784480137615
0.0035                    -0.0095                  4.717106363030324
0.0035                    -0.0085                  4.711096485355636
0.0035                    -0.0075                  4.7016312482717915
0.0035                    -0.0065                  4.693397649397731
0.0035                    -0.0055                  4.689992860436247
0.0035                    -0.0045                  4.694437288643995
0.0035                    -0.0035                  4.709545662095835
0.0035                    -0.0025                  4.738659090743118
0.0035                    -0.0015                  4.784027132662864
0.0035                    -5.0E-4                  4.841823653867034
0.0035                    5.0E-4                   4.899880488863733
0.0035                    0.0015                   4.945233293823822
0.0035                    0.0025                   4.976226820471809
0.0035                    0.0035                   4.998518635166253
0.0035                    0.0045                   5.01507042592384
0.0035                    0.0055                   5.025746817219924
0.0035                    0.0065                   5.028481141997089
0.0035                    0.0075                   5.021423280348428
0.0035                    0.0085                   5.004979338224031
0.0035                    0.0095                   4.981252946645334
0.0035                    0.0105                   4.952672777827316
0.0035                    0.0115                   4.922455435019144
0.0035                    0.0125                   4.893480239471761
0.0035                    0.0135                   4.867024933423755
0.0035                    0.0145                   4.844008361892288
0.0035                    0.0155                   4.824511376679075
0.0035                    0.0165                   4.807663095385478
0.0035                    0.0175                   4.7886012508130955
0.0035                    0.0185                   4.762140198528002
0.0035                    0.0195                   4.730903720669324
0.0035                    0.0205                   4.69767619183983
0.0035                    0.0215                   4.663328766725176
0.0035                    0.0225                   4.6284818443274425
0.0035                    0.0235                   4.59279889338
0.0035                    0.0245                   4.556922907531152
0.0035                    0.0255                   4.52105418219449
0.0035                    0.0265                   4.485063958424707
0.0035                    0.0275                   4.448856686744322
0.0035                    0.0285                   4.412954067541159
0.0035                    0.0295                   4.379214587119505
0.0035                    0.0305                   4.351421213188663
0.0035                    0.0315                   4.335043527846604
0.0045                    -0.0315                  3.74535308777436
0.0045                    -0.0305                  3.7681653704784064
0.0045                    -0.0295                  3.808289081117746
0.0045                    -0.0285                  3.859675071796228
0.0045                    -0.0275                  3.917213324211656
0.0045                    -0.0265                  3.977139502034814
0.0045                    -0.0255                  4.03713484082276
0.0045                    -0.0245                  4.096010059330788
0.0045                    -0.0235                  4.153312856059065
0.0045                    -0.0225                  4.209024385338495
0.0045                    -0.0215                  4.263310957188312
0.0045                    -0.0205                  4.316305930818895
0.0045                    -0.0195                  4.367953535138808
0.0045                    -0.0185                  4.417942919202559
0.0045                    -0.0175                  4.465744312406516
0.0045                    -0.0165                  4.510816328947047
0.0045                    -0.0155                  4.552823385838302
0.0045                    -0.0145                  4.591931900779686
0.0045                    -0.0135                  4.628404175299556
0.0045                    -0.0125                  4.66128649830082
0.0045                    -0.0115                  4.687914542198918
0.0045                    -0.0105                  4.703117271344323
0.0045                    -0.0095                  4.702521327930693
0.0045                    -0.0085                  4.689756779338478
0.0045                    -0.0075                  4.674583204086209
0.0045                    -0.0065                  4.666067067302498
0.0045                    -0.0055                  4.670883090493215
0.0045                    -0.0045                  4.69281510486031
0.0045                    -0.0035                  4.732258242959651
0.0045                    -0.0025                  4.785616573136157
0.0045                    -0.0015                  4.843782584877907
0.0045                    -5.0E-4                  4.894338706079576
0.0045                    5.0E-4                   4.928987563184878
0.0045                    0.0015                   4.949427600057396
0.0045                    0.0025                   4.9643339338364365
0.0045                    0.0035                   4.97932054869675
0.0045                    0.0045                   4.993983289907589
0.0045                    0.0055                   5.005459179224378
0.0045                    0.0065                   5.009455109036496
0.0045                    0.0075                   5.00260993447813
0.0045                    0.0085                   4.984959806867019
0.0045                    0.0095                   4.958797413391279
0.0045                    0.0105                   4.927036898060415
0.0045                    0.0115                   4.893544758814488
0.0045                    0.0125                   4.861327372484142
0.0045                    0.0135                   4.831131824276734
0.0045                    0.0145                   4.803872511754604
0.0045                    0.0155                   4.780845385110826
0.0045                    0.0165                   4.760693696355827
0.0045                    0.0175                   4.739227935413579
0.0045                    0.0185                   4.713032403939122
0.0045                    0.0195                   4.682411852539566
0.0045                    0.0205                   4.649892627080207
0.0045                    0.0215                   4.617165151984501
0.0045                    0.0225                   4.584704965616758
0.0045                    0.0235                   4.551919554962464
0.0045                    0.0245                   4.518247716135656
0.0045                    0.0255                   4.483664746647994
0.0045                    0.0265                   4.448073950545263
0.0045                    0.0275                   4.411801309028675
0.0045                    0.0285                   4.376101858656056
0.0045                    0.0295                   4.343446896466105
0.0045                    0.0305                   4.317513913062707
0.0045                    0.0315                   4.3027744726825325
0.0055                    -0.0315                  3.698684598707082
0.0055                    -0.0305                  3.7206956985155046
0.0055                    -0.0295                  3.7602779822978656
0.0055                    -0.0285                  3.812407576299725
0.0055                    -0.0275                  3.872484016787995
0.0055                    -0.0265                  3.9365411935151635
0.0055                    -0.0255                  4.001524766985948
0.0055                    -0.0245                  4.0654065102980645
0.0055                    -0.0235                  4.12709493273514
0.0055                    -0.0225                  4.186249894886709
0.0055                    -0.0215                  4.243025398260741
0.0055                    -0.0205                  4.297709331421463
0.0055                    -0.0195                  4.350308066916528
0.0055                    -0.0185                  4.400226886922659
0.0055                    -0.0175                  4.446317571018019
0.0055                    -0.0165                  4.487460595368211
0.0055                    -0.0155                  4.523860866604494
0.0055                    -0.0145                  4.5575776691700405
0.0055                    -0.0135                  4.591255682425827
0.0055                    -0.0125                  4.625570001848583
0.0055                    -0.0115                  4.654684922771676
0.0055                    -0.0105                  4.66726663894527
0.0055                    -0.0095                  4.658972334767963
0.0055                    -0.0085                  4.638479225558541
0.0055                    -0.0075                  4.620306314068895
0.0055                    -0.0065                  4.617393576244736
0.0055                    -0.0055                  4.63666774511347
0.0055                    -0.0045                  4.67873164214006
0.0055                    -0.0035                  4.73902095311527
0.0055                    -0.0025                  4.807476465933399
0.0055                    -0.0015                  4.870020771356565
0.0055                    -5.0E-4                  4.913433160149224
0.0055                    5.0E-4                   4.9335157027040495
0.0055                    0.0015                   4.939228830798787
0.0055                    0.0025                   4.943618027424599
0.0055                    0.0035                   4.952039850721491
0.0055                    0.0045                   4.9621322953946425
0.0055                    0.0055                   4.968965293125408
0.0055                    0.0065                   4.968498848141514
0.0055                    0.0075                   4.959423213873352
0.0055                    0.0085                   4.942208040604964
0.0055                    0.0095                   4.917957790795709
0.0055                    0.0105                   4.888466604824328
0.0055                    0.0115                   4.856172683548034
0.0055                    0.0125                   4.823186535727752
0.0055                    0.0135                   4.790510196540309
0.0055                    0.0145                   4.759198386171933
0.0055                    0.0155                   4.731358214408695
0.0055                    0.0165                   4.7073836312123305
0.0055                    0.0175                   4.6839791153288814
0.0055                    0.0185                   4.658006011061106
0.0055                    0.0195                   4.628530978632372
0.0055                    0.0205                   4.597285638876068
0.0055                    0.0215                   4.566013162563599
0.0055                    0.0225                   4.53579691169874
0.0055                    0.0235                   4.506532119131681
0.0055                    0.0245                   4.476231115630493
0.0055                    0.0255                   4.443962088649824
0.0055                    0.0265                   4.409585030128116
0.0055                    0.0275                   4.37400780038207
0.0055                    0.0285                   4.339133381119675
0.0055                    0.0295                   4.30772097239701
0.0055                    0.0305                   4.283249685696277
0.0055                    0.0315                   4.269608544397049
0.0065                    -0.0315                  3.6504026502870053
0.0065                    -0.0305                  3.6718791314323527
0.0065                    -0.0295                  3.7111630326924945
0.0065                    -0.0285                  3.76401802753126
0.0065                    -0.0275                  3.8263371244663924
0.0065                    -0.0265                  3.8941876799716546
0.0065                    -0.0255                  3.96403409961945
0.0065                    -0.0245                  4.033032998956602
0.0065                    -0.0235                  4.099241803596127
0.0065                    -0.0225                  4.161699522218109
0.0065                    -0.0215                  4.220350685737288
0.0065                    -0.0205                  4.275705992238819
0.0065                    -0.0195                  4.328174669986662
0.0065                    -0.0185                  4.377320989374095
0.0065                    -0.0175                  4.42156880320355
0.0065                    -0.0165                  4.459573804564515
0.0065                    -0.0155                  4.49171372019078
0.0065                    -0.0145                  4.520683305267631
0.0065                    -0.0135                  4.550477645159335
0.0065                    -0.0125                  4.581053853363602
0.0065                    -0.0115                  4.604208516922761
0.0065                    -0.0105                  4.608738578131933
0.0065                    -0.0095                  4.593527911698267
0.0065                    -0.0085                  4.572058771647273
0.0065                    -0.0075                  4.561166203141322
0.0065                    -0.0065                  4.570928084438682
0.0065                    -0.0055                  4.604183543654414
0.0065                    -0.0045                  4.6592554683294924
0.0065                    -0.0035                  4.729491822219478
0.0065                    -0.0025                  4.802513273399704
0.0065                    -0.0015                  4.8638015239388945
0.0065                    -5.0E-4                  4.9021447173323995
0.0065                    5.0E-4                   4.914909457944793
0.0065                    0.0015                   4.911152936713082
0.0065                    0.0025                   4.9049545658726625
0.0065                    0.0035                   4.902457770503106
0.0065                    0.0045                   4.900568792227828
0.0065                    0.0055                   4.8957187760667535
0.0065                    0.0065                   4.887925601188629
0.0065                    0.0075                   4.87832582340809
0.0065                    0.0085                   4.8665225367343385
0.0065                    0.0095                   4.851071472110005
0.0065                    0.0105                   4.830967613138764
0.0065                    0.0115                   4.805881554970264
0.0065                    0.0125                   4.776110721376915
0.0065                    0.0135                   4.743103945054209