% Model:              Benchmark260518.mph
% Version:            COMSOL 6.2.0.339
% Date:               May 19 2026, 07:18
% Dimension:          2
% Nodes:              4096
% Expressions:        1
% Description:        压力
% Length unit:        m
% x                       y                        p (Pa)
% mirrored_by_python_y_to_minus_y, coord_match_decimals=12
0.0005 -0.0315 3.95927530215
0.0005 -0.0305 3.98966132372
0.0005 -0.0295 4.03117760445
0.0005 -0.0285 4.07628245251
0.0005 -0.0275 4.12355440502
0.0005 -0.0265 4.1725212201
0.0005 -0.0255 4.22287321519
0.0005 -0.0245 4.27441946876
0.0005 -0.0235 4.32703618501
0.0005 -0.0225 4.3806350758
0.0005 -0.0215 4.43510725444
0.0005 -0.0205 4.4903953555
0.0005 -0.0195 4.54647718033
0.0005 -0.0185 4.60326137426
0.0005 -0.0175 4.66064127168
0.0005 -0.0165 4.71846488118
0.0005 -0.0155 4.77650764396
0.0005 -0.0145 4.83466658664
0.0005 -0.0135 4.89174623446
0.0005 -0.0125 4.94288462949
0.0005 -0.0115 4.97524550758
0.0005 -0.0105 4.98158576428
0.0005 -0.0095 4.97050085049
0.0005 -0.0085 4.95183815274
0.0005 -0.0075 4.92781008938
0.0005 -0.0065 4.89482633151
0.0005 -0.0055 4.84900330324
0.0005 -0.0045 4.80260092009
0.0005 -0.0035 4.77676475135
0.0005 -0.0025 4.77319110306
0.0005 -0.0015 4.77677456908
0.0005 -0.0005 4.77806682159
0.0005 0.0005 4.77568585525
0.0005 0.0015 4.76694090185
0.0005 0.0025 4.75048239321
0.0005 0.0035 4.72751465219
0.0005 0.0045 4.70018452723
0.0005 0.0055 4.67051928524
0.0005 0.0065 4.63956705167
0.0005 0.0075 4.60758391346
0.0005 0.0085 4.57474720402
0.0005 0.0095 4.54124637249
0.0005 0.0105 4.50725138812
0.0005 0.0115 4.47288527313
0.0005 0.0125 4.43827909813
0.0005 0.0135 4.40358160282
0.0005 0.0145 4.36890320742
0.0005 0.0155 4.33435244961
0.0005 0.0165 4.30002804372
0.0005 0.0175 4.26601148619
0.0005 0.0185 4.23237547468
0.0005 0.0195 4.19917289209
0.0005 0.0205 4.16643117367
0.0005 0.0215 4.13416346223
0.0005 0.0225 4.10238186477
0.0005 0.0235 4.07109344418
0.0005 0.0245 4.04031676697
0.0005 0.0255 4.01009732491
0.0005 0.0265 3.98050184392
0.0005 0.0275 3.95163741174
0.0005 0.0285 3.92371113764
0.0005 0.0295 3.89702385331
0.0005 0.0305 3.87243895645
0.0005 0.0315 3.85442739177
0.0015 -0.0315 3.92880857128
0.0015 -0.0305 3.95908753292
0.0015 -0.0295 4.00353294596
0.0015 -0.0285 4.05197389888
0.0015 -0.0275 4.10182308735
0.0015 -0.0265 4.15265004003
0.0015 -0.0255 4.20439881811
0.0015 -0.0245 4.25705960657
0.0015 -0.0235 4.3106228132
0.0015 -0.0225 4.3650603698
0.0015 -0.0215 4.42032952119
0.0015 -0.0205 4.47638917915
0.0015 -0.0195 4.53323058841
0.0015 -0.0185 4.59085839408
0.0015 -0.0175 4.64923871806
0.0015 -0.0165 4.70820641119
0.0015 -0.0155 4.7672537736
0.0015 -0.0145 4.82490640633
0.0015 -0.0135 4.87678151533
0.0015 -0.0125 4.91306353333
0.0015 -0.0115 4.9267123493
0.0015 -0.0105 4.92333217942
0.0015 -0.0095 4.91247037117
0.0015 -0.0085 4.89920371284
0.0015 -0.0075 4.88416639795
0.0015 -0.0065 4.86206543255
0.0015 -0.0055 4.82763892417
0.0015 -0.0045 4.78812943313
0.0015 -0.0035 4.77174899112
0.0015 -0.0025 4.77571290846
0.0015 -0.0015 4.77878144995
0.0015 -0.0005 4.78111071066
0.0015 0.0005 4.78071658067
0.0015 0.0015 4.77487817157
0.0015 0.0025 4.76090813555
0.0015 0.0035 4.73906384982
0.0015 0.0045 4.71138183904
0.0015 0.0055 4.68018571162
0.0015 0.0065 4.64715143686
0.0015 0.0075 4.61303571038
0.0015 0.0085 4.57814559634
0.0015 0.0095 4.54269348376
0.0015 0.0105 4.50685850789
0.0015 0.0115 4.4708015594
0.0015 0.0125 4.4346755606
0.0015 0.0135 4.39862871
0.0015 0.0145 4.36279951189
0.0015 0.0155 4.32730929557
0.0015 0.0165 4.29225891745
0.0015 0.0175 4.25772212017
0.0015 0.0185 4.22373870409
0.0015 0.0195 4.19031321401
0.0015 0.0205 4.15742043629
0.0015 0.0215 4.12501943493
0.0015 0.0225 4.09306409814
0.0015 0.0235 4.0615129109
0.0015 0.0245 4.03033851489
0.0015 0.0255 3.99952882698
0.0015 0.0265 3.96908829514
0.0015 0.0275 3.9390514337
0.0015 0.0285 3.90950132979
0.0015 0.0295 3.8807468382
0.0015 0.0305 3.85437076304
0.0015 0.0315 3.83636587299
0.0025 -0.0315 3.88721075522
0.0025 -0.0305 3.9141381887
0.0025 -0.0295 3.95820400398
0.0025 -0.0285 4.00909023019
0.0025 -0.0275 4.06191993115
0.0025 -0.0265 4.11535499447
0.0025 -0.0255 4.16925369706
0.0025 -0.0245 4.22374267708
0.0025 -0.0235 4.27894636089
0.0025 -0.0225 4.33492445261
0.0025 -0.0215 4.39167550351
0.0025 -0.0205 4.4491674496
0.0025 -0.0195 4.50738171482
0.0025 -0.0185 4.56634816347
0.0025 -0.0175 4.62607829169
0.0025 -0.0165 4.68631817084
0.0025 -0.0155 4.7459611624
0.0025 -0.0145 4.80179304929
0.0025 -0.0135 4.84715003358
0.0025 -0.0125 4.87505286283
0.0025 -0.0115 4.88458929888
0.0025 -0.0105 4.88166900084
0.0025 -0.0095 4.87315157408
0.0025 -0.0085 4.86316070538
0.0025 -0.0075 4.85272315931
0.0025 -0.0065 4.83898177323
0.0025 -0.0055 4.81956081843
0.0025 -0.0045 4.79583978857
0.0025 -0.0035 4.78186175693
0.0025 -0.0025 4.78156666758
0.0025 -0.0015 4.78421961489
0.0025 -0.0005 4.78679156173
0.0025 0.0005 4.78774205461
0.0025 0.0015 4.78471418808
0.0025 0.0025 4.77422727842
0.0025 0.0035 4.7547980319
0.0025 0.0045 4.72757146372
0.0025 0.0055 4.69491311842
0.0025 0.0065 4.65907468792
0.0025 0.0075 4.62152500381
0.0025 0.0085 4.58303967967
0.0025 0.0095 4.54403900741
0.0025 0.0105 4.50481766247
0.0025 0.0115 4.46561972141
0.0025 0.0125 4.42665866663
0.0025 0.0135 4.38812882096
0.0025 0.0145 4.35020949449
0.0025 0.0155 4.31305021088
0.0025 0.0165 4.27675108285
0.0025 0.0175 4.24134789119
0.0025 0.0185 4.20680802748
0.0025 0.0195 4.17304143985
0.0025 0.0205 4.13992185865
0.0025 0.0215 4.10730822924
0.0025 0.0225 4.07506347965
0.0025 0.0235 4.04306762942
0.0025 0.0245 4.01122152591
0.0025 0.0255 3.97944804384
0.0025 0.0265 3.94769928572
0.0025 0.0275 3.9159825159
0.0025 0.0285 3.88449378653
0.0025 0.0295 3.85413645674
0.0025 0.0305 3.82783777826
0.0025 0.0315 3.81170169324
0.0035 -0.0315 3.84218857798
0.0035 -0.0305 3.86521317599
0.0035 -0.0295 3.90582808048
0.0035 -0.0285 3.95604289911
0.0035 -0.0275 4.01014799213
0.0035 -0.0265 4.06552637653
0.0035 -0.0255 4.12142925184
0.0035 -0.0245 4.17785973927
0.0035 -0.0235 4.23498454327
0.0035 -0.0225 4.29290555461
0.0035 -0.0215 4.35160863095
0.0035 -0.0205 4.41099516222
0.0035 -0.0195 4.47093831212
0.0035 -0.0185 4.53133065419
0.0035 -0.0175 4.59203783928
0.0035 -0.0165 4.65258786769
0.0035 -0.0155 4.71143034692
0.0035 -0.0145 4.76496227002
0.0035 -0.0135 4.80787983545
0.0035 -0.0125 4.83594358473
0.0035 -0.0115 4.84848316568
0.0035 -0.0105 4.84909697709
0.0035 -0.0095 4.84337460687
0.0035 -0.0085 4.83576721017
0.0035 -0.0075 4.82864281395
0.0035 -0.0065 4.82176241259
0.0035 -0.0055 4.81359860497
0.0035 -0.0045 4.80115566244
0.0035 -0.0035 4.79143752711
0.0035 -0.0025 4.79053600639
0.0035 -0.0015 4.79254154733
0.0035 -0.0005 4.79449582015
0.0035 0.0005 4.79556231402
0.0035 0.0015 4.79379051808
0.0035 0.0025 4.78582549665
0.0035 0.0035 4.76896059336
0.0035 0.0045 4.74290783326
0.0035 0.0055 4.70940796921
0.0035 0.0065 4.67095980823
0.0035 0.0075 4.62961820695
0.0035 0.0085 4.58675092658
0.0035 0.0095 4.54321399191
0.0035 0.0105 4.49957026715
0.0035 0.0115 4.456231602
0.0035 0.0125 4.41353458558
0.0035 0.0135 4.37177516856
0.0035 0.0145 4.33120609848
0.0035 0.0155 4.2920077774
0.0035 0.0165 4.25425439271
0.0035 0.0175 4.217899749
0.0035 0.0185 4.18279092106
0.0035 0.0195 4.14870140688
0.0035 0.0205 4.11537027959
0.0035 0.0215 4.08253662334
0.0035 0.0225 4.04996405341
0.0035 0.0235 4.01745363189
0.0035 0.0245 3.9848500148
0.0035 0.0255 3.95205098954
0.0035 0.0265 3.91903744959
0.0035 0.0275 3.88597540012
0.0035 0.0285 3.85350739984
0.0035 0.0295 3.82333740903
0.0035 0.0305 3.79889753595
0.0035 0.0315 3.78497576933
0.0045 -0.0315 3.79524461795
0.0045 -0.0305 3.81506246162
0.0045 -0.0295 3.85155263617
0.0045 -0.0285 3.89895280723
0.0045 -0.0275 3.95215467115
0.0045 -0.0265 4.00797966688
0.0045 -0.0255 4.06502157855
0.0045 -0.0245 4.12296626018
0.0045 -0.0235 4.18188351959
0.0045 -0.0225 4.24182254815
0.0045 -0.0215 4.3026742425
0.0045 -0.0205 4.36417870987
0.0045 -0.0195 4.42597555621
0.0045 -0.0185 4.48763417328
0.0045 -0.0175 4.54864498635
0.0045 -0.0165 4.60827039408
0.0045 -0.0155 4.6651889203
0.0045 -0.0145 4.71721478098
0.0045 -0.0135 4.76140481208
0.0045 -0.0125 4.79445464998
0.0045 -0.0115 4.81401820406
0.0045 -0.0105 4.82069925288
0.0045 -0.0095 4.81881682339
0.0045 -0.0085 4.81373378985
0.0045 -0.0075 4.80945276413
0.0045 -0.0065 4.80817716947
0.0045 -0.0055 4.80942472004
0.0045 -0.0045 4.8082805401
0.0045 -0.0035 4.80320528199
0.0045 -0.0025 4.80068091872
0.0045 -0.0015 4.80175181135
0.0045 -0.0005 4.80282432353
0.0045 0.0005 4.80301655978
0.0045 0.0015 4.80104517404
0.0045 0.0025 4.7939776263
0.0045 0.0035 4.77866462523
0.0045 0.0045 4.75369744594
0.0045 0.0055 4.71978822371
0.0045 0.0065 4.67915295895
0.0045 0.0075 4.63414919352
0.0045 0.0085 4.58670649757
0.0045 0.0095 4.53820950063
0.0045 0.0105 4.48960462442
0.0045 0.0115 4.44157423776
0.0045 0.0125 4.39466884085
0.0045 0.0135 4.34935580683
0.0045 0.0145 4.30599105896
0.0045 0.0155 4.26476503592
0.0045 0.0165 4.2256727987
0.0045 0.0175 4.18852712074
0.0045 0.0185 4.15300691458
0.0045 0.0195 4.11872014403
0.0045 0.0205 4.08526179608
0.0045 0.0215 4.05225682678
0.0045 0.0225 4.01938608822
0.0045 0.0235 3.98640044454
0.0045 0.0245 3.95313342605
0.0045 0.0255 3.91952849085
0.0045 0.0265 3.88571215409
0.0045 0.0275 3.85216408564
0.0045 0.0285 3.82000881401
0.0045 0.0295 3.79131289447
0.0045 0.0305 3.76916871445
0.0045 0.0315 3.75706835226
0.0055 -0.0315 3.74687814509
0.0055 -0.0305 3.76420677817
0.0055 -0.0295 3.79691655579
0.0055 -0.0285 3.84079479309
0.0055 -0.0275 3.89167015547
0.0055 -0.0265 3.94647563341
0.0055 -0.0255 4.00350240246
0.0055 -0.0245 4.06217623971
0.0055 -0.0235 4.12241068213
0.0055 -0.0225 4.18412021831
0.0055 -0.0215 4.24701522885
0.0055 -0.0205 4.31059177979
0.0055 -0.0195 4.37417303963
0.0055 -0.0185 4.43690327708
0.0055 -0.0175 4.4977993597
0.0055 -0.0165 4.55592590451
0.0055 -0.0155 4.61060756079
0.0055 -0.0145 4.66142352189
0.0055 -0.0135 4.70757402125
0.0055 -0.0125 4.74683118987
0.0055 -0.0115 4.77565026859
0.0055 -0.0105 4.79149656166
0.0055 -0.0095 4.79619844769
0.0055 -0.0085 4.79517601984
0.0055 -0.0075 4.79422872747
0.0055 -0.0065 4.79839401679
0.0055 -0.0055 4.80845434495
0.0055 -0.0045 4.81781952689
0.0055 -0.0035 4.81759439343
0.0055 -0.0025 4.81230339229
0.0055 -0.0015 4.81046951516
0.0055 -0.0005 4.81022938055
0.0055 0.0005 4.80897127756
0.0055 0.0015 4.80558833086
0.0055 0.0025 4.79774837203
0.0055 0.0035 4.78243044772
0.0055 0.0045 4.75774463665
0.0055 0.0055 4.72340429226
0.0055 0.0065 4.68084032897
0.0055 0.0075 4.63244916191
0.0055 0.0085 4.580585719
0.0055 0.0095 4.52711319728
0.0055 0.0105 4.47340572028
0.0055 0.0115 4.42052541589
0.0055 0.0125 4.36936034086
0.0055 0.0135 4.32061848311
0.0055 0.0145 4.27474785461
0.0055 0.0155 4.23188269567
0.0055 0.0165 4.19185738688
0.0055 0.0175 4.15427893941
0.0055 0.0185 4.11862446816
0.0055 0.0195 4.08433244347
0.0055 0.0205 4.05087119953
0.0055 0.0215 4.01778170184
0.0055 0.0225 3.98470083123
0.0055 0.0235 3.95137654744
0.0055 0.0245 3.91768980522
0.0055 0.0255 3.88370351933
0.0055 0.0265 3.84976258692
0.0055 0.0275 3.81664870957
0.0055 0.0285 3.78572826602
0.0055 0.0295 3.75898861229
0.0055 0.0305 3.73896892148
0.0055 0.0315 3.72827567502
0.0065 -0.0315 3.69746240462
0.0065 -0.0305 3.7127636092
0.0065 -0.0295 3.74217532947
0.0065 -0.0285 3.782542507
0.0065 -0.0275 3.8305277718
0.0065 -0.0265 3.88342036035
0.0065 -0.0255 3.93949386993
0.0065 -0.0245 3.9980628655
0.0065 -0.0235 4.05893925495
0.0065 -0.0225 4.12191163198
0.0065 -0.0215 4.18647538004
0.0065 -0.0205 4.25183027391
0.0065 -0.0195 4.31698025509
0.0065 -0.0185 4.38068905102
0.0065 -0.0175 4.44157484443
0.0065 -0.0165 4.49852858864
0.0065 -0.0155 4.55119626176
0.0065 -0.0145 4.60016888624
0.0065 -0.0135 4.64642936624
0.0065 -0.0125 4.68991612366
0.0065 -0.0115 4.72806452985
0.0065 -0.0105 4.75641106024
0.0065 -0.0095 4.77226963533
0.0065 -0.0085 4.77856430508
0.0065 -0.0075 4.78275013124
0.0065 -0.0065 4.79351728873
0.0065 -0.0055 4.81358491289
0.0065 -0.0045 4.83310322721
0.0065 -0.0035 4.83740859563
0.0065 -0.0025 4.82794050887
0.0065 -0.0015 4.81931611578
0.0065 -0.0005 4.81574677606
0.0065 0.0005 4.81241145997
0.0065 0.0015 4.80643342405
0.0065 0.0025 4.79624641253
0.0065 0.0035 4.77937560448
0.0065 0.0045 4.75374364862
0.0065 0.0055 4.71837089863
0.0065 0.0065 4.67384871949
0.0065 0.0075 4.62234914501
0.0065 0.0085 4.56636810799
0.0065 0.0095 4.50812211676
0.0065 0.0105 4.44944319874
0.0065 0.0115 4.39193218228
0.0065 0.0125 4.33693696918
0.0065 0.0135 4.28540423231
0.0065 0.0145 4.23777875172
0.0065 0.0155 4.19401605758
0.0065 0.0165 4.15369454619
0.0065 0.0175 4.11616954513
0.0065 0.0185 4.08071563487
0.0065 0.0195 4.04663130165
0.0065 0.0205 4.01330295562
0.0065 0.0215 3.98023794294
0.0065 0.0225 3.94708104787
0.0065 0.0235 3.91362986745
0.0065 0.0245 3.87986453667
0.0065 0.0255 3.8460050197
0.0065 0.0265 3.81259522168
0.0065 0.0275 3.78058114313
0.0065 0.0285 3.75132903006
0.0065 0.0295 3.72657533025
0.0065 0.0305 3.70839185204
0.0065 0.0315 3.69882423146
0.0075 -0.0315 3.64726735126
0.0075 -0.0305 3.66080334425
0.0075 -0.0295 3.68724581016
0.0075 -0.0285 3.72424681553
0.0075 -0.0275 3.769162551
0.0075 -0.0265 3.81970886269
0.0075 -0.0255 3.87428756064
0.0075 -0.0245 3.93216891595
0.0075 -0.0235 3.99309047139
0.0075 -0.0225 4.05674672186
0.0075 -0.0215 4.12245665233
0.0075 -0.0205 4.18915614675
0.0075 -0.0195 4.25555976397
0.0075 -0.0185 4.32014758425
0.0075 -0.0175 4.38129709646
0.0075 -0.0165 4.43771725675
0.0075 -0.0155 4.48889082845
0.0075 -0.0145 4.53548686144
0.0075 -0.0135 4.57945192396
0.0075 -0.0125 4.6232385634
0.0075 -0.0115 4.6676709612
0.0075 -0.0105 4.70937238541
0.0075 -0.0095 4.7414324064
0.0075 -0.0085 4.76068944635
0.0075 -0.0075 4.77417749386
0.0075 -0.0065 4.79515050484
0.0075 -0.0055 4.82799736607
0.0075 -0.0045 4.8575722596
0.0075 -0.0035 4.86483169366
0.0075 -0.0025 4.84984354202
0.0075 -0.0015 4.8306580631
0.0075 -0.0005 4.81951476269
0.0075 0.0005 4.81237408701
0.0075 0.0015 4.80277010154
0.0075 0.0025 4.78875026223
0.0075 0.0035 4.76881699332
0.0075 0.0045 4.74067091671
0.0075 0.0055 4.70321113975
0.0075 0.0065 4.65658357844
0.0075 0.0075 4.60216346406
0.0075 0.0085 4.54232612276
0.0075 0.0095 4.47950262679
0.0075 0.0105 4.41618989909
0.0075 0.0115 4.35473436225
0.0075 0.0125 4.2969377478
0.0075 0.0135 4.24382519904
0.0075 0.0145 4.19563435205
0.0075 0.0155 4.15198706221
0.0075 0.0165 4.11213570403
0.0075 0.0175 4.07518622036
0.0075 0.0185 4.04025674021
0.0075 0.0195 4.00657008947
0.0075 0.0205 3.97349708551
0.0075 0.0215 3.94057230566
0.0075 0.0225 3.90750131865
0.0075 0.0235 3.87417416563
0.0075 0.0245 3.84069461712
0.0075 0.0255 3.80742445455
0.0075 0.0265 3.77502503244
0.0075 0.0275 3.7444670676
0.0075 0.0285 3.71699741253
0.0075 0.0295 3.69409674051
0.0075 0.0305 3.67749194024
0.0075 0.0315 3.66884740314
0.0085 -0.0315 3.59648316672
0.0085 -0.0305 3.60839142572
0.0085 -0.0295 3.63202343499
0.0085 -0.0285 3.66570064139
0.0085 -0.0275 3.70737108311
0.0085 -0.0265 3.75522184166
0.0085 -0.0255 3.80790983157
0.0085 -0.0245 3.86471369703
0.0085 -0.0235 3.92528239427
0.0085 -0.0225 3.98918365513
0.0085 -0.0215 4.05557579786
0.0085 -0.0205 4.12321862154
0.0085 -0.0195 4.19058458082
0.0085 -0.0185 4.25593001892
0.0085 -0.0175 4.3175105383
0.0085 -0.0165 4.37386880646
0.0085 -0.0155 4.42414649693
0.0085 -0.0145 4.46858985711
0.0085 -0.0135 4.5092312284
0.0085 -0.0125 4.55003496063
0.0085 -0.0115 4.59538524239
0.0085 -0.0105 4.64621358065
0.0085 -0.0095 4.69594573035
0.0085 -0.0085 4.73454182195
0.0085 -0.0075 4.76477538059
0.0085 -0.0065 4.80245939319
0.0085 -0.0055 4.85089929698
0.0085 -0.0045 4.88948336664
0.0085 -0.0035 4.89683950126
0.0085 -0.0025 4.87542859089
0.0085 -0.0015 4.84501349413
0.0085 -0.0005 4.82234325273
0.0085 0.0005 4.80819712502
0.0085 0.0015 4.79389231677
0.0085 0.0025 4.77492143481
0.0085 0.0035 4.75028675194
0.0085 0.0045 4.71798604177
0.0085 0.0055 4.67712803542
0.0085 0.0065 4.62794579578
0.0085 0.0075 4.57061147981
0.0085 0.0085 4.506810139
0.0085 0.0095 4.43949492857
0.0085 0.0105 4.37226455241
0.0085 0.0115 4.30823223854
0.0085 0.0125 4.2493797864
0.0085 0.0135 4.19644833985
0.0085 0.0145 4.14919625697
0.0085 0.0155 4.10679378254
0.0085 0.0165 4.06817073975
0.0085 0.0175 4.03225416994
0.0085 0.0185 3.99809917646
0.0085 0.0195 3.96494282329
0.0085 0.0205 3.93221589377
0.0085 0.0215 3.8995389459
0.0085 0.0225 3.86671988406
0.0085 0.0235 3.83376239064
0.0085 0.0245 3.80088548359
0.0085 0.0255 3.7685439447
0.0085 0.0265 3.73743289652
0.0085 0.0275 3.70846686281
0.0085 0.0285 3.68274463825
0.0085 0.0295 3.66153180709
0.0085 0.0305 3.64629509942
0.0085 0.0315 3.63842231379
0.0095 -0.0315 3.54524986267
0.0095 -0.0305 3.55561311486
0.0095 -0.0295 3.57649524351
0.0095 -0.0285 3.60678546491
0.0095 -0.0275 3.64494678277
0.0095 -0.0265 3.68966902399
0.0095 -0.0255 3.73997817259
0.0095 -0.0245 3.79525690577
0.0095 -0.0235 3.85512787642
0.0095 -0.0225 3.91902287472
0.0095 -0.0215 3.98587955733
0.0095 -0.0205 4.05428860212
0.0095 -0.0195 4.12255863473
0.0095 -0.0185 4.18875469414
0.0095 -0.0175 4.25098259487
0.0095 -0.0165 4.30758525962
0.0095 -0.0155 4.35742208655
0.0095 -0.0145 4.4004209198
0.0095 -0.0135 4.43848705091
0.0095 -0.0125 4.47587349477
0.0095 -0.0115 4.51812094225
0.0095 -0.0105 4.57050064725
0.0095 -0.0095 4.63123312883
0.0095 -0.0085 4.68892693121
0.0095 -0.0075 4.74231823791
0.0095 -0.0065 4.80331804849
0.0095 -0.0055 4.86870769518
0.0095 -0.0045 4.91435784743
0.0095 -0.0035 4.92130774087
0.0095 -0.0025 4.89543139905
0.0095 -0.0015 4.85703110112
0.0095 -0.0005 4.822996288
0.0095 0.0005 4.79878639786
0.0095 0.0015 4.77820061286
0.0095 0.0025 4.75367033699
0.0095 0.0035 4.72267285213
0.0095 0.0045 4.68478426436
0.0095 0.0055 4.63983627852
0.0095 0.0065 4.58736921958
0.0095 0.0075 4.5263099501
0.0095 0.0085 4.45789043338
0.0095 0.0095 4.38644058518
0.0095 0.0105 4.31681146964
0.0095 0.0115 4.25249990117
0.0095 0.0125 4.19504190358
0.0095 0.0135 4.14440739951
0.0095 0.0145 4.09966980943
0.0095 0.0155 4.05954881585
0.0095 0.0165 4.02275748037
0.0095 0.0175 3.98817999194
0.0095 0.0185 3.95493214145
0.0095 0.0195 3.92236220607
0.0095 0.0205 3.89003028204
0.0095 0.0215 3.85768745955
0.0095 0.0225 3.825265782
0.0095 0.0235 3.79288029118
0.0095 0.0245 3.76083612847
0.0095 0.0255 3.72962950048
0.0095 0.0265 3.69993456208
0.0095 0.0275 3.67257860502
0.0095 0.0285 3.64851926857
0.0095 0.0295 3.62884441195
0.0095 0.0305 3.61481478972
0.0095 0.0315 3.60760756521
0.0105 -0.0315 3.49370411358
0.0105 -0.0305 3.50259498839
0.0105 -0.0295 3.52077733726
0.0105 -0.0285 3.54760742518
0.0105 -0.0275 3.58199559556
0.0105 -0.0265 3.62312871421
0.0105 -0.0255 3.67049079952
0.0105 -0.0245 3.723686942
0.0105 -0.0235 3.78243417031
0.0105 -0.0225 3.84610823411
0.0105 -0.0215 3.91342864009
0.0105 -0.0205 3.98275159266
0.0105 -0.0195 4.05219667234
0.0105 -0.0185 4.11962300724
0.0105 -0.0175 4.18287336703
0.0105 -0.0165 4.24001797529
0.0105 -0.0155 4.28972624118
0.0105 -0.0145 4.33196656336
0.0105 -0.0135 4.36905426383
0.0105 -0.0125 4.40500715233
0.0105 -0.0115 4.44466940774
0.0105 -0.0105 4.49329370517
0.0105 -0.0095 4.55222192639
0.0105 -0.0085 4.61711369754
0.0105 -0.0075 4.69082678953
0.0105 -0.0065 4.7769286106
0.0105 -0.0055 4.85919083313
0.0105 -0.0045 4.91191055678
0.0105 -0.0035 4.92245883657
0.0105 -0.0025 4.8985307866
0.0105 -0.0015 4.85769708757
0.0105 -0.0005 4.81543116979
0.0105 0.0005 4.78070945238
0.0105 0.0015 4.75232295127
0.0105 0.0025 4.72207163197
0.0105 0.0035 4.684854683
0.0105 0.0045 4.64116601439
0.0105 0.0055 4.59169638645
0.0105 0.0065 4.53399970887
0.0105 0.0075 4.4669817666
0.0105 0.0085 4.39355502405
0.0105 0.0095 4.31936046457
0.0105 0.0105 4.2501647736
0.0105 0.0115 4.18883816802
0.0105 0.0125 4.13561806957
0.0105 0.0135 4.08936431341
0.0105 0.0145 4.04846841934
0.0105 0.0155 4.01135909057
0.0105 0.0165 3.97673127495
0.0105 0.0175 3.94359605603
0.0105 0.0185 3.9112543083
0.0105 0.0195 3.87924843226
0.0105 0.0205 3.84731668593
0.0105 0.0215 3.8153632016
0.0105 0.0225 3.78344542634
0.0105 0.0235 3.75177208634
0.0105 0.0245 3.72070182592
0.0105 0.0255 3.69073512852
0.0105 0.0265 3.66249829606
0.0105 0.0275 3.63672492871
0.0105 0.0285 3.61424490124
0.0105 0.0295 3.59599453489
0.0105 0.0305 3.58306316388
0.0105 0.0315 3.57645530332
0.0115 -0.0315 3.44200329288
0.0115 -0.0305 3.44950728781
0.0115 -0.0295 3.46509847488
0.0115 -0.0285 3.48850250684
0.0115 -0.0275 3.51899981825
0.0115 -0.0265 3.55621137939
0.0115 -0.0255 3.60011437661
0.0115 -0.0245 3.65065810977
0.0115 -0.0235 3.70777081887
0.0115 -0.0225 3.77090622144
0.0115 -0.0215 3.8386907571
0.0115 -0.0205 3.90922581915
0.0115 -0.0195 3.98031886419
0.0115 -0.0185 4.04952504549
0.0115 -0.0175 4.1143071777
0.0115 -0.0165 4.17236056368
0.0115 -0.0155 4.2222144028
0.0115 -0.0145 4.26420323417
0.0115 -0.0135 4.30143498042
0.0115 -0.0125 4.33770361616
0.0115 -0.0115 4.37634764101
0.0115 -0.0105 4.4190882904
0.0115 -0.0095 4.46734170274
0.0115 -0.0085 4.52742388664
0.0115 -0.0075 4.61196469258
0.0115 -0.0065 4.7174632224
0.0115 -0.0055 4.81491691808
0.0115 -0.0045 4.87730580086
0.0115 -0.0035 4.89631580611
0.0115 -0.0025 4.8795908676
0.0115 -0.0015 4.84052491673
0.0115 -0.0005 4.79308301851
0.0115 0.0005 4.74905933715
0.0115 0.0015 4.71209544088
0.0115 0.0025 4.67647090643
0.0115 0.0035 4.63549213065
0.0115 0.0045 4.58765713882
0.0115 0.0055 4.53247671542
0.0115 0.0065 4.46601210425
0.0115 0.0075 4.39035034768
0.0115 0.0085 4.31274341462
0.0115 0.0095 4.23917352199
0.0115 0.0105 4.17466596458
0.0115 0.0115 4.12000096149
0.0115 0.0125 4.07361391668
0.0115 0.0135 4.03329870714
0.0115 0.0145 3.99701201867
0.0115 0.0155 3.96318531527
0.0115 0.0165 3.93072545191
0.0115 0.0175 3.89892525336
0.0115 0.0185 3.86736657553
0.0115 0.0195 3.83583624327
0.0115 0.0205 3.80426989995
0.0115 0.0215 3.77272474853
0.0115 0.0225 3.74137084691
0.0115 0.0235 3.7104887625
0.0115 0.0245 3.6804652398
0.0115 0.0255 3.65178386655
0.0115 0.0265 3.62501251213
0.0115 0.0275 3.60079245766
0.0115 0.0285 3.57983616048
0.0115 0.0295 3.56294402159
0.0115 0.0305 3.55105168222
0.0115 0.0315 3.54500768103
0.0125 -0.0315 3.3902942617
0.0125 -0.0305 3.39653675211
0.0125 -0.0295 3.40975428488
0.0125 -0.0285 3.42996197496
0.0125 -0.0275 3.45672333623
0.0125 -0.0265 3.48998829608
0.0125 -0.0255 3.53016221848
0.0125 -0.0245 3.57759218761
0.0125 -0.0235 3.63252269155
0.0125 -0.0225 3.69465918155
0.0125 -0.0215 3.76270976341
0.0125 -0.0205 3.8345914848
0.0125 -0.0195 3.90774547061
0.0125 -0.0185 3.97927098625
0.0125 -0.0175 4.0461001564
0.0125 -0.0165 4.10543208391
0.0125 -0.0155 4.15562276825
0.0125 -0.0145 4.19772498181
0.0125 -0.0135 4.2352059745
0.0125 -0.0125 4.27154801789
0.0125 -0.0115 4.30797412744
0.0125 -0.0105 4.34382099662
0.0125 -0.0095 4.3819402621
0.0125 -0.0085 4.43497257747
0.0125 -0.0075 4.52080839717
0.0125 -0.0065 4.63501602153
0.0125 -0.0055 4.74506241941
0.0125 -0.0045 4.82049307708
0.0125 -0.0035 4.85072086937
0.0125 -0.0025 4.84186769317
0.0125 -0.0015 4.80610232404
0.0125 -0.0005 4.75607631043
0.0125 0.0005 4.70371779108
0.0125 0.0015 4.65669509621
0.0125 0.0025 4.61435763991
0.0125 0.0035 4.57027503348
0.0125 0.0045 4.51904108386
0.0125 0.0055 4.45626514578
0.0125 0.0065 4.3793192821
0.0125 0.0075 4.29611947677
0.0125 0.0085 4.21795118708
0.0125 0.0095 4.1503961206
0.0125 0.0105 4.09506975001
0.0125 0.0115 4.04997645448
0.0125 0.0125 4.01197503729
0.0125 0.0135 3.97816765756
0.0125 0.0145 3.94650815557
0.0125 0.0155 3.91572886212
0.0125 0.0165 3.88512685735
0.0125 0.0175 3.85437915158
0.0125 0.0185 3.82339152057
0.0125 0.0195 3.79220115498
0.0125 0.0205 3.7609310609
0.0125 0.0215 3.72977624288
0.0125 0.0225 3.69900191722
0.0125 0.0235 3.6689425055
0.0125 0.0245 3.63999724819
0.0125 0.0255 3.61262261449
0.0125 0.0265 3.58732428551
0.0125 0.0275 3.56465272649
0.0125 0.0285 3.54520750456
0.0125 0.0295 3.52965833628
0.0125 0.0305 3.51879105007
0.0125 0.0315 3.51330173384
0.0135 -0.0315 3.33868168316
0.0135 -0.0305 3.34385099002
0.0135 -0.0295 3.35505117128
0.0135 -0.0285 3.37251234812
0.0135 -0.0275 3.39600301513
0.0135 -0.0265 3.42569396946
0.0135 -0.0255 3.46225791888
0.0135 -0.0245 3.50636325096
0.0135 -0.0235 3.55861336987
0.0135 -0.0225 3.61914070924
0.0135 -0.0215 3.68695974998
0.0135 -0.0205 3.75998374925
0.0135 -0.0195 3.83532707758
0.0135 -0.0185 3.90948697894
0.0135 -0.0175 3.97868223265
0.0135 -0.0165 4.03949257391
0.0135 -0.0155 4.09014124741
0.0135 -0.0145 4.13239275247
0.0135 -0.0135 4.16958776727
0.0135 -0.0125 4.2044787162
0.0135 -0.0115 4.23733692141
0.0135 -0.0105 4.26786531905
0.0135 -0.0095 4.3007607955
0.0135 -0.0085 4.34870608027
0.0135 -0.0075 4.42896084484
0.0135 -0.0065 4.54117766043
0.0135 -0.0055 4.6576885692
0.0135 -0.0045 4.7460040964
0.0135 -0.0035 4.78965518901
0.0135 -0.0025 4.79011414688
0.0135 -0.0015 4.75847134726
0.0135 -0.0005 4.70774585809
0.0135 0.0005 4.64900923206
0.0135 0.0015 4.59057269697
0.0135 0.0025 4.53695126605
0.0135 0.0035 4.48528638177
0.0135 0.0045 4.42753602812
0.0135 0.0055 4.35650404761
0.0135 0.0065 4.27300628898
0.0135 0.0075 4.18959212245
0.0135 0.0085 4.11823314677
0.0135 0.0095 4.06163182204
0.0135 0.0105 4.01790037079
0.0135 0.0115 3.98326882879
0.0135 0.0125 3.95347861631
0.0135 0.0135 3.9255559087
0.0135 0.0145 3.89779006777
0.0135 0.0155 3.86937233643
0.0135 0.0165 3.84008032536
0.0135 0.0175 3.8099934867
0.0135 0.0185 3.77931549193
0.0135 0.0195 3.74829853178
0.0135 0.0205 3.71722493838
0.0135 0.0215 3.68640769382
0.0135 0.0225 3.65619253137
0.0135 0.0235 3.62695673029
0.0135 0.0245 3.59910434104
0.0135 0.0255 3.57306002158
0.0135 0.0265 3.54926471786
0.0135 0.0275 3.52817637716
0.0135 0.0285 3.51027938723
0.0135 0.0295 3.49610872797
0.0135 0.0305 3.48629437708
0.0135 0.0315 3.48137441244
0.0145 -0.0315 3.28722608373
0.0145 -0.0305 3.29157883098
0.0145 -0.0295 3.30124642382
0.0145 -0.0285 3.31658562173
0.0145 -0.0275 3.33750386404
0.0145 -0.0265 3.3643082418
0.0145 -0.0255 3.39776460134
0.0145 -0.0245 3.43870958919
0.0145 -0.0235 3.48803294852
0.0145 -0.0225 3.5463300142
0.0145 -0.0215 3.61315109595
0.0145 -0.0205 3.6867363792
0.0145 -0.0195 3.76398532245
0.0145 -0.0185 3.84068078097
0.0145 -0.0175 3.912179504
0.0145 -0.0165 3.97432484775
0.0145 -0.0155 4.02548917873
0.0145 -0.0145 4.067566728
0.0145 -0.0135 4.10387259907
0.0145 -0.0125 4.13653004854
0.0145 -0.0115 4.16641099834
0.0145 -0.0105 4.1949437039
0.0145 -0.0095 4.22638920511
0.0145 -0.0085 4.27100644003
0.0145 -0.0075 4.34341356376
0.0145 -0.0065 4.44643292811
0.0145 -0.0055 4.56011778147
0.0145 -0.0045 4.65519451608
0.0145 -0.0035 4.71129613376
0.0145 -0.0025 4.72325454342
0.0145 -0.0015 4.69800311402
0.0145 -0.0005 4.64804795314
0.0145 0.0005 4.58486484324
0.0145 0.0015 4.51648394479
0.0145 0.0025 4.44902375272
0.0145 0.0035 4.38460947591
0.0145 0.0045 4.31725227907
0.0145 0.0055 4.24148596612
0.0145 0.0065 4.16060008157
0.0145 0.0075 4.08545168876
0.0145 0.0085 4.02610034497
0.0145 0.0095 3.9823828668
0.0145 0.0105 3.94963351525
0.0145 0.0115 3.92359351668
0.0145 0.0125 3.9000983481
0.0145 0.0135 3.87642123626
0.0145 0.0145 3.8512197873
0.0145 0.0155 3.82418604787
0.0145 0.0165 3.79554427457
0.0145 0.0175 3.76568957072
0.0145 0.0185 3.73503900699
0.0145 0.0195 3.70400496232
0.0145 0.0205 3.67299906096
0.0145 0.0215 3.64243630137
0.0145 0.0225 3.61273460933
0.0145 0.0235 3.58430963623
0.0145 0.0245 3.55756710888
0.0145 0.0255 3.53289658463
0.0145 0.0265 3.51066981859
0.0145 0.0275 3.49124585797
0.0145 0.0285 3.47498510672
0.0145 0.0295 3.4622764637
0.0145 0.0305 3.4535806339
0.0145 0.0315 3.44926540873
0.0155 -0.0315 3.23596160263
0.0155 -0.0305 3.23979759109
0.0155 -0.0295 3.24848111518
0.0155 -0.0285 3.26240149431
0.0155 -0.0275 3.281539077
0.0155 -0.0265 3.30627446302
0.0155 -0.0255 3.33735624202
0.0155 -0.0245 3.37565315583
0.0155 -0.0235 3.42219880705
0.0155 -0.0225 3.47789573393
0.0155 -0.0215 3.54294123588
0.0155 -0.0205 3.61623823813
0.0155 -0.0195 3.69469167191
0.0155 -0.0185 3.77335756969
0.0155 -0.0175 3.84661989016
0.0155 -0.0165 3.90963698011
0.0155 -0.0155 3.96115067639
0.0155 -0.0145 4.00277459786
0.0155 -0.0135 4.03779657521
0.0155 -0.0125 4.06882007112
0.0155 -0.0115 4.09759533115
0.0155 -0.0105 4.12620958103
0.0155 -0.0095 4.15769953666
0.0155 -0.0085 4.2002626949
0.0155 -0.0075 4.26537475519
0.0155 -0.0065 4.35641961988
0.0155 -0.0055 4.46014802487
0.0155 -0.0045 4.553331864
0.0155 -0.0035 4.61563447775
0.0155 -0.0025 4.63737581086
0.0155 -0.0015 4.62009141534
0.0155 -0.0005 4.57283913167
0.0155 0.0005 4.5068097909
0.0155 0.0015 4.43117751747
0.0155 0.0025 4.35300218827
0.0155 0.0035 4.27754433358
0.0155 0.0045 4.20417125528
0.0155 0.0055 4.13080901726
0.0155 0.0065 4.06105164165
0.0155 0.0075 4.00029909966
0.0155 0.0085 3.95334551408
0.0155 0.0095 3.91949893084
0.0155 0.0105 3.89379267822
0.0155 0.0115 3.87265019586
0.0155 0.0125 3.85254417443
0.0155 0.0135 3.83087996523
0.0155 0.0145 3.80667159876
0.0155 0.0155 3.78000330257
0.0155 0.0165 3.75137444124
0.0155 0.0175 3.72133403595
0.0155 0.0185 3.69041796184
0.0155 0.0195 3.65915309145
0.0155 0.0205 3.62805919234
0.0155 0.0215 3.59764513643
0.0155 0.0225 3.56839904331
0.0155 0.0235 3.54077411085
0.0155 0.0245 3.51517556099
0.0155 0.0255 3.49195317032
0.0155 0.0265 3.47140160001
0.0155 0.0275 3.45376968449
0.0155 0.0285 3.43927966218
0.0155 0.0295 3.42815800102
0.0155 0.0305 3.42067765208
0.0155 0.0315 3.41701911512
0.0165 -0.0315 3.1849088065
0.0165 -0.0305 3.18851481329
0.0165 -0.0295 3.19672886946
0.0165 -0.0285 3.20988952485
0.0165 -0.0275 3.22799000303
0.0165 -0.0265 3.25143656022
0.0165 -0.0255 3.28090659154
0.0165 -0.0245 3.31721711238
0.0165 -0.0235 3.36141383073
0.0165 -0.0225 3.41455032721
0.0165 -0.0215 3.47739862132
0.0165 -0.0205 3.54959199847
0.0165 -0.0195 3.62832063355
0.0165 -0.0185 3.70810252847
0.0165 -0.0175 3.78223153703
0.0165 -0.0165 3.84550231415
0.0165 -0.0155 3.89683903733
0.0165 -0.0145 3.93799988878
0.0165 -0.0135 3.97198733172