% Model:              Benchmark260518.mph
% Version:            COMSOL 6.2.0.339
% Date:               May 21 2026, 18:35
% Dimension:          2
% Nodes:              4096
% Expressions:        1
% Description:        压力
% Length unit:        m
% x                       y                        p (Pa)
% mirrored_by_python_y_to_minus_y, coord_match_decimals=12
0.0005 -0.0315 4.95819758307
0.0005 -0.0305 4.96930435357
0.0005 -0.0295 4.97747678665
0.0005 -0.0285 4.98311720906
0.0005 -0.0275 4.98896599476
0.0005 -0.0265 4.99453418385
0.0005 -0.0255 4.99994451096
0.0005 -0.0245 5.00663702945
0.0005 -0.0235 5.01346632532
0.0005 -0.0225 5.01629156671
0.0005 -0.0215 5.01236764432
0.0005 -0.0205 4.99930195371
0.0005 -0.0195 4.97043618215
0.0005 -0.0185 4.91351457364
0.0005 -0.0175 4.81494842768
0.0005 -0.0165 4.69786740147
0.0005 -0.0155 4.6288467135
0.0005 -0.0145 4.61736449512
0.0005 -0.0135 4.62094729428
0.0005 -0.0125 4.62560626142
0.0005 -0.0115 4.6347181421
0.0005 -0.0105 4.65168394796
0.0005 -0.0095 4.67518695817
0.0005 -0.0085 4.69879737983
0.0005 -0.0075 4.71541355138
0.0005 -0.0065 4.72178229188
0.0005 -0.0055 4.72008662565
0.0005 -0.0045 4.7157007849
0.0005 -0.0035 4.71307821165
0.0005 -0.0025 4.71311431269
0.0005 -0.0015 4.71326748644
0.0005 -0.0005 4.70952975771
0.0005 0.0005 4.69777987926
0.0005 0.0015 4.67336168972
0.0005 0.0025 4.63233189544
0.0005 0.0035 4.5772362487
0.0005 0.0045 4.51425541323
0.0005 0.0055 4.44877475006
0.0005 0.0065 4.38625271689
0.0005 0.0075 4.32922700383
0.0005 0.0085 4.27723966183
0.0005 0.0095 4.2293112234
0.0005 0.0105 4.18462398391
0.0005 0.0115 4.14245429922
0.0005 0.0125 4.10224597116
0.0005 0.0135 4.0635691753
0.0005 0.0145 4.02611183365
0.0005 0.0155 3.9896567419
0.0005 0.0165 3.9540587394
0.0005 0.0175 3.91921945259
0.0005 0.0185 3.88506369898
0.0005 0.0195 3.8515264775
0.0005 0.0205 3.81854763301
0.0005 0.0215 3.78607163712
0.0005 0.0225 3.75405457739
0.0005 0.0235 3.72247001919
0.0005 0.0245 3.69131491342
0.0005 0.0255 3.66061549157
0.0005 0.0265 3.63043889117
0.0005 0.0275 3.60091131077
0.0005 0.0285 3.57224618112
0.0005 0.0295 3.54481414454
0.0005 0.0305 3.51966518792
0.0005 0.0315 3.50120877455
0.0015 -0.0315 4.89471053157
0.0015 -0.0305 4.90395384265
0.0015 -0.0295 4.92095665851
0.0015 -0.0285 4.93889546089
0.0015 -0.0275 4.95606741048
0.0015 -0.0265 4.97207072448
0.0015 -0.0255 4.98554966262
0.0015 -0.0245 4.99456673086
0.0015 -0.0235 4.99762281883
0.0015 -0.0225 4.99537406444
0.0015 -0.0215 4.98934549191
0.0015 -0.0205 4.9783016052
0.0015 -0.0195 4.95561767542
0.0015 -0.0185 4.90703579023
0.0015 -0.0175 4.8181381835
0.0015 -0.0165 4.69591366514
0.0015 -0.0155 4.62520927102
0.0015 -0.0145 4.62045072098
0.0015 -0.0135 4.62050661464
0.0015 -0.0125 4.62259819847
0.0015 -0.0115 4.62955769868
0.0015 -0.0105 4.64543701288
0.0015 -0.0095 4.66859535702
0.0015 -0.0085 4.69146869147
0.0015 -0.0075 4.70645107315
0.0015 -0.0065 4.71103244625
0.0015 -0.0055 4.70864534844
0.0015 -0.0045 4.70541972829
0.0015 -0.0035 4.70558070003
0.0015 -0.0025 4.70913153889
0.0015 -0.0015 4.71203537068
0.0015 -0.0005 4.70866966118
0.0015 0.0005 4.69450220992
0.0015 0.0015 4.66578455158
0.0015 0.0025 4.61743607828
0.0015 0.0035 4.55226288624
0.0015 0.0045 4.48032064317
0.0015 0.0055 4.41002675161
0.0015 0.0065 4.34703373445
0.0015 0.0075 4.29209371582
0.0015 0.0085 4.24355493122
0.0015 0.0095 4.19955229643
0.0015 0.0105 4.15861946767
0.0015 0.0115 4.11977365206
0.0015 0.0125 4.08235392552
0.0015 0.0135 4.04594255464
0.0015 0.0145 4.01029971225
0.0015 0.0155 3.97530749557
0.0015 0.0165 3.94091487929
0.0015 0.0175 3.90708924053
0.0015 0.0185 3.87378655558
0.0015 0.0195 3.84094284826
0.0015 0.0205 3.80848025879
0.0015 0.0215 3.77632020457
0.0015 0.0225 3.74439651677
0.0015 0.0235 3.71266481784
0.0015 0.0245 3.68110751712
0.0015 0.0255 3.64973576939
0.0015 0.0265 3.61859242623
0.0015 0.0275 3.58775888972
0.0015 0.0285 3.55739294452
0.0015 0.0295 3.52794352085
0.0015 0.0305 3.50107420247
0.0015 0.0315 3.48260587738
0.0025 -0.0315 4.83545195953
0.0025 -0.0305 4.8461158086
0.0025 -0.0295 4.86664109065
0.0025 -0.0285 4.89326466168
0.0025 -0.0275 4.92098327983
0.0025 -0.0265 4.94650954884
0.0025 -0.0255 4.96653395794
0.0025 -0.0245 4.97795472973
0.0025 -0.0235 4.98055027775
0.0025 -0.0225 4.9771161407
0.0025 -0.0215 4.97043639935
0.0025 -0.0205 4.96079156481
0.0025 -0.0195 4.94401671123
0.0025 -0.0185 4.90917808897
0.0025 -0.0175 4.84629510541
0.0025 -0.0165 4.75562199603
0.0025 -0.0155 4.6743035521
0.0025 -0.0145 4.63642304543
0.0025 -0.0135 4.62524386113
0.0025 -0.0125 4.62273934648
0.0025 -0.0115 4.6283550115
0.0025 -0.0105 4.64260013959
0.0025 -0.0095 4.6615344374
0.0025 -0.0085 4.67730860948
0.0025 -0.0075 4.68414155129
0.0025 -0.0065 4.6822191892
0.0025 -0.0055 4.67668178197
0.0025 -0.0045 4.67378472069
0.0025 -0.0035 4.6770346928
0.0025 -0.0025 4.6857390236
0.0025 -0.0015 4.69419651771
0.0025 -0.0005 4.69254829704
0.0025 0.0005 4.67288173992
0.0025 0.0015 4.6325913464
0.0025 0.0025 4.57024510278
0.0025 0.0035 4.49238255909
0.0025 0.0045 4.4121677182
0.0025 0.0055 4.33920904768
0.0025 0.0065 4.27797864034
0.0025 0.0075 4.22754095512
0.0025 0.0085 4.18490622326
0.0025 0.0095 4.14719161972
0.0025 0.0105 4.11228623973
0.0025 0.0115 4.07879882797
0.0025 0.0125 4.04591951814
0.0025 0.0135 4.01325570051
0.0025 0.0145 3.98069345722
0.0025 0.0155 3.94827176113
0.0025 0.0165 3.91606876232
0.0025 0.0175 3.88412533168
0.0025 0.0185 3.85241586025
0.0025 0.0195 3.82085665523
0.0025 0.0205 3.78933337496
0.0025 0.0215 3.75773117152
0.0025 0.0225 3.72595814343
0.0025 0.0235 3.69395878022
0.0025 0.0245 3.6617175254
0.0025 0.0255 3.62925649645
0.0025 0.0265 3.59663548849
0.0025 0.0275 3.56398126692
0.0025 0.0285 3.53162965448
0.0025 0.0295 3.50060538823
0.0025 0.0305 3.47377063185
0.0025 0.0315 3.45700226736
0.0035 -0.0315 4.77613900962
0.0035 -0.0305 4.789355085
0.0035 -0.0295 4.81403935431
0.0035 -0.0285 4.84669015128
0.0035 -0.0275 4.88250542173
0.0035 -0.0265 4.91610292819
0.0035 -0.0255 4.94253551777
0.0035 -0.0245 4.95838490733
0.0035 -0.0235 4.96322532606
0.0035 -0.0225 4.96021732809
0.0035 -0.0215 4.95338169941
0.0035 -0.0205 4.94457121103
0.0035 -0.0195 4.93252020465
0.0035 -0.0185 4.91148727309
0.0035 -0.0175 4.87365224516
0.0035 -0.0165 4.81706937493
0.0035 -0.0155 4.75191796375
0.0035 -0.0145 4.69979508365
0.0035 -0.0135 4.67075495156
0.0035 -0.0125 4.65805000906
0.0035 -0.0115 4.6565176749
0.0035 -0.0105 4.66125166991
0.0035 -0.0095 4.6649463693
0.0035 -0.0085 4.6618588077
0.0035 -0.0075 4.65140062223
0.0035 -0.0065 4.63764036819
0.0035 -0.0055 4.62596650259
0.0035 -0.0045 4.62073767493
0.0035 -0.0035 4.62433898425
0.0035 -0.0025 4.63543611564
0.0035 -0.0015 4.64682927746
0.0035 -0.0005 4.6453202784
0.0035 0.0005 4.61875610982
0.0035 0.0015 4.56429277241
0.0035 0.0025 4.48685927638
0.0035 0.0035 4.40037822719
0.0035 0.0045 4.31914928754
0.0035 0.0055 4.24965251946
0.0035 0.0065 4.193887047
0.0035 0.0075 4.14962417768
0.0035 0.0085 4.11351026017
0.0035 0.0095 4.08242024625
0.0035 0.0105 4.05381910852
0.0035 0.0115 4.02599676938
0.0035 0.0125 3.99801899675
0.0035 0.0135 3.96954562768
0.0035 0.0145 3.94061153887
0.0035 0.0155 3.91139499349
0.0035 0.0165 3.88204860585
0.0035 0.0175 3.85261834044
0.0035 0.0185 3.82303830584
0.0035 0.0195 3.79316764371
0.0035 0.0205 3.76284017117
0.0035 0.0215 3.73190925461
0.0035 0.0225 3.70027882645
0.0035 0.0235 3.66791807007
0.0035 0.0245 3.63486268591
0.0035 0.0255 3.60121231033
0.0035 0.0265 3.5671476673
0.0035 0.0275 3.53302084354
0.0035 0.0285 3.4996221221
0.0035 0.0295 3.46871394039
0.0035 0.0305 3.44356160507
0.0035 0.0315 3.42880249463
0.0045 -0.0315 4.7159572613
0.0045 -0.0305 4.7316518339
0.0045 -0.0295 4.76059520244
0.0045 -0.0285 4.79848823599
0.0045 -0.0275 4.84036737403
0.0045 -0.0265 4.88059268362
0.0045 -0.0255 4.91361085858
0.0045 -0.0245 4.93540536256
0.0045 -0.0235 4.94465691808
0.0045 -0.0225 4.94385498146
0.0045 -0.0215 4.93772014732
0.0045 -0.0205 4.92964203355
0.0045 -0.0195 4.92066546887
0.0045 -0.0185 4.90960149111
0.0045 -0.0175 4.89385380108
0.0045 -0.0165 4.87286671871
0.0045 -0.0155 4.84550182572
0.0045 -0.0145 4.81308193085
0.0045 -0.0135 4.78278744619
0.0045 -0.0125 4.75787306782
0.0045 -0.0115 4.73558076634
0.0045 -0.0105 4.71187544505
0.0045 -0.0095 4.68412767777
0.0045 -0.0085 4.65328501955
0.0045 -0.0075 4.62340958115
0.0045 -0.0065 4.59829610065
0.0045 -0.0055 4.57979933895
0.0045 -0.0045 4.56871365072
0.0045 -0.0035 4.5659541232
0.0045 -0.0025 4.57083164165
0.0045 -0.0015 4.57667152481
0.0045 -0.0005 4.56854382244
0.0045 0.0005 4.53149515503
0.0045 0.0015 4.46455306963
0.0045 0.0025 4.37914568932
0.0045 0.0035 4.29380486452
0.0045 0.0045 4.22018290653
0.0045 0.0055 4.15912880601
0.0045 0.0065 4.1102685143
0.0045 0.0075 4.07157767657
0.0045 0.0085 4.04069431024
0.0045 0.0095 4.01463561519
0.0045 0.0105 3.99078815355
0.0045 0.0115 3.96735191465
0.0045 0.0125 3.94337945851
0.0045 0.0135 3.9186485793
0.0045 0.0145 3.89330106017
0.0045 0.0155 3.86753071148
0.0045 0.0165 3.84141380141
0.0045 0.0175 3.81487434206
0.0045 0.0185 3.78772356161
0.0045 0.0195 3.75972415058
0.0045 0.0205 3.73065547935
0.0045 0.0215 3.70036478433
0.0045 0.0225 3.66879797368
0.0045 0.0235 3.63600952329
0.0045 0.0245 3.60215865743
0.0045 0.0255 3.56751082944
0.0045 0.0265 3.53248095332
0.0045 0.0275 3.49777236814
0.0045 0.0285 3.46463919215
0.0045 0.0295 3.43514628241
0.0045 0.0305 3.41218832473
0.0045 0.0315 3.39924462871
0.0055 -0.0315 4.65463109674
0.0055 -0.0305 4.67243820948
0.0055 -0.0295 4.70510286123
0.0055 -0.0285 4.74760991395
0.0055 -0.0275 4.7945938039
0.0055 -0.0265 4.84054797281
0.0055 -0.0255 4.88003119077
0.0055 -0.0245 4.90856121782
0.0055 -0.0235 4.92387028732
0.0055 -0.0225 4.92716760282
0.0055 -0.0215 4.92306925616
0.0055 -0.0205 4.91629890942
0.0055 -0.0195 4.9093777293
0.0055 -0.0185 4.90404471238
0.0055 -0.0175 4.90383736986
0.0055 -0.0165 4.9124845012
0.0055 -0.0155 4.92662028273
0.0055 -0.0145 4.93417890941
0.0055 -0.0135 4.92485584196
0.0055 -0.0125 4.8951605139
0.0055 -0.0115 4.84526200472
0.0055 -0.0105 4.78117443595
0.0055 -0.0095 4.71514610198
0.0055 -0.0085 4.65809512211
0.0055 -0.0075 4.61401221627
0.0055 -0.0065 4.58149549939
0.0055 -0.0055 4.55741812571
0.0055 -0.0045 4.53915108492
0.0055 -0.0035 4.52539243534
0.0055 -0.0025 4.51570483381
0.0055 -0.0015 4.50624074957
0.0055 -0.0005 4.48424824095
0.0055 0.0005 4.43388733082
0.0055 0.0015 4.35782006145
0.0055 0.0025 4.27482567723
0.0055 0.0035 4.19927260019
0.0055 0.0045 4.13518575177
0.0055 0.0055 4.08209536044
0.0055 0.0065 4.0390257355
0.0055 0.0075 4.00413529766
0.0055 0.0085 3.97572693545
0.0055 0.0095 3.95154379434
0.0055 0.0105 3.92947847001
0.0055 0.0115 3.90787450264
0.0055 0.0125 3.88606907078
0.0055 0.0135 3.86401263128
0.0055 0.0145 3.84180332503
0.0055 0.0155 3.81940754759
0.0055 0.0165 3.79660569419
0.0055 0.0175 3.77305107357
0.0055 0.0185 3.7483501109
0.0055 0.0195 3.72214453389
0.0055 0.0205 3.69417812769
0.0055 0.0215 3.66434171695
0.0055 0.0225 3.63269193858
0.0055 0.0235 3.59944558911
0.0055 0.0245 3.56496300819
0.0055 0.0255 3.52974732443
0.0055 0.0265 3.4944962141
0.0055 0.0275 3.46022253928
0.0055 0.0285 3.42838648652
0.0055 0.0295 3.40092798308
0.0055 0.0305 3.38020199676
0.0055 0.0315 3.36882288213
0.0065 -0.0315 4.59189653455
0.0065 -0.0305 4.61146031629
0.0065 -0.0295 4.64726835896
0.0065 -0.0285 4.69379716815
0.0065 -0.0275 4.745405181
0.0065 -0.0265 4.79666011682
0.0065 -0.0255 4.84230283721
0.0065 -0.0245 4.87771022691
0.0065 -0.0235 4.89998021466
0.0065 -0.0225 4.90910654249
0.0065 -0.0215 4.90876254272
0.0065 -0.0205 4.9042710027
0.0065 -0.0195 4.89933988454
0.0065 -0.0185 4.89710843097
0.0065 -0.0175 4.90509286913
0.0065 -0.0165 4.933489737
0.0065 -0.0155 4.98043592522
0.0065 -0.0145 5.02445556777
0.0065 -0.0135 5.03962233479
0.0065 -0.0125 5.01142347923
0.0065 -0.0115 4.94089791812
0.0065 -0.0105 4.84531065127
0.0065 -0.0095 4.75103225295
0.0065 -0.0085 4.67591497243
0.0065 -0.0075 4.62149449484
0.0065 -0.0065 4.58208108014
0.0065 -0.0055 4.55197863148
0.0065 -0.0045 4.52656167551
0.0065 -0.0035 4.50254025906
0.0065 -0.0025 4.47809050168
0.0065 -0.0015 4.45113262865
0.0065 -0.0005 4.41409224597
0.0065 0.0005 4.3541623729
0.0065 0.0015 4.27448038182
0.0065 0.0025 4.19668078251
0.0065 0.0035 4.13057050948
0.0065 0.0045 4.07368511917
0.0065 0.0055 4.02574167121
0.0065 0.0065 3.9856929841
0.0065 0.0075 3.95224648575
0.0065 0.0085 3.92383511065
0.0065 0.0095 3.8982695058
0.0065 0.0105 3.87438109718
0.0065 0.0115 3.85151513598
0.0065 0.0125 3.82965973426
0.0065 0.0135 3.80894284052
0.0065 0.0145 3.78916452573
0.0065 0.0155 3.76977232755
0.0065 0.0165 3.75003967809
0.0065 0.0175 3.72921296769
0.0065 0.0185 3.70663630272
0.0065 0.0195 3.68183394647
0.0065 0.0205 3.65456228212
0.0065 0.0215 3.62483220326
0.0065 0.0225 3.59289705923
0.0065 0.0235 3.55921366626
0.0065 0.0245 3.52439530788
0.0065 0.0255 3.48919167933
0.0065 0.0265 3.45451970265
0.0065 0.0275 3.42152370848
0.0065 0.0285 3.39160747392
0.0065 0.0295 3.36641521116
0.0065 0.0305 3.34780859628
0.0065 0.0315 3.33777429732
0.0075 -0.0315 4.52757535687
0.0075 -0.0305 4.54862815595
0.0075 -0.0295 4.58717156185
0.0075 -0.0285 4.63733811188
0.0075 -0.0275 4.69328861663
0.0075 -0.0265 4.7495858516
0.0075 -0.0255 4.80106974034
0.0075 -0.0245 4.84313937715
0.0075 -0.0235 4.87250065361
0.0075 -0.0225 4.88830339122
0.0075 -0.0215 4.89310570311
0.0075 -0.0205 4.89213198444
0.0075 -0.0195 4.89003890785
0.0075 -0.0185 4.89030693579
0.0075 -0.0175 4.90163779454
0.0075 -0.0165 4.93878001351
0.0075 -0.0155 5.00245394449
0.0075 -0.0145 5.06602932839
0.0075 -0.0135 5.09489132062
0.0075 -0.0125 5.07095222511
0.0075 -0.0115 4.99796015678
0.0075 -0.0105 4.89512822724
0.0075 -0.0095 4.78943597559
0.0075 -0.0085 4.7015836567
0.0075 -0.0075 4.63615554836
0.0075 -0.0065 4.58774007047
0.0075 -0.0055 4.54929381144
0.0075 -0.0045 4.51494630206
0.0075 -0.0035 4.48059564323
0.0075 -0.0025 4.44459303599
0.0075 -0.0015 4.40587158092
0.0075 -0.0005 4.3595959064
0.0075 0.0005 4.29769480583
0.0075 0.0015 4.22079204517
0.0075 0.0025 4.14507165599
0.0075 0.0035 4.08236594595
0.0075 0.0045 4.0309045236
0.0075 0.0055 3.98697810426
0.0075 0.0065 3.94860170822
0.0075 0.0075 3.91518414977
0.0075 0.0085 3.88504952753
0.0075 0.0095 3.85593843295
0.0075 0.0105 3.82760584073
0.0075 0.0115 3.80107785901
0.0075 0.0125 3.77738715853
0.0075 0.0135 3.75677014526
0.0075 0.0145 3.73851444119
0.0075 0.0155 3.72141122711
0.0075 0.0165 3.70408222872
0.0075 0.0175 3.68528595692
0.0075 0.0185 3.66408649338
0.0075 0.0195 3.63993097009
0.0075 0.0205 3.61267508117
0.0075 0.0215 3.58255300938
0.0075 0.0225 3.55010760761
0.0075 0.0235 3.51608599865
0.0075 0.0245 3.48134172118
0.0075 0.0255 3.44678901687
0.0075 0.0265 3.41341223465
0.0075 0.0275 3.38229515517
0.0075 0.0285 3.3546373113
0.0075 0.0295 3.33175784168
0.0075 0.0305 3.31511503961
0.0075 0.0315 3.30625080621
0.0085 -0.0315 4.46154748488
0.0085 -0.0305 4.48394352706
0.0085 -0.0295 4.52502060348
0.0085 -0.0285 4.57865105558
0.0085 -0.0275 4.63880474519
0.0085 -0.0265 4.69997026202
0.0085 -0.0255 4.75701331693
0.0085 -0.0245 4.80530148838
0.0085 -0.0235 4.84127541385
0.0085 -0.0225 4.86353168572
0.0085 -0.0215 4.87399455488
0.0085 -0.0205 4.87760755393
0.0085 -0.0195 4.87937549513
0.0085 -0.0185 4.88256235119
0.0085 -0.0175 4.89453330789
0.0085 -0.0165 4.92998570542
0.0085 -0.0155 4.99214290096
0.0085 -0.0145 5.0565504946
0.0085 -0.0135 5.08943149451
0.0085 -0.0125 5.07546129562
0.0085 -0.0115 5.01833930795
0.0085 -0.0105 4.92834531461
0.0085 -0.0095 4.82458145008
0.0085 -0.0085 4.72907548284
0.0085 -0.0075 4.65205042953
0.0085 -0.0065 4.59187443451
0.0085 -0.0055 4.54198140318
0.0085 -0.0045 4.4963075157
0.0085 -0.0035 4.45114526097
0.0085 -0.0025 4.40567507045
0.0085 -0.0015 4.35954971608
0.0085 -0.0005 4.30964977316
0.0085 0.0005 4.25085324661
0.0085 0.0015 4.18167184806
0.0085 0.0025 4.110379305
0.0085 0.0035 4.04841857275
0.0085 0.0045 3.99871762498
0.0085 0.0055 3.95733671221
0.0085 0.0065 3.92087213117
0.0085 0.0075 3.88738852464
0.0085 0.0085 3.85483718064
0.0085 0.0095 3.8216804455
0.0085 0.0105 3.7886264901
0.0085 0.0115 3.75820696194
0.0085 0.0125 3.73214699794
0.0085 0.0135 3.71068501641
0.0085 0.0145 3.69292427801
0.0085 0.0155 3.67700113309
0.0085 0.0165 3.66090376445
0.0085 0.0175 3.64292221627
0.0085 0.0185 3.62186763351
0.0085 0.0195 3.59720872491
0.0085 0.0205 3.56903130635
0.0085 0.0215 3.53792496444
0.0085 0.0225 3.50479563667
0.0085 0.0235 3.47065842867
0.0085 0.0245 3.43649999099
0.0085 0.0255 3.40323779507
0.0085 0.0265 3.37174795365
0.0085 0.0275 3.34291538453
0.0085 0.0285 3.31767701396
0.0085 0.0295 3.29705583072
0.0085 0.0305 3.28220400735
0.0085 0.0315 3.27435657534
0.0095 -0.0315 4.39372253007
0.0095 -0.0305 4.41742368014
0.0095 -0.0295 4.46099240491
0.0095 -0.0285 4.51806336694
0.0095 -0.0275 4.5823942639
0.0095 -0.0265 4.64833878829
0.0095 -0.0255 4.71068041624
0.0095 -0.0245 4.76467652649
0.0095 -0.0235 4.80654021057
0.0095 -0.0225 4.83442879349
0.0095 -0.0215 4.85004161795
0.0095 -0.0205 4.85812240882
0.0095 -0.0195 4.86374051779
0.0095 -0.0185 4.86960846143
0.0095 -0.0175 4.8794186352
0.0095 -0.0165 4.90367287631
0.0095 -0.0155 4.94890129805
0.0095 -0.0145 5.00262671887
0.0095 -0.0135 5.03980078367
0.0095 -0.0125 5.04215408095
0.0095 -0.0115 5.005328389
0.0095 -0.0105 4.93333167558
0.0095 -0.0095 4.84023365994
0.0095 -0.0085 4.74548343633
0.0095 -0.0075 4.66112651139
0.0095 -0.0065 4.58953534576
0.0095 -0.0055 4.52721925851
0.0095 -0.0045 4.46982760623
0.0095 -0.0035 4.4149434495
0.0095 -0.0025 4.36196157321
0.0095 -0.0015 4.31037898145
0.0095 -0.0005 4.25850201515
0.0095 0.0005 4.20344664464
0.0095 0.0015 4.14320529687
0.0095 0.0025 4.08042522395
0.0095 0.0035 4.02194460168
0.0095 0.0045 3.97260782514
0.0095 0.0055 3.9318674859
0.0095 0.0065 3.89622266309
0.0095 0.0075 3.86212471911
0.0095 0.0085 3.82735990475
0.0095 0.0095 3.79127536617
0.0095 0.0105 3.75521058283
0.0095 0.0115 3.72261206472
0.0095 0.0125 3.69533528221
0.0095 0.0135 3.6730887174
0.0095 0.0145 3.65486341936
0.0095 0.0155 3.63864829915
0.0095 0.0165 3.62215508494
0.0095 0.0175 3.60324485871
0.0095 0.0185 3.58062029224
0.0095 0.0195 3.55394264665
0.0095 0.0205 3.52374005953
0.0095 0.0215 3.49110431591
0.0095 0.0225 3.45729198294
0.0095 0.0235 3.42344384894
0.0095 0.0245 3.39047785719
0.0095 0.0255 3.35911721406
0.0095 0.0265 3.32998207855
0.0095 0.0275 3.30368364668
0.0095 0.0285 3.28089531898
0.0095 0.0295 3.26240205072
0.0095 0.0305 3.24914455535
0.0095 0.0315 3.24216512454
0.0105 -0.0315 4.32402044257
0.0105 -0.0305 4.3490444879
0.0105 -0.0295 4.39514379351
0.0105 -0.0285 4.45570575176
0.0105 -0.0275 4.52424880915
0.0105 -0.0265 4.5949301458
0.0105 -0.0255 4.66235435528
0.0105 -0.0245 4.7215805715
0.0105 -0.0235 4.76851458427
0.0105 -0.0225 4.80092991096
0.0105 -0.0215 4.82036952609
0.0105 -0.0205 4.83143425349
0.0105 -0.0195 4.83932256602
0.0105 -0.0185 4.84571492428
0.0105 -0.0175 4.84967300267
0.0105 -0.0165 4.85768371395
0.0105 -0.0155 4.88103495599
0.0105 -0.0145 4.92033654823
0.0105 -0.0135 4.95954708146
0.0105 -0.0125 4.97550808738
0.0105 -0.0115 4.95584587975
0.0105 -0.0105 4.90238395141
0.0105 -0.0095 4.82524260537
0.0105 -0.0085 4.73869313041
0.0105 -0.0075 4.6537832386
0.0105 -0.0065 4.57542541471
0.0105 -0.0055 4.50381441929
0.0105 -0.0045 4.43737572009
0.0105 -0.0035 4.37505527938
0.0105 -0.0025 4.31649347872
0.0105 -0.0015 4.26107350664
0.0105 -0.0005 4.20762889273
0.0105 0.0005 4.15491290265
0.0105 0.0015 4.10166143351
0.0105 0.0025 4.04767228421
0.0105 0.0035 3.99539940527
0.0105 0.0045 3.94813211736
0.0105 0.0055 3.90714389394
0.0105 0.0065 3.87083900506
0.0105 0.0075 3.83581108428
0.0105 0.0085 3.79960317786
0.0105 0.0095 3.76227802658
0.0105 0.0105 3.72602113295
0.0105 0.0115 3.69375154772
0.0105 0.0125 3.66647645051
0.0105 0.0135 3.64393649627
0.0105 0.0145 3.62493207346
0.0105 0.0155 3.60718074581
0.0105 0.0165 3.58842060348
0.0105 0.0175 3.56647914231
0.0105 0.0185 3.54019336878
0.0105 0.0195 3.50977891769
0.0105 0.0205 3.47653735069
0.0105 0.0215 3.4421162819
0.0105 0.0225 3.4079426227
0.0105 0.0235 3.37500776573
0.0105 0.0245 3.34390598395
0.0105 0.0255 3.31499075174
0.0105 0.0265 3.28853833725
0.0105 0.0275 3.2648725342
0.0105 0.0285 3.24444431395
0.0105 0.0295 3.2278754738
0.0105 0.0305 3.21598651422
0.0105 0.0315 3.20972331007
0.0115 -0.0315 4.25236158398
0.0115 -0.0305 4.27871480842
0.0115 -0.0295 4.32736859946
0.0115 -0.0285 4.39145508913
0.0115 -0.0275 4.4642270555
0.0115 -0.0265 4.53960161828
0.0115 -0.0255 4.611935216
0.0115 -0.0245 4.67597029917
0.0115 -0.0235 4.72719253057
0.0115 -0.0225 4.76295248083
0.0115 -0.0215 4.78453247441
0.0115 -0.0205 4.79648274898
0.0115 -0.0195 4.80415009053
0.0115 -0.0185 4.80818896447
0.0115 -0.0175 4.80465182479
0.0115 -0.0165 4.79932411755
0.0115 -0.0155 4.80675956969
0.0115 -0.0145 4.83174775867
0.0115 -0.0135 4.86376974208
0.0115 -0.0125 4.88328606465
0.0115 -0.0115 4.87575116256
0.0115 -0.0105 4.83905958283
0.0115 -0.0095 4.77898467351
0.0115 -0.0085 4.70488700264
0.0115 -0.0075 4.62537492862
0.0115 -0.0065 4.54626590606
0.0115 -0.0055 4.47051390069
0.0115 -0.0045 4.39923942242
0.0115 -0.0035 4.33274971325
0.0115 -0.0025 4.27101528542
0.0115 -0.0015 4.21358798166
0.0115 -0.0005 4.15964736956
0.0115 0.0005 4.10842467277
0.0115 0.0015 4.05949432338
0.0115 0.0025 4.01230321914
0.0115 0.0035 3.9663666411
0.0115 0.0045 3.92217039885
0.0115 0.0055 3.88090544241
0.0115 0.0065 3.84296555784
0.0115 0.0075 3.80692487108
0.0115 0.0085 3.77077181386
0.0115 0.0095 3.73455613653
0.0115 0.0105 3.70052732318
0.0115 0.0115 3.67025661218
0.0115 0.0125 3.64395604434
0.0115 0.0135 3.62152717056
0.0115 0.0145 3.60154416435
0.0115 0.0155 3.58137313999
0.0115 0.0165 3.55865069502
0.0115 0.0175 3.53147630345
0.0115 0.0185 3.49935940128
0.0115 0.0195 3.46375609898
0.0115 0.0205 3.42699554245
0.0115 0.0215 3.39110629688
0.0115 0.0225 3.35730874574
0.0115 0.0235 3.32609208302
0.0115 0.0245 3.29750689682
0.0115 0.0255 3.27144060017
0.0115 0.0265 3.24781510043
0.0115 0.0275 3.22671116828
0.0115 0.0285 3.20843077388
0.0115 0.0295 3.19351615967
0.0115 0.0305 3.18274909982
0.0115 0.0315 3.17705292498
0.0125 -0.0315 4.17865935639
0.0125 -0.0305 4.20626684367
0.0125 -0.0295 4.25737702048
0.0125 -0.0285 4.3249009467
0.0125 -0.0275 4.40182035564
0.0125 -0.0265 4.48178461758
0.0125 -0.0255 4.55885459542
0.0125 -0.0245 4.62737556861
0.0125 -0.0235 4.68230611929
0.0125 -0.0225 4.72047153799
0.0125 -0.0215 4.74281481834
0.0125 -0.0205 4.75395218016
0.0125 -0.0195 4.75949932892
0.0125 -0.0185 4.75996795739
0.0125 -0.0175 4.75108866296
0.0125 -0.0165 4.73931873367
0.0125 -0.0155 4.73820472609
0.0125 -0.0145 4.75036432491
0.0125 -0.0135 4.76889082865
0.0125 -0.0125 4.78200279054
0.0125 -0.0115 4.77825774716
0.0125 -0.0105 4.75300264329
0.0125 -0.0095 4.70745445676
0.0125 -0.0085 4.6463790336
0.0125 -0.0075 4.57570936216
0.0125 -0.0065 4.50092827371
0.0125 -0.0055 4.42629459117
0.0125 -0.0045 4.35464650315
0.0125 -0.0035 4.28752396734
0.0125 -0.0025 4.22544084444
0.0125 -0.0015 4.16819976171
0.0125 -0.0005 4.11521724971
0.0125 0.0005 4.06589502993
0.0125 0.0015 4.0198603987
0.0125 0.0025 3.97682625281
0.0125 0.0035 3.93574498732
0.0125 0.0045 3.89481784445
0.0125 0.0055 3.85343478968
0.0125 0.0065 3.81322111134
0.0125 0.0075 3.77583768494
0.0125 0.0085 3.7408547243
0.0125 0.0095 3.70769659735
0.0125 0.0105 3.67709762537
0.0125 0.0115 3.64957654497
0.0125 0.0125 3.62503798769
0.0125 0.0135 3.60286370976
0.0125 0.0145 3.58144468812
0.0125 0.0155 3.55808847591
0.0125 0.0165 3.52979116486
0.0125 0.0175 3.49530893142
0.0125 0.0185 3.45590998603
0.0125 0.0195 3.4146760251
0.0125 0.0205 3.37494870647
0.0125 0.0215 3.33866093151
0.0125 0.0225 3.30632852946
0.0125 0.0235 3.27766396335
0.0125 0.0245 3.25208532326
0.0125 0.0255 3.22902819544
0.0125 0.0265 3.20813202679
0.0125 0.0275 3.18932934434
0.0125 0.0285 3.17286938433
0.0125 0.0295 3.15929683885
0.0125 0.0305 3.14941309462
0.0125 0.0315 3.14415498588
0.0135 -0.0315 4.10283939429
0.0135 -0.0305 4.13146715461
0.0135 -0.0295 4.18469316201
0.0135 -0.0285 4.25533154666
0.0135 -0.0275 4.33614037031
0.0135 -0.0265 4.42048240172
0.0135 -0.0255 4.50208805394
0.0135 -0.0245 4.57490184536
0.0135 -0.0235 4.63334539905
0.0135 -0.0225 4.67364776847
0.0135 -0.0215 4.69632687225
0.0135 -0.0205 4.70613796058
0.0135 -0.0195 4.70924182299
0.0135 -0.0185 4.70711938619
0.0135 -0.0175 4.69643046101
0.0135 -0.0165 4.68288069697
0.0135 -0.0155 4.67698758702
0.0135 -0.0145 4.678679877
0.0135 -0.0135 4.68278378651
0.0135 -0.0125 4.68420997858
0.0135 -0.0115 4.67695774059
0.0135 -0.0105 4.65624872516
0.0135 -0.0095 4.62007082067
0.0135 -0.0085 4.56957132858
0.0135 -0.0075 4.50819048043
0.0135 -0.0065 4.44042524579
0.0135 -0.0055 4.37069670613
0.0135 -0.0045 4.30252125361
0.0135 -0.0035 4.23812379553
0.0135 -0.0025 4.17849385855
0.0135 -0.0015 4.12371261589
0.0135 -0.0005 4.07332431411
0.0135 0.0005 4.02676496384
0.0135 0.0015 3.98362184717
0.0135 0.0025 3.94337576832
0.0135 0.0035 3.90483978292
0.0135 0.0045 3.86579330077
0.0135 0.0055 3.82459254417
0.0135 0.0065 3.78290211633
0.0135 0.0075 3.74428388253
0.0135 0.0085 3.71023134984
0.0135 0.0095 3.68003763849
0.0135 0.0105 3.65310861916
0.0135 0.0115 3.62902422414
0.0135 0.0125 3.60652604599
0.0135 0.0135 3.58405961106
0.0135 0.0145 3.56040639001
0.0135 0.0155 3.53298929505
0.0135 0.0165 3.49739760647
0.0135 0.0175 3.45406201432
0.0135 0.0185 3.4074831247
0.0135 0.0195 3.3619246204
0.0135 0.0205 3.32108255739
0.0135 0.0215 3.28606455171
0.0135 0.0225 3.25635710984
0.0135 0.0235 3.23086285613
0.0135 0.0245 3.20843882088
0.0135 0.0255 3.18819907861
0.0135 0.0265 3.16964303386
0.0135 0.0275 3.15268856301
0.0135 0.0285 3.13763930332
0.0135 0.0295 3.12510417781
0.0135 0.0305 3.11592103103
0.0135 0.0315 3.11102405981
0.0145 -0.0315 4.0248698993
0.0145 -0.0305 4.05405942652
0.0145 -0.0295 4.10869644022
0.0145 -0.0285 4.18175174715
0.0145 -0.0275 4.26591655322
0.0145 -0.0265 4.35429198918
0.0145 -0.0255 4.44022707088
0.0145 -0.0245 4.51727645671
0.0145 -0.0235 4.57946800836
0.0145 -0.0225 4.62252226972
0.0145 -0.0215 4.64643774907
0.0145 -0.0205 4.65594144422
0.0145 -0.0195 4.65779051921
0.0145 -0.0185 4.65513472995
0.0145 -0.0175 4.64554719709
0.0145 -0.0165 4.6322248761
0.0145 -0.0155 4.62274552051
0.0145 -0.0145 4.61625739703
0.0145 -0.0135 4.60821993736
0.0145 -0.0125 4.59727508685
0.0145 -0.0115 4.58208592797
0.0145 -0.0105 4.55938911611
0.0145 -0.0095 4.52620249968
0.0145 -0.0085 4.48170707967
0.0145 -0.0075 4.42757023182
0.0145 -0.0065 4.3671837847
0.0145 -0.0055 4.30439026978
0.0145 -0.0045 4.24242740173
0.0145 -0.0035 4.18346153042
0.0145 -0.0025 4.12858752327
0.0145 -0.0015 4.07807594681
0.0145 -0.0005 4.03168584801
0.0145 0.0005 3.98885916329
0.0145 0.0015 3.94891964699
0.0145 0.0025 3.91114258309
0.0145 0.0035 3.87393861165
0.0145 0.0045 3.83465723001
0.0145 0.0055 3.79311688015
0.0145 0.0065 3.75215117376
0.0145 0.0075 3.71410970447
0.0145 0.0085 3.68021159351
0.0145 0.0095 3.65091964276
0.0145 0.0105 3.62594690474
0.0145 0.0115 3.60437928285
0.0145 0.0125 3.58386681586
0.0145 0.0135 3.56102991758
0.0145 0.0145 3.53379258169
0.0145 0.0155 3.50003495643
0.0145 0.0165 3.45610960027
0.0145 0.0175 3.40475798229
0.0145 0.0185 3.35333014475
0.0145 0.0195 3.30668393382
0.0145 0.0205 3.26741002793
0.0145 0.0215 3.23534184521
0.0145 0.0225 3.20906784725
0.0145 0.0235 3.18685027629
0.0145 0.0245 3.16721123653
0.0145 0.0255 3.14915775596
0.0145 0.0265 3.13224151529
0.0145 0.0275 3.11652819171
0.0145 0.0285 3.10246583604
0.0145 0.0295 3.09074246609
0.0145 0.0305 3.08219038058
0.0145 0.0315 3.07765973307
0.0155 -0.0315 3.94479524688
0.0155 -0.0305 3.97384040605
0.0155 -0.0295 4.02873557087
0.0155 -0.0285 4.10298321009
0.0155 -0.0275 4.18953500502
0.0155 -0.0265 4.2813997327
0.0155 -0.0255 4.37150929494
0.0155 -0.0245 4.4529274254
0.0155 -0.0235 4.51940117129
0.0155 -0.0225 4.56649329737
0.0155 -0.0215 4.59382170243
0.0155 -0.0205 4.60554683513
0.0155 -0.0195 4.60854302613
0.0155 -0.0185 4.60791469645
0.0155 -0.0175 4.60211788346
0.0155 -0.0165 4.59024290749
0.0155 -0.0155 4.57734918778
0.0155 -0.0145 4.56415830408
0.0155 -0.0135 4.54684335416
0.0155 -0.0125 4.5249798081
0.0155 -0.0115 4.499465419
0.0155 -0.0105 4.46933218923
0.0155 -0.0095 4.43270034269
0.0155 -0.0085 4.38869665842
0.0155 -0.0075 4.33844248437
0.0155 -0.0065 4.28441866507
0.0155 -0.0055 4.22924210735
0.0155 -0.0045 4.1750074251
0.0155 -0.0035 4.12312104222
0.0155 -0.0025 4.07438973594
0.0155 -0.0015 4.02916749472
0.0155 -0.0005 3.9874381891
0.0155 0.0005 3.94882633049
0.0155 0.0015 3.91242803069
0.0155 0.0025 3.87676787799
0.0155 0.0035 3.8403216689
0.0155 0.0045 3.80117569498
0.0155 0.0055 3.7601809338
0.0155 0.0065 3.72103238243
0.0155 0.0075 3.68519386098
0.0155 0.0085 3.6522215679
0.0155 0.0095 3.62203359866
0.0155 0.0105 3.59527845462
0.0155 0.0115 3.5724248259
0.0155 0.0125 3.55160791582
0.0155 0.0135 3.52779189685
0.0155 0.0145 3.49603369368
0.0155 0.0155 3.45406544921
0.0155 0.0165 3.4027378518
0.0155 0.0175 3.34771078984
0.0155 0.0185 3.29642203257
0.0155 0.0195 3.2526572047
0.0155 0.0205 3.21716280913
0.0155 0.0215 3.18903371673
0.0155 0.0225 3.16618165278
0.0155 0.0235 3.14657716096
0.0155 0.0245 3.12871176264
0.0155 0.0255 3.11173232503
0.0155 0.0265 3.09549445888
0.0155 0.0275 3.0803583612
0.0155 0.0285 3.06694571859
0.0155 0.0295 3.05596950468
0.0155 0.0305 3.04814124841
0.0155 0.0315 3.04408143976
0.0165 -0.0315 3.8627619122
0.0165 -0.0305 3.89075033034
0.0165 -0.0295 3.94431201148
0.0165 -0.0285 4.01789978021
0.0165 -0.0275 4.10520753067
0.0165 -0.0265 4.19958481496
0.0165 -0.0255 4.29370713655
0.0165 -0.0245 4.37993889728
0.0165 -0.0235 4.45151614229
0.0165 -0.0225 4.50409455289
0.0165 -0.0215 4.53767226802
0.0165 -0.0205 4.55543009548
0.0165 -0.0195 4.56323804076
0.0165 -0.0185 4.56814378705
0.0165 -0.0175 4.56946707813
0.0165 -0.0165 4.56065775295
0.0165 -0.0155 4.54400983803
0.0165 -0.0145 4.52433733959
0.0165 -0.0135 4.49941431377