% Model:              Benchmark260518.mph
% Version:            COMSOL 6.2.0.339
% Date:               May 19 2026, 21:20
% Dimension:          2
% Nodes:              4096
% Expressions:        1
% Description:        压力
% Length unit:        m
% x                       y                        p (Pa)
5.0E-4                    -0.0315                  4.009074639710616
5.0E-4                    -0.0305                  4.031941851195373
5.0E-4                    -0.0295                  4.063070117568056
5.0E-4                    -0.0285                  4.09696848125069
5.0E-4                    -0.0275                  4.132458875329885
5.0E-4                    -0.0265                  4.169130103860999
5.0E-4                    -0.0255                  4.2067279892985585
5.0E-4                    -0.0245                  4.245111308969507
5.0E-4                    -0.0235                  4.28417772652643
5.0E-4                    -0.0225                  4.323855401894839
5.0E-4                    -0.0215                  4.364100590212981
5.0E-4                    -0.0205                  4.404918069926195
5.0E-4                    -0.0195                  4.446391251235712
5.0E-4                    -0.0185                  4.48871353184259
5.0E-4                    -0.0175                  4.532213676960237
5.0E-4                    -0.0165                  4.577357180030989
5.0E-4                    -0.0155                  4.624685083240621
5.0E-4                    -0.0145                  4.6747525181704415
5.0E-4                    -0.0135                  4.727922832703607
5.0E-4                    -0.0125                  4.7831259309473015
5.0E-4                    -0.0115                  4.83665377553229
5.0E-4                    -0.0105                  4.883997639297545
5.0E-4                    -0.0095                  4.919536219113889
5.0E-4                    -0.0085                  4.940932721148013
5.0E-4                    -0.0075                  4.952001004078903
5.0E-4                    -0.0065                  4.956395131907165
5.0E-4                    -0.0055                  4.95584649660515
5.0E-4                    -0.0045                  4.95869906457491
5.0E-4                    -0.0035                  4.9748461843520895
5.0E-4                    -0.0025                  4.998973405931207
5.0E-4                    -0.0015                  5.018474550464491
5.0E-4                    -5.0E-4                  5.026912146748463
5.0E-4                    5.0E-4                   5.022488922761823
5.0E-4                    0.0015                   5.005822955424318
5.0E-4                    0.0025                   4.979331241753899
5.0E-4                    0.0035                   4.952199315388052
5.0E-4                    0.0045                   4.938222746803996
5.0E-4                    0.0055                   4.938022987574
5.0E-4                    0.0065                   4.9395010959505825
5.0E-4                    0.0075                   4.935358999490434
5.0E-4                    0.0085                   4.922990795732388
5.0E-4                    0.0095                   4.898528537094003
5.0E-4                    0.0105                   4.862683809424888
5.0E-4                    0.0115                   4.8195192305377095
5.0E-4                    0.0125                   4.772647352782568
5.0E-4                    0.0135                   4.72495511460682
5.0E-4                    0.0145                   4.677381419203427
5.0E-4                    0.0155                   4.62993606053697
5.0E-4                    0.0165                   4.582618805762247
5.0E-4                    0.0175                   4.535432792556358
5.0E-4                    0.0185                   4.488356067205107
5.0E-4                    0.0195                   4.441364974180843
5.0E-4                    0.0205                   4.394447775605023
5.0E-4                    0.0215                   4.347612583017144
5.0E-4                    0.0225                   4.300894550568369
5.0E-4                    0.0235                   4.254355870366961
5.0E-4                    0.0245                   4.2080854430310985
5.0E-4                    0.0255                   4.162206822528048
5.0E-4                    0.0265                   4.116895738419799
5.0E-4                    0.0275                   4.0723956542143185
5.0E-4                    0.0285                   4.029087083971488
5.0E-4                    0.0295                   3.987547652479018
5.0E-4                    0.0305                   3.949321852536174
5.0E-4                    0.0315                   3.921215506979093
0.0015                    -0.0315                  3.9860316574606935
0.0015                    -0.0305                  4.00887518704841
0.0015                    -0.0295                  4.04209626121064
0.0015                    -0.0285                  4.078404754215372
0.0015                    -0.0275                  4.115795780324083
0.0015                    -0.0265                  4.153823192301301
0.0015                    -0.0255                  4.192368396057688
0.0015                    -0.0245                  4.2313862608357695
0.0015                    -0.0235                  4.270840453694511
0.0015                    -0.0225                  4.310668418595727
0.0015                    -0.0215                  4.35077744118843
0.0015                    -0.0205                  4.391070391884207
0.0015                    -0.0195                  4.431506393239921
0.0015                    -0.0185                  4.47218751091336
0.0015                    -0.0175                  4.51346404086723
0.0015                    -0.0165                  4.55603778315279
0.0015                    -0.0155                  4.60102214402059
0.0015                    -0.0145                  4.64984621844431
0.0015                    -0.0135                  4.703693593603601
0.0015                    -0.0125                  4.761989967346107
0.0015                    -0.0115                  4.820549675412073
0.0015                    -0.0105                  4.8734288475218035
0.0015                    -0.0095                  4.913031347853895
0.0015                    -0.0085                  4.937102552612595
0.0015                    -0.0075                  4.9504262873080425
0.0015                    -0.0065                  4.9565224787497435
0.0015                    -0.0055                  4.959284680191606
0.0015                    -0.0045                  4.965907458800829
0.0015                    -0.0035                  4.986532926898013
0.0015                    -0.0025                  5.015622527744969
0.0015                    -0.0015                  5.037791051387137
0.0015                    -5.0E-4                  5.047031615541108
0.0015                    5.0E-4                   5.0411297355798075
0.0015                    0.0015                   5.021085781722759
0.0015                    0.0025                   4.990682886520406
0.0015                    0.0035                   4.95885253322006
0.0015                    0.0045                   4.94293669915285
0.0015                    0.0055                   4.942070543584314
0.0015                    0.0065                   4.941446949225391
0.0015                    0.0075                   4.936595271967499
0.0015                    0.0085                   4.924439765809473
0.0015                    0.0095                   4.900375667089587
0.0015                    0.0105                   4.864324993941011
0.0015                    0.0115                   4.820479886914349
0.0015                    0.0125                   4.772508624324463
0.0015                    0.0135                   4.723622132569287
0.0015                    0.0145                   4.675172054636018
0.0015                    0.0155                   4.627329538032969
0.0015                    0.0165                   4.5798954520703905
0.0015                    0.0175                   4.532640558912086
0.0015                    0.0185                   4.485376528532338
0.0015                    0.0195                   4.437975435524075
0.0015                    0.0205                   4.390371855964183
0.0015                    0.0215                   4.342554957907895
0.0015                    0.0225                   4.294557272656222
0.0015                    0.0235                   4.2464431596337
0.0015                    0.0245                   4.198300898901498
0.0015                    0.0255                   4.150241183213178
0.0015                    0.0265                   4.102401160267258
0.0015                    0.0275                   4.054963114559488
0.0015                    0.0285                   4.008208952665111
0.0015                    0.0295                   3.962827893899978
0.0015                    0.0305                   3.9214002260095566
0.0015                    0.0315                   3.8929620690361
0.0025                    -0.0315                  3.954426219023566
0.0025                    -0.0305                  3.9750648983452814
0.0025                    -0.0295                  4.008126270849791
0.0025                    -0.0285                  4.0462007055309055
0.0025                    -0.0275                  4.085738170177674
0.0025                    -0.0265                  4.125575708045335
0.0025                    -0.0255                  4.165453255489153
0.0025                    -0.0245                  4.205361757554733
0.0025                    -0.0235                  4.245323017585522
0.0025                    -0.0225                  4.285295770361798
0.0025                    -0.0215                  4.325132321895099
0.0025                    -0.0205                  4.3645933626387174
0.0025                    -0.0195                  4.403436543048568
0.0025                    -0.0185                  4.441581388185677
0.0025                    -0.0175                  4.479328138774007
0.0025                    -0.0165                  4.517607341533421
0.0025                    -0.0155                  4.558175985252256
0.0025                    -0.0145                  4.603490871402856
0.0025                    -0.0135                  4.6559372514556205
0.0025                    -0.0125                  4.715904136432213
0.0025                    -0.0115                  4.779351745472776
0.0025                    -0.0105                  4.839355416708763
0.0025                    -0.0095                  4.886909742866095
0.0025                    -0.0085                  4.918482029585103
0.0025                    -0.0075                  4.937497760802475
0.0025                    -0.0065                  4.947917191030765
0.0025                    -0.0055                  4.957130543220689
0.0025                    -0.0045                  4.974192287155544
0.0025                    -0.0035                  5.00158516140611
0.0025                    -0.0025                  5.031935319579871
0.0025                    -0.0015                  5.055213316799838
0.0025                    -5.0E-4                  5.064709006702152
0.0025                    5.0E-4                   5.0575919408212044
0.0025                    0.0015                   5.0352614265396065
0.0025                    0.0025                   5.003599655044863
0.0025                    0.0035                   4.972014275984828
0.0025                    0.0045                   4.952144063665539
0.0025                    0.0055                   4.9456915617341695
0.0025                    0.0065                   4.942040950216899
0.0025                    0.0075                   4.933541473392319
0.0025                    0.0085                   4.918064415785249
0.0025                    0.0095                   4.89294127169792
0.0025                    0.0105                   4.85755963873158
0.0025                    0.0115                   4.814546474067931
0.0025                    0.0125                   4.766988664460192
0.0025                    0.0135                   4.718109011955817
0.0025                    0.0145                   4.669600666110989
0.0025                    0.0155                   4.621873809655053
0.0025                    0.0165                   4.574629245307564
0.0025                    0.0175                   4.527394433048616
0.0025                    0.0185                   4.479782189916046
0.0025                    0.0195                   4.431544149732755
0.0025                    0.0205                   4.382560560630017
0.0025                    0.0215                   4.33281224505492
0.0025                    0.0225                   4.282348511319787
0.0025                    0.0235                   4.231261285817947
0.0025                    0.0245                   4.179669116340429
0.0025                    0.0255                   4.1277112582567215
0.0025                    0.0265                   4.075558589282845
0.0025                    0.0275                   4.023469388079422
0.0025                    0.0285                   3.9720129435800327
0.0025                    0.0295                   3.922834606546347
0.0025                    0.0305                   3.880450543159219
0.0025                    0.0315                   3.8540764091861557
0.0035                    -0.0315                  3.919832174790277
0.0035                    -0.0305                  3.9378765483875378
0.0035                    -0.0295                  3.9687325847040102
0.0035                    -0.0285                  4.006464334986972
0.0035                    -0.0275                  4.046945163203033
0.0035                    -0.0265                  4.088064174469265
0.0035                    -0.0255                  4.129026995349672
0.0035                    -0.0245                  4.1696436657109395
0.0035                    -0.0235                  4.209916626450845
0.0035                    -0.0225                  4.24982971925387
0.0035                    -0.0215                  4.2892294555867885
0.0035                    -0.0205                  4.327785375852077
0.0035                    -0.0195                  4.365062033227175
0.0035                    -0.0185                  4.4007290290167695
0.0035                    -0.0175                  4.434890540551649
0.0035                    -0.0165                  4.468446832926043
0.0035                    -0.0155                  4.503388018683443
0.0035                    -0.0145                  4.542787346375673
0.0035                    -0.0135                  4.589968463931199
0.0035                    -0.0125                  4.646828578642225
0.0035                    -0.0115                  4.711271924272248
0.0035                    -0.0105                  4.7773177108139135
0.0035                    -0.0095                  4.834655236846518
0.0035                    -0.0085                  4.876185739718082
0.0035                    -0.0075                  4.903246058812533
0.0035                    -0.0065                  4.92184359753489
0.0035                    -0.0055                  4.941857490311143
0.0035                    -0.0045                  4.969968102233111
0.0035                    -0.0035                  5.00422999924263
0.0035                    -0.0025                  5.037353354456782
0.0035                    -0.0015                  5.061575067621581
0.0035                    -5.0E-4                  5.071014074379038
0.0035                    5.0E-4                   5.063022520471716
0.0035                    0.0015                   5.03936673836778
0.0035                    0.0025                   5.006536259069613
0.0035                    0.0035                   4.973983342845513
0.0035                    0.0045                   4.9512679156722115
0.0035                    0.0055                   4.940769923108756
0.0035                    0.0065                   4.933760388117756
0.0035                    0.0075                   4.920678246449596
0.0035                    0.0085                   4.899644698726844
0.0035                    0.0095                   4.871819700449389
0.0035                    0.0105                   4.837205417772801
0.0035                    0.0115                   4.796751685919928
0.0035                    0.0125                   4.752376922065712
0.0035                    0.0135                   4.70615591943268
0.0035                    0.0145                   4.659751527277319
0.0035                    0.0155                   4.613562503461978
0.0035                    0.0165                   4.567252032523525
0.0035                    0.0175                   4.520283289409794
0.0035                    0.0185                   4.472194355288934
0.0035                    0.0195                   4.422697930398847
0.0035                    0.0205                   4.371679279151061
0.0035                    0.0215                   4.319155787067869
0.0035                    0.0225                   4.265234615469959
0.0035                    0.0235                   4.210083615833768
0.0035                    0.0245                   4.153918442976546
0.0035                    0.0255                   4.097009893328113
0.0035                    0.0265                   4.039732905366619
0.0035                    0.0275                   3.9827278735197567
0.0035                    0.0285                   3.927334544441464
0.0035                    0.0295                   3.876428293024146
0.0035                    0.0305                   3.835256962360718
0.0035                    0.0315                   3.811257319968079
0.0045                    -0.0315                  3.8836413360989788
0.0045                    -0.0305                  3.899467836983198
0.0045                    -0.0295                  3.9276025304805255
0.0045                    -0.0285                  3.963501830426587
0.0045                    -0.0275                  4.003391748448458
0.0045                    -0.0265                  4.044705425214223
0.0045                    -0.0255                  4.086050277337515
0.0045                    -0.0245                  4.1268603131720125
0.0045                    -0.0235                  4.166997550090186
0.0045                    -0.0225                  4.2064551650505475
0.0045                    -0.0215                  4.245151573555463
0.0045                    -0.0205                  4.282799320763247
0.0045                    -0.0195                  4.318888330562125
0.0045                    -0.0185                  4.352847569903193
0.0045                    -0.0175                  4.3844139990779185
0.0045                    -0.0165                  4.414131717711948
0.0045                    -0.0155                  4.443729681152941
0.0045                    -0.0145                  4.476265107065382
0.0045                    -0.0135                  4.515763206395194
0.0045                    -0.0125                  4.565250738290875
0.0045                    -0.0115                  4.625401454686196
0.0045                    -0.0105                  4.69297670000169
0.0045                    -0.0095                  4.757306580194301
0.0045                    -0.0085                  4.809082319322906
0.0045                    -0.0075                  4.8479990914060105
0.0045                    -0.0065                  4.880827929245156
0.0045                    -0.0055                  4.9162263504492785
0.0045                    -0.0045                  4.956054130991287
0.0045                    -0.0035                  4.99615974184532
0.0045                    -0.0025                  5.030950855388864
0.0045                    -0.0015                  5.054873572083098
0.0045                    -5.0E-4                  5.063165897153663
0.0045                    5.0E-4                   5.053648478739953
0.0045                    0.0015                   5.028675473013117
0.0045                    0.0025                   4.994896006434192
0.0045                    0.0035                   4.9608871072948535
0.0045                    0.0045                   4.9348996091979505
0.0045                    0.0055                   4.920181165535488
0.0045                    0.0065                   4.909931773050572
0.0045                    0.0075                   4.89372877840534
0.0045                    0.0085                   4.8688561327888795
0.0045                    0.0095                   4.838704374664835
0.0045                    0.0105                   4.804571968025633
0.0045                    0.0115                   4.767307171747042
0.0045                    0.0125                   4.7281450343763085
0.0045                    0.0135                   4.687357942092778
0.0045                    0.0145                   4.645519801805273
0.0045                    0.0155                   4.6025803059449695
0.0045                    0.0165                   4.5581537770719205
0.0045                    0.0175                   4.51178359292534
0.0045                    0.0185                   4.463113693102505
0.0045                    0.0195                   4.411962638767694
0.0045                    0.0205                   4.3583184566534845
0.0045                    0.0215                   4.302301719805902
0.0045                    0.0225                   4.244136240806505
0.0045                    0.0235                   4.184136539080516
0.0045                    0.0245                   4.122713430631569
0.0045                    0.0255                   4.060410277270306
0.0045                    0.0265                   3.998008725976162
0.0045                    0.0275                   3.936774316505473
0.0045                    0.0285                   3.8788746629256767
0.0045                    0.0295                   3.8277791004609214
0.0045                    0.0305                   3.788294150699212
0.0045                    0.0315                   3.766164773261683
0.0055                    -0.0315                  3.8463272758593794
0.0055                    -0.0305                  3.860407524400448
0.0055                    -0.0295                  3.885999932625329
0.0055                    -0.0285                  3.9195353259989982
0.0055                    -0.0275                  3.9577895009561335
0.0055                    -0.0265                  3.9982171444039327
0.0055                    -0.0255                  4.039074834481518
0.0055                    -0.0245                  4.0793997463677085
0.0055                    -0.0235                  4.118816336049396
0.0055                    -0.0225                  4.157284068628679
0.0055                    -0.0215                  4.194856126362888
0.0055                    -0.0205                  4.231462997846068
0.0055                    -0.0195                  4.266751735218229
0.0055                    -0.0185                  4.300074219465085
0.0055                    -0.0175                  4.330749297138654
0.0055                    -0.0165                  4.358654136581355
0.0055                    -0.0155                  4.3849404047988765
0.0055                    -0.0145                  4.412296829218182
0.0055                    -0.0135                  4.444619960444703
0.0055                    -0.0125                  4.485496270275045
0.0055                    -0.0115                  4.5384306032526425
0.0055                    -0.0105                  4.602142437744808
0.0055                    -0.0095                  4.667622497371209
0.0055                    -0.0085                  4.727429385873626
0.0055                    -0.0075                  4.78003966766682
0.0055                    -0.0065                  4.829887195569164
0.0055                    -0.0055                  4.881667721592353
0.0055                    -0.0045                  4.933143266586821
0.0055                    -0.0035                  4.979289865046988
0.0055                    -0.0025                  5.015896180574728
0.0055                    -0.0015                  5.039042234055751
0.0055                    -5.0E-4                  5.045228783695558
0.0055                    5.0E-4                   5.033252577076379
0.0055                    0.0015                   5.00672409180269
0.0055                    0.0025                   4.972064736442084
0.0055                    0.0035                   4.935687663696893
0.0055                    0.0045                   4.905008019361953
0.0055                    0.0055                   4.884914579372179
0.0055                    0.0065                   4.871078659702279
0.0055                    0.0075                   4.853496987925857
0.0055                    0.0085                   4.827911462158174
0.0055                    0.0095                   4.7968254470648475
0.0055                    0.0105                   4.7633416063018315
0.0055                    0.0115                   4.729761552325022
0.0055                    0.0125                   4.69673356813936
0.0055                    0.0135                   4.663110635551665
0.0055                    0.0145                   4.627595261089654
0.0055                    0.0155                   4.589302682346027
0.0055                    0.0165                   4.547607025090378
0.0055                    0.0175                   4.502147110082021
0.0055                    0.0185                   4.452806640702628
0.0055                    0.0195                   4.399652244931871
0.0055                    0.0205                   4.342875365851186
0.0055                    0.0215                   4.282776046823086
0.0055                    0.0225                   4.219771710668297
0.0055                    0.0235                   4.154416233710335
0.0055                    0.0245                   4.087430808915107
0.0055                    0.0255                   4.01976779031144
0.0055                    0.0265                   3.9527417410879617
0.0055                    0.0275                   3.8882369483169668
0.0055                    0.0285                   3.8289021263824083
0.0055                    0.0295                   3.778174459159864
0.0055                    0.0305                   3.7401458543012933
0.0055                    0.0315                   3.7193227484744815
0.0065                    -0.0315                  3.8081361714199984
0.0065                    -0.0305                  3.8208463741409044
0.0065                    -0.0295                  3.844262504808786
0.0065                    -0.0285                  3.8754493605891405
0.0065                    -0.0275                  3.9116457206550823
0.0065                    -0.0265                  3.950498851738801
0.0065                    -0.0255                  3.990160460729975
0.0065                    -0.0245                  4.02938466789246
0.0065                    -0.0235                  4.067531544530519
0.0065                    -0.0225                  4.104465491864852
0.0065                    -0.0215                  4.1403782256519435
0.0065                    -0.0205                  4.17555462801628
0.0065                    -0.0195                  4.210091469453988
0.0065                    -0.0185                  4.243625336846313
0.0065                    -0.0175                  4.27527840254896
0.0065                    -0.0165                  4.304168708103645
0.0065                    -0.0155                  4.330464565842194
0.0065                    -0.0145                  4.356344716533092
0.0065                    -0.0135                  4.385140205719962
0.0065                    -0.0125                  4.42025578446611
0.0065                    -0.0115                  4.465741134187509
0.0065                    -0.0105                  4.521367727547274
0.0065                    -0.0095                  4.582316113490364
0.0065                    -0.0085                  4.64390249175405
0.0065                    -0.0075                  4.704385323445402
0.0065                    -0.0065                  4.766514001398977
0.0065                    -0.0055                  4.831230713855225
0.0065                    -0.0045                  4.893831462419051
0.0065                    -0.0035                  4.947966671614225
0.0065                    -0.0025                  4.988717027067214
0.0065                    -0.0015                  5.012720919595174
0.0065                    -5.0E-4                  5.01811350820173
0.0065                    5.0E-4                   5.0051864567790405
0.0065                    0.0015                   4.978116790408713
0.0065                    0.0025                   4.942449487870922
0.0065                    0.0035                   4.90389459474424
0.0065                    0.0045                   4.869269171167784
0.0065                    0.0055                   4.8434250018147
0.0065                    0.0065                   4.824961932173476
0.0065                    0.0075                   4.805867293924887
0.0065                    0.0085                   4.7806425272490864
0.0065                    0.0095                   4.750467445523768
0.0065                    0.0105                   4.719113490547193
0.0065                    0.0115                   4.689689206992283
0.0065                    0.0125                   4.662593568516386
0.0065                    0.0135                   4.636015401042887