% Model:              Benchmark260518.mph
% Version:            COMSOL 6.2.0.339
% Date:               May 20 2026, 10:48
% Dimension:          2
% Nodes:              4096
% Expressions:        1
% Description:        压力
% Length unit:        m
% x                       y                        p (Pa)
% mirrored_by_python_y_to_minus_y, coord_match_decimals=12
0.0005 -0.0315 4.82360962365
0.0005 -0.0305 4.84241222275
0.0005 -0.0295 4.86839092406
0.0005 -0.0285 4.89717619894
0.0005 -0.0275 4.92713221198
0.0005 -0.0265 4.95628866593
0.0005 -0.0255 4.98208741707
0.0005 -0.0245 5.00092052367
0.0005 -0.0235 5.01050903098
0.0005 -0.0225 5.01292248057
0.0005 -0.0215 5.01090898407
0.0005 -0.0205 5.00701187376
0.0005 -0.0195 5.00437307006
0.0005 -0.0185 5.00469910888
0.0005 -0.0175 5.00870935389
0.0005 -0.0165 5.0175348265
0.0005 -0.0155 5.03290514651
0.0005 -0.0145 5.05552785872
0.0005 -0.0135 5.08187611621
0.0005 -0.0125 5.10060045355
0.0005 -0.0115 5.09066879272
0.0005 -0.0105 5.02763013181
0.0005 -0.0095 4.88614354629
0.0005 -0.0085 4.70656328773
0.0005 -0.0075 4.60904408048
0.0005 -0.0065 4.60466399639
0.0005 -0.0055 4.620570358
0.0005 -0.0045 4.64028355258
0.0005 -0.0035 4.66493986453
0.0005 -0.0025 4.69196749988
0.0005 -0.0015 4.7165731358
0.0005 -0.0005 4.7342316557
0.0005 0.0005 4.7428036878
0.0005 0.0015 4.74338520057
0.0005 0.0025 4.73973143801
0.0005 0.0035 4.73650904582
0.0005 0.0045 4.73696712918
0.0005 0.0055 4.74172091241
0.0005 0.0065 4.74918000924
0.0005 0.0075 4.75690747397
0.0005 0.0085 4.76309293278
0.0005 0.0095 4.76712542609
0.0005 0.0105 4.76855592148
0.0005 0.0115 4.76582132639
0.0005 0.0125 4.75482526024
0.0005 0.0135 4.72809611759
0.0005 0.0145 4.68105177604
0.0005 0.0155 4.61691982362
0.0005 0.0165 4.54204753914
0.0005 0.0175 4.46195612627
0.0005 0.0185 4.38044986928
0.0005 0.0195 4.29908747214
0.0005 0.0205 4.21786301843
0.0005 0.0215 4.13664448731
0.0005 0.0225 4.05574067786
0.0005 0.0235 3.97557130519
0.0005 0.0245 3.89649611128
0.0005 0.0255 3.81873201531
0.0005 0.0265 3.7426305226
0.0005 0.0275 3.66877007886
0.0005 0.0285 3.59758478614
0.0005 0.0295 3.52960794827
0.0005 0.0305 3.46708914415
0.0005 0.0315 3.42117684978
0.0015 -0.0315 4.8046183532
0.0015 -0.0305 4.82318545291
0.0015 -0.0295 4.85069899952
0.0015 -0.0285 4.88180045769
0.0015 -0.0275 4.91437548326
0.0015 -0.0265 4.94659883968
0.0015 -0.0255 4.97542070408
0.0015 -0.0245 4.9972499319
0.0015 -0.0235 5.01104000695
0.0015 -0.0225 5.01658613263
0.0015 -0.0215 5.01469644738
0.0015 -0.0205 5.00979914856
0.0015 -0.0195 5.0068010301
0.0015 -0.0185 5.00845717779
0.0015 -0.0175 5.01624114962
0.0015 -0.0165 5.03171780666
0.0015 -0.0155 5.05663592301
0.0015 -0.0145 5.09135621009
0.0015 -0.0135 5.1317167699
0.0015 -0.0125 5.16501455124
0.0015 -0.0115 5.16904772804
0.0015 -0.0105 5.11589912369
0.0015 -0.0095 4.98137023899
0.0015 -0.0085 4.77829473915
0.0015 -0.0075 4.64314978393
0.0015 -0.0065 4.61876826867
0.0015 -0.0055 4.62290074241
0.0015 -0.0045 4.63961367988
0.0015 -0.0035 4.66262938627
0.0015 -0.0025 4.68813549252
0.0015 -0.0015 4.71069852903
0.0015 -0.0005 4.72572154805
0.0015 0.0005 4.7316768951
0.0015 0.0015 4.7304675914
0.0015 0.0025 4.72643626355
0.0015 0.0035 4.72438117552
0.0015 0.0045 4.72730682756
0.0015 0.0055 4.73533922578
0.0015 0.0065 4.74620186595
0.0015 0.0075 4.75662263811
0.0015 0.0085 4.76424117854
0.0015 0.0095 4.76868869107
0.0015 0.0105 4.77018730918
0.0015 0.0115 4.76782141012
0.0015 0.0125 4.75890568587
0.0015 0.0135 4.7370151718
0.0015 0.0145 4.69466276263
0.0015 0.0155 4.63163932927
0.0015 0.0165 4.55415527189
0.0015 0.0175 4.46911989652
0.0015 0.0185 4.38175843053
0.0015 0.0195 4.29445563019
0.0015 0.0205 4.20786475647
0.0015 0.0215 4.12219611398
0.0015 0.0225 4.0377513977
0.0015 0.0235 3.95483679987
0.0015 0.0245 3.8735250783
0.0015 0.0255 3.79368558729
0.0015 0.0265 3.71520612593
0.0015 0.0275 3.63803358249
0.0015 0.0285 3.56224408445
0.0015 0.0295 3.48862963446
0.0015 0.0305 3.42124938506
0.0015 0.0315 3.37497682168
0.0025 -0.0315 4.77837288344
0.0025 -0.0305 4.79467429143
0.0025 -0.0295 4.82143765404
0.0025 -0.0285 4.8537048652
0.0025 -0.0275 4.88861916106
0.0025 -0.0265 4.92420193738
0.0025 -0.0255 4.95680569705
0.0025 -0.0245 4.98341366915
0.0025 -0.0235 5.00259634195
0.0025 -0.0225 5.01154876505
0.0025 -0.0215 5.01062197506
0.0025 -0.0205 5.00582880994
0.0025 -0.0195 5.00393076092
0.0025 -0.0185 5.00894872651
0.0025 -0.0175 5.02320303711
0.0025 -0.0165 5.04847031664
0.0025 -0.0155 5.08607583949
0.0025 -0.0145 5.13553683817
0.0025 -0.0135 5.19130816708
0.0025 -0.0125 5.23981057531
0.0025 -0.0115 5.26053994527
0.0025 -0.0105 5.22847772546
0.0025 -0.0095 5.12671100056
0.0025 -0.0085 4.96164698472
0.0025 -0.0075 4.79708249003
0.0025 -0.0065 4.70296589213
0.0025 -0.0055 4.67120564811
0.0025 -0.0045 4.66835237603
0.0025 -0.0035 4.67873827671
0.0025 -0.0025 4.69236168846
0.0025 -0.0015 4.70284344606
0.0025 -0.0005 4.70641766662
0.0025 0.0005 4.70272679894
0.0025 0.0015 4.6948726297
0.0025 0.0025 4.68757322204
0.0025 0.0035 4.68519773561
0.0025 0.0045 4.69042021563
0.0025 0.0055 4.70336079623
0.0025 0.0065 4.72169130841
0.0025 0.0075 4.74141290073
0.0025 0.0085 4.75797319408
0.0025 0.0095 4.76826843627
0.0025 0.0105 4.77165448574
0.0025 0.0115 4.76836390797
0.0025 0.0125 4.75850878402
0.0025 0.0135 4.73923324428
0.0025 0.0145 4.70207374982
0.0025 0.0155 4.64255733902
0.0025 0.0165 4.56428435933
0.0025 0.0175 4.47391950152
0.0025 0.0185 4.37829139868
0.0025 0.0195 4.28156790577
0.0025 0.0205 4.18601687259
0.0025 0.0215 4.09291076379
0.0025 0.0225 4.00287023657
0.0025 0.0235 3.91586836901
0.0025 0.0245 3.83127600495
0.0025 0.0255 3.74815047789
0.0025 0.0265 3.6656132107
0.0025 0.0275 3.58320382124
0.0025 0.0285 3.50133524428
0.0025 0.0295 3.4224815678
0.0025 0.0305 3.35408095416
0.0025 0.0315 3.31148948413
0.0035 -0.0315 4.74924800275
0.0035 -0.0305 4.76263601721
0.0035 -0.0295 4.78637468231
0.0035 -0.0285 4.81711899415
0.0035 -0.0275 4.85224157351
0.0035 -0.0265 4.88948295803
0.0035 -0.0255 4.92562351517
0.0035 -0.0245 4.95717327555
0.0035 -0.0235 4.98022523134
0.0035 -0.0225 4.99059805236
0.0035 -0.0215 4.99008950234
0.0035 -0.0205 4.98676972709
0.0035 -0.0195 4.98834458684
0.0035 -0.0185 4.99953144558
0.0035 -0.0175 5.02307236946
0.0035 -0.0165 5.06067340651
0.0035 -0.0155 5.1127416052
0.0035 -0.0145 5.17742471276
0.0035 -0.0135 5.24753905912
0.0035 -0.0125 5.3089070959
0.0035 -0.0115 5.34393186877
0.0035 -0.0105 5.33315224141
0.0035 -0.0095 5.26401724523
0.0035 -0.0085 5.14140731419
0.0035 -0.0075 4.99732572367
0.0035 -0.0065 4.87728651438
0.0035 -0.0055 4.80059588269
0.0035 -0.0045 4.75753944981
0.0035 -0.0035 4.73274376789
0.0035 -0.0025 4.71544668067
0.0035 -0.0015 4.69865864527
0.0035 -0.0005 4.67938406582
0.0035 0.0005 4.65866250771
0.0035 0.0015 4.63941477027
0.0035 0.0025 4.6250749527
0.0035 0.0035 4.61889856263
0.0035 0.0045 4.62351492625
0.0035 0.0055 4.63990773721
0.0035 0.0065 4.66623588535
0.0035 0.0075 4.69813579136
0.0035 0.0085 4.72962309668
0.0035 0.0095 4.75385640716
0.0035 0.0105 4.7653736069
0.0035 0.0115 4.76316058133
0.0035 0.0125 4.75062302247
0.0035 0.0135 4.72980719144
0.0035 0.0145 4.69499736463
0.0035 0.0155 4.63942901716
0.0035 0.0165 4.56240492669
0.0035 0.0175 4.46813784597
0.0035 0.0185 4.36392807001
0.0035 0.0195 4.25648697285
0.0035 0.0205 4.15076089181
0.0035 0.0215 4.04972451308
0.0035 0.0225 3.95430554716
0.0035 0.0235 3.86365302267
0.0035 0.0245 3.77588031657
0.0035 0.0255 3.68900989701
0.0035 0.0265 3.60172536993
0.0035 0.0275 3.51389813601
0.0035 0.0285 3.42722930086
0.0035 0.0295 3.34641650299
0.0035 0.0305 3.28040031091
0.0035 0.0315 3.24186481718
0.0045 -0.0315 4.71865663903
0.0045 -0.0305 4.72912688172
0.0045 -0.0295 4.74920697839
0.0045 -0.0285 4.77704036553
0.0045 -0.0275 4.81030340659
0.0045 -0.0265 4.8469197668
0.0045 -0.0255 4.88442665067
0.0045 -0.0245 4.91820105591
0.0045 -0.0235 4.94161839282
0.0045 -0.0225 4.95113716186
0.0045 -0.0215 4.95147209026
0.0045 -0.0205 4.95215162235
0.0045 -0.0195 4.96068730128
0.0045 -0.0185 4.98065320246
0.0045 -0.0175 5.01408395829
0.0045 -0.0165 5.0627853847
0.0045 -0.0155 5.12687007081
0.0045 -0.0145 5.20320515693
0.0045 -0.0135 5.28343531692
0.0045 -0.0125 5.35315269394
0.0045 -0.0115 5.39636597687
0.0045 -0.0105 5.39953945744
0.0045 -0.0095 5.35704378833
0.0045 -0.0085 5.27540003111
0.0045 -0.0075 5.16997058061
0.0045 -0.0065 5.06028507272
0.0045 -0.0055 4.96118772329
0.0045 -0.0045 4.87722709148
0.0045 -0.0035 4.80772277711
0.0045 -0.0025 4.75036812853
0.0045 -0.0015 4.70139131963
0.0045 -0.0005 4.65857053837
0.0045 0.0005 4.62189846001
0.0045 0.0015 4.59193057406
0.0045 0.0025 4.56946717579
0.0045 0.0035 4.55584506888
0.0045 0.0045 4.55325638158
0.0045 0.0055 4.56445027713
0.0045 0.0065 4.59116816983
0.0045 0.0075 4.6309467829
0.0045 0.0085 4.67602136048
0.0045 0.0095 4.71618405633
0.0045 0.0105 4.74129487837
0.0045 0.0115 4.74558544667
0.0045 0.0125 4.73237027483
0.0045 0.0135 4.70844824232
0.0045 0.0145 4.6739479199
0.0045 0.0155 4.62195496233
0.0045 0.0165 4.54640076187
0.0045 0.0175 4.44813240311
0.0045 0.0185 4.33469656919
0.0045 0.0195 4.21623587059
0.0045 0.0205 4.10133734828
0.0045 0.0215 3.99456175993
0.0045 0.0225 3.89617086414
0.0045 0.0235 3.80354854902
0.0045 0.0245 3.71325029705
0.0045 0.0255 3.62262654045
0.0045 0.0265 3.53063171448
0.0045 0.0275 3.43819634843
0.0045 0.0285 3.34859281292
0.0045 0.0295 3.26780423907
0.0045 0.0305 3.2044254013
0.0045 0.0315 3.16871598689
0.0055 -0.0315 4.68775391893
0.0055 -0.0305 4.69567387558
0.0055 -0.0295 4.71270847578
0.0055 -0.0285 4.73784417807
0.0055 -0.0275 4.76861296663
0.0055 -0.0265 4.80295325924
0.0055 -0.0255 4.83843261255
0.0055 -0.0245 4.87043971186
0.0055 -0.0235 4.89220712557
0.0055 -0.0225 4.90197745271
0.0055 -0.0215 4.90719755424
0.0055 -0.0205 4.9167248004
0.0055 -0.0195 4.93491521332
0.0055 -0.0185 4.96302498938
0.0055 -0.0175 5.00297188972
0.0055 -0.0165 5.05764985594
0.0055 -0.0155 5.12771113508
0.0055 -0.0145 5.20893626582
0.0055 -0.0135 5.29195163062
0.0055 -0.0125 5.3627936714
0.0055 -0.0115 5.40659748857
0.0055 -0.0105 5.41449308962
0.0055 -0.0095 5.38832649767
0.0055 -0.0085 5.33734606574
0.0055 -0.0075 5.26773578699
0.0055 -0.0065 5.17951498121
0.0055 -0.0055 5.07526235465
0.0055 -0.0045 4.96621258508
0.0055 -0.0035 4.86538077452
0.0055 -0.0025 4.77934326725
0.0055 -0.0015 4.70911390593
0.0055 -0.0005 4.6528886047
0.0055 0.0005 4.60790262136
0.0055 0.0015 4.57201990109
0.0055 0.0025 4.54406180945
0.0055 0.0035 4.52367518575
0.0055 0.0045 4.51159163521
0.0055 0.0055 4.51047215454
0.0055 0.0065 4.52535232485
0.0055 0.0075 4.55986444803
0.0055 0.0085 4.60961341872
0.0055 0.0095 4.66138002581
0.0055 0.0105 4.69967163522
0.0055 0.0115 4.71375649589
0.0055 0.0125 4.70385547514
0.0055 0.0135 4.67910327991
0.0055 0.0145 4.64478243808
0.0055 0.0155 4.59497556783
0.0055 0.0165 4.51897178187
0.0055 0.0175 4.41377755408
0.0055 0.0185 4.28887662993
0.0055 0.0195 4.15988380425
0.0055 0.0205 4.03913245055
0.0055 0.0215 3.93102038449
0.0055 0.0225 3.83316573368
0.0055 0.0235 3.74039984046
0.0055 0.0245 3.6481440393
0.0055 0.0255 3.55388523445
0.0055 0.0265 3.4575641816
0.0055 0.0275 3.36140078049
0.0055 0.0285 3.26978261841
0.0055 0.0295 3.18904322679
0.0055 0.0305 3.12710880266
0.0055 0.0315 3.09285809742
0.0065 -0.0315 4.65827956147
0.0065 -0.0305 4.66429742832
0.0065 -0.0295 4.67936170782
0.0065 -0.0285 4.70229047454
0.0065 -0.0275 4.73030680897
0.0065 -0.0265 4.76119226548
0.0065 -0.0255 4.79299458055
0.0065 -0.0245 4.8221120707
0.0065 -0.0235 4.84337267353
0.0065 -0.0225 4.85746885935
0.0065 -0.0215 4.871697519
0.0065 -0.0205 4.89144565385
0.0065 -0.0195 4.91765780777
0.0065 -0.0185 4.95059855501
0.0065 -0.0175 4.99287384281
0.0065 -0.0165 5.04883112372
0.0065 -0.0155 5.11942445419
0.0065 -0.0145 5.19906678391
0.0065 -0.0135 5.27767910137
0.0065 -0.0125 5.34231279789
0.0065 -0.0115 5.38008956412
0.0065 -0.0105 5.38639528026
0.0065 -0.0095 5.3678631424
0.0065 -0.0085 5.33434799601
0.0065 -0.0075 5.28784593438
0.0065 -0.0065 5.21842666847
0.0065 -0.0055 5.11971308616
0.0065 -0.0045 5.00449334673
0.0065 -0.0035 4.89306817822
0.0065 -0.0025 4.79715041722
0.0065 -0.0015 4.71932439279
0.0065 -0.0005 4.65763665228
0.0065 0.0005 4.60869469488
0.0065 0.0015 4.5694454992
0.0065 0.0025 4.53813986548
0.0065 0.0035 4.51411727123
0.0065 0.0045 4.49721173414
0.0065 0.0055 4.4879048726
0.0065 0.0065 4.48912750536
0.0065 0.0075 4.50802661003
0.0065 0.0085 4.54948355084
0.0065 0.0095 4.60489260883
0.0065 0.0105 4.65377011697
0.0065 0.0115 4.67831082203
0.0065 0.0125 4.67424800588
0.0065 0.0135 4.65087586613
0.0065 0.0145 4.61604334283
0.0065 0.0155 4.56426309641
0.0065 0.0165 4.48289319866
0.0065 0.0175 4.36612930746
0.0065 0.0185 4.22733934036
0.0065 0.0195 4.09027650918
0.0065 0.0205 3.96933658651
0.0065 0.0215 3.86466888199
0.0065 0.0225 3.76977519259
0.0065 0.0235 3.67768951851
0.0065 0.0245 3.58353612914
0.0065 0.0255 3.485802423
0.0065 0.0265 3.38561269668
0.0065 0.0275 3.2861603538
0.0065 0.0285 3.19237520248
0.0065 0.0295 3.11062144201
0.0065 0.0305 3.04849116653
0.0065 0.0315 3.01431704237
0.0075 -0.0315 4.63272108344
0.0075 -0.0305 4.63752711886
0.0075 -0.0295 4.65098628404
0.0075 -0.0285 4.67135656413
0.0075 -0.0275 4.69588603716
0.0075 -0.0265 4.72291313978
0.0075 -0.0255 4.75168225118
0.0075 -0.0245 4.77930031221
0.0075 -0.0235 4.80248030341
0.0075 -0.0225 4.82296484797
0.0075 -0.0215 4.84471860479
0.0075 -0.0205 4.87026409403
0.0075 -0.0195 4.90067845802
0.0075 -0.0185 4.93573343177
0.0075 -0.0175 4.9767847937
0.0075 -0.0165 5.02827269645
0.0075 -0.0155 5.09151214229
0.0075 -0.0145 5.16080890558
0.0075 -0.0135 5.22687557417
0.0075 -0.0125 5.27965887816
0.0075 -0.0115 5.31029390783
0.0075 -0.0105 5.31642247452
0.0075 -0.0095 5.30353534826
0.0075 -0.0085 5.27991473937
0.0075 -0.0075 5.24788556266
0.0075 -0.0065 5.1955098963
0.0075 -0.0055 5.11183452074
0.0075 -0.0045 5.00686694902
0.0075 -0.0035 4.90072944351
0.0075 -0.0025 4.80626637118
0.0075 -0.0015 4.72739814795
0.0075 -0.0005 4.66331575396
0.0075 0.0005 4.61144746546
0.0075 0.0015 4.56919063576
0.0075 0.0025 4.53497825717
0.0075 0.0035 4.50857457671
0.0075 0.0045 4.49015420649
0.0075 0.0055 4.4788241905
0.0075 0.0065 4.47417043607
0.0075 0.0075 4.48097652124
0.0075 0.0085 4.50918182332
0.0075 0.0095 4.56072283794
0.0075 0.0105 4.61806890346
0.0075 0.0115 4.65560311129
0.0075 0.0125 4.65994092252
0.0075 0.0135 4.63685700229
0.0075 0.0145 4.59630383587
0.0075 0.0155 4.53468066919
0.0075 0.0165 4.43885925228
0.0075 0.0175 4.30467605916
0.0075 0.0185 4.15250058637
0.0075 0.0195 4.01253104848
0.0075 0.0205 3.89728857423
0.0075 0.0215 3.79963115177
0.0075 0.0225 3.70825390689
0.0075 0.0235 3.61628544551
0.0075 0.0245 3.52016660997
0.0075 0.0255 3.41937761887
0.0075 0.0265 3.31580480549
0.0075 0.0275 3.21312933294
0.0075 0.0285 3.11648184984
0.0075 0.0295 3.03228474967
0.0075 0.0305 2.96820668947
0.0075 0.0315 2.93280299428
0.0085 -0.0315 4.61416605949
0.0085 -0.0305 4.61780037321
0.0085 -0.0295 4.62858703069
0.0085 -0.0285 4.64510704768
0.0085 -0.0275 4.66517145713
0.0085 -0.0265 4.68836494671
0.0085 -0.0255 4.71472486233
0.0085 -0.0245 4.74189964249
0.0085 -0.0235 4.7677084869
0.0085 -0.0225 4.79245679339
0.0085 -0.0215 4.8175539298
0.0085 -0.0205 4.84455967773
0.0085 -0.0195 4.87411865541
0.0085 -0.0185 4.90524593895
0.0085 -0.0175 4.93822918207
0.0085 -0.0165 4.97612342941
0.0085 -0.0155 5.02030880855
0.0085 -0.0145 5.06712570222
0.0085 -0.0135 5.10980615675
0.0085 -0.0125 5.14216558519
0.0085 -0.0115 5.1602074939
0.0085 -0.0105 5.16337208644
0.0085 -0.0095 5.1568737649
0.0085 -0.0085 5.14860491906
0.0085 -0.0075 5.13658380519
0.0085 -0.0065 5.10623492551
0.0085 -0.0055 5.04736684129
0.0085 -0.0045 4.96620095447
0.0085 -0.0035 4.8776062901
0.0085 -0.0025 4.79340507005
0.0085 -0.0015 4.7193995411
0.0085 -0.0005 4.65687602534
0.0085 0.0005 4.60482543435
0.0085 0.0015 4.56168315866
0.0085 0.0025 4.52664252315
0.0085 0.0035 4.50008064804
0.0085 0.0045 4.48238176627
0.0085 0.0055 4.47206697203
0.0085 0.0065 4.46684094578
0.0085 0.0075 4.46839929014
0.0085 0.0085 4.4872487392
0.0085 0.0095 4.53367854303
0.0085 0.0105 4.59838688012
0.0085 0.0115 4.65274948415
0.0085 0.0125 4.67154365181
0.0085 0.0135 4.64928830679
0.0085 0.0145 4.59397150299
0.0085 0.0155 4.50887211136
0.0085 0.0165 4.38798196143
0.0085 0.0175 4.23441905005
0.0085 0.0185 4.07439940019
0.0085 0.0195 3.93693113445
0.0085 0.0205 3.82823095769
0.0085 0.0215 3.73587098591
0.0085 0.0225 3.6465675255
0.0085 0.0235 3.55423899827
0.0085 0.0245 3.45672260021
0.0085 0.0255 3.3538139113
0.0085 0.0265 3.24750555676
0.0085 0.0275 3.14156932096
0.0085 0.0285 3.04125247251
0.0085 0.0295 2.95322993767
0.0085 0.0305 2.88570211797
0.0085 0.0315 2.84810473943
0.0095 -0.0315 4.60313842143
0.0095 -0.0305 4.60533279051
0.0095 -0.0295 4.61226215818
0.0095 -0.0285 4.62328846673
0.0095 -0.0275 4.63753928318
0.0095 -0.0265 4.65600876904
0.0095 -0.0255 4.67941590765
0.0095 -0.0245 4.70612109917
0.0095 -0.0235 4.73339249776
0.0095 -0.0225 4.75968555187
0.0095 -0.0215 4.78450878051
0.0095 -0.0205 4.80684552248
0.0095 -0.0195 4.825607522
0.0095 -0.0185 4.84109688232
0.0095 -0.0175 4.85509567549
0.0095 -0.0165 4.8695945677
0.0095 -0.0155 4.88546505811
0.0095 -0.0145 4.90089858151
0.0095 -0.0135 4.91149131222
0.0095 -0.0125 4.91324114371
0.0095 -0.0115 4.90526453997
0.0095 -0.0105 4.89178653385
0.0095 -0.0095 4.88482521932
0.0095 -0.0085 4.8936588588
0.0095 -0.0075 4.91045026705
0.0095 -0.0065 4.91576859253
0.0095 -0.0055 4.89626657975
0.0095 -0.0045 4.85332179384
0.0095 -0.0035 4.79631973648
0.0095 -0.0025 4.73493336467
0.0095 -0.0015 4.67606631121
0.0095 -0.0005 4.62323255784
0.0095 0.0005 4.57751557232
0.0095 0.0015 4.53901859012
0.0095 0.0025 4.50812540141
0.0095 0.0035 4.4856259433
0.0095 0.0045 4.47154137636
0.0095 0.0055 4.46422008401
0.0095 0.0065 4.46093630287
0.0095 0.0075 4.46171417855
0.0095 0.0085 4.47591075874
0.0095 0.0095 4.51899293226
0.0095 0.0105 4.58986400683
0.0095 0.0115 4.66091930759
0.0095 0.0125 4.69817656893
0.0095 0.0135 4.68080028221
0.0095 0.0145 4.60615720029
0.0095 0.0155 4.4844557339
0.0095 0.0165 4.32937686223
0.0095 0.0175 4.15911790677
0.0095 0.0185 3.99927458725
0.0095 0.0195 3.86766753006
0.0095 0.0205 3.76197414784
0.0095 0.0215 3.66959255586
0.0095 0.0225 3.58016690101
0.0095 0.0235 3.48802418591
0.0095 0.0245 3.39056378822
0.0095 0.0255 3.28705899669
0.0095 0.0265 3.17886604813
0.0095 0.0275 3.0695943832
0.0095 0.0285 2.96481527408
0.0095 0.0295 2.87193418343
0.0095 0.0305 2.80018226296
0.0095 0.0315 2.76005845048
0.0105 -0.0315 4.59681699206
0.0105 -0.0305 4.59766406931
0.0105 -0.0295 4.60030065306
0.0105 -0.0285 4.6043069222
0.0105 -0.0275 4.61099952977
0.0105 -0.0265 4.62338023009
0.0105 -0.0255 4.64335306876
0.0105 -0.0245 4.66897280889
0.0105 -0.0235 4.69591783707
0.0105 -0.0225 4.72027751806
0.0105 -0.0215 4.73756204783
0.0105 -0.0205 4.74355133332
0.0105 -0.0195 4.73808555794
0.0105 -0.0185 4.72542944302
0.0105 -0.0175 4.71036028265
0.0105 -0.0165 4.69528836817
0.0105 -0.0155 4.68018980353
0.0105 -0.0145 4.66299845108
0.0105 -0.0135 4.64004969899
0.0105 -0.0125 4.60802602703
0.0105 -0.0115 4.56807667604
0.0105 -0.0105 4.53068801414
0.0105 -0.0095 4.51537760552
0.0105 -0.0085 4.53213534976
0.0105 -0.0075 4.57505036141
0.0105 -0.0065 4.62336403263
0.0105 -0.0055 4.65252157589
0.0105 -0.0045 4.65626174861
0.0105 -0.0035 4.64066001307
0.0105 -0.0025 4.6136296354
0.0105 -0.0015 4.58199215955
0.0105 -0.0005 4.55036048995
0.0105 0.0005 4.52130045994
0.0105 0.0015 4.49631912295
0.0105 0.0025 4.47669143289
0.0105 0.0035 4.46336807293
0.0105 0.0045 4.45622692622
0.0105 0.0055 4.45381457029
0.0105 0.0065 4.45389720161
0.0105 0.0075 4.45610959485
0.0105 0.0085 4.46864747677
0.0105 0.0095 4.50895903944
0.0105 0.0105 4.58079585806
0.0105 0.0115 4.65967687656
0.0105 0.0125 4.70849474293
0.0105 0.0135 4.69678151091
0.0105 0.0145 4.60982056291
0.0105 0.0155 4.45527461474
0.0105 0.0165 4.26446553906
0.0105 0.0175 4.0767797053
0.0105 0.0185 3.91797042726
0.0105 0.0195 3.79203242133
0.0105 0.0205 3.68891356519
0.0105 0.0215 3.59618802331
0.0105 0.0225 3.50612190177
0.0105 0.0235 3.4146889544
0.0105 0.0245 3.31893118006
0.0105 0.0255 3.21648908441
0.0105 0.0265 3.10717704897
0.0105 0.0275 2.99416926467
0.0105 0.0285 2.88400290035
0.0105 0.0295 2.78587070449
0.0105 0.0305 2.7104409937
0.0105 0.0315 2.66873717479
0.0115 -0.0315 4.5922156528
0.0115 -0.0305 4.59140886319
0.0115 -0.0295 4.5888601422
0.0115 -0.0285 4.58471688467
0.0115 -0.0275 4.58328661993
0.0115 -0.0265 4.59001493243
0.0115 -0.0255 4.60658294184
0.0115 -0.0245 4.62937892523
0.0115 -0.0235 4.65210714487
0.0115 -0.0225 4.66614483234
0.0115 -0.0215 4.66245131551
0.0115 -0.0205 4.63769803731
0.0115 -0.0195 4.59690773343
0.0115 -0.0185 4.54910087362
0.0115 -0.0175 4.5014967215
0.0115 -0.0165 4.4568845867
0.0115 -0.0155 4.41411710943
0.0115 -0.0145 4.36986617476
0.0115 -0.0135 4.32023544337
0.0115 -0.0125 4.26280269103
0.0115 -0.0115 4.20077179602
0.0115 -0.0105 4.14935617652
0.0115 -0.0095 4.13025596409
0.0115 -0.0085 4.14975201531
0.0115 -0.0075 4.20335700613
0.0115 -0.0065 4.27583103368
0.0115 -0.0055 4.34141627413
0.0115 -0.0045 4.38752363413
0.0115 -0.0035 4.41483657023
0.0115 -0.0025 4.4285108539
0.0115 -0.0015 4.43397622775
0.0115 -0.0005 4.43522385009
0.0115 0.0005 4.4345848449
0.0115 0.0015 4.43336395311
0.0115 0.0025 4.43260192914
0.0115 0.0035 4.43322894506
0.0115 0.0045 4.43578497605
0.0115 0.0055 4.43963158084
0.0115 0.0065 4.44371769852
0.0115 0.0075 4.44841332075
0.0115 0.0085 4.46052468864
0.0115 0.0095 4.49578834459
0.0115 0.0105 4.55917325233
0.0115 0.0115 4.63085631775
0.0115 0.0125 4.67756827954
0.0115 0.0135 4.67043422881
0.0115 0.0145 4.58442581302
0.0115 0.0155 4.4129713605
0.0115 0.0165 4.19600489153
0.0115 0.0175 3.99264779204
0.0115 0.0185 3.83106768393
0.0115 0.0195 3.7060724463
0.0115 0.0205 3.60434172569
0.0115 0.0215 3.51306882533
0.0115 0.0225 3.42398982857
0.0115 0.0235 3.33390983101
0.0115 0.0245 3.24037898932
0.0115 0.0255 3.1396107625
0.0115 0.0265 3.02900723787
0.0115 0.0275 2.91101523827
0.0115 0.0285 2.79443238348
0.0115 0.0295 2.69171809662
0.0115 0.0305 2.614907805
0.0115 0.0315 2.57389263078
0.0125 -0.0315 4.5861928938
0.0125 -0.0305 4.58280697329
0.0125 -0.0295 4.57408898474
0.0125 -0.0285 4.56186516141
0.0125 -0.0275 4.55411219586
0.0125 -0.0265 4.55753360004
0.0125 -0.0255 4.5706674652
0.0125 -0.0245 4.58683964201
0.0125 -0.0235 4.59621915734
0.0125 -0.0225 4.58506541612
0.0125 -0.0215 4.54460988331
0.0125 -0.0205 4.47847199931
0.0125 -0.0195 4.3985809675
0.0125 -0.0185 4.31691534464
0.0125 -0.0175 4.24062474865
0.0125 -0.0165 4.17141210757
0.0125 -0.0155 4.10721360378
0.0125 -0.0145 4.04431771965
0.0125 -0.0135 3.97940326996
0.0125 -0.0125 3.91207828524
0.0125 -0.0115 3.84807240766
0.0125 -0.0105 3.80237300451
0.0125 -0.0095 3.78895092165
0.0125 -0.0085 3.80697277712
0.0125 -0.0075 3.85358590283
0.0125 -0.0065 3.92354644935
0.0125 -0.0055 4.00171437377
0.0125 -0.0045 4.07502588764
0.0125 -0.0035 4.13809868364
0.0125 -0.0025 4.19196608748
0.0125 -0.0015 4.2394288107
0.0125 -0.0005 4.28229632316
0.0125 0.0005 4.32062218913
0.0125 0.0015 4.35313311508
0.0125 0.0025 4.3785816401
0.0125 0.0035 4.39711522027
0.0125 0.0045 4.41060086954
0.0125 0.0055 4.42068774255
0.0125 0.0065 4.42866526667
0.0125 0.0075 4.43586031757
0.0125 0.0085 4.44680953865
0.0125 0.0095 4.47279038139
0.0125 0.0105 4.51853673792
0.0125 0.0115 4.57154668423
0.0125 0.0125 4.60939207812
0.0125 0.0135 4.60676385966
0.0125 0.0145 4.52776742472
0.0125 0.0155 4.3553034061
0.0125 0.0165 4.12965288067
0.0125 0.0175 3.91537870659
0.0125 0.0185 3.74683834119
0.0125 0.0195 3.61900643543
0.0125 0.0205 3.51512451739
0.0125 0.0215 3.4229713902
0.0125 0.0225 3.3348594888
0.0125 0.0235 3.24661252758
0.0125 0.0245 3.15511482562
0.0125 0.0255 3.05494322631
0.0125 0.0265 2.94050493557
0.0125 0.0275 2.81516652022
0.0125 0.0285 2.69192941241
0.0125 0.0295 2.58662445322
0.0125 0.0305 2.51227060776
0.0125 0.0315 2.47495738124
0.0135 -0.0315 4.57553436685
0.0135 -0.0305 4.56892143025
0.0135 -0.0295 4.55438893615
0.0135 -0.0285 4.5364483315
0.0135 -0.0275 4.52559491284
0.0135 -0.0265 4.52720548695
0.0135 -0.0255 4.53566781083
0.0135 -0.0245 4.53917592074
0.0135 -0.0235 4.52118952736
0.0135 -0.0225 4.46755579304
0.0135 -0.0215 4.37866797267
0.0135 -0.0205 4.26866387368
0.0135 -0.0195 4.15412690811
0.0135 -0.0185 4.04606929004
0.0135 -0.0175 3.94871736095
0.0135 -0.0165 3.86181945143
0.0135 -0.0155 3.78305629274
0.0135 -0.0145 3.70972422436
0.0135 -0.0135 3.64043260105
0.0135 -0.0125 3.57721880072
0.0135 -0.0115 3.52690574342
0.0135 -0.0105 3.49853051524
0.0135 -0.0095 3.49333914053
0.0135 -0.0085 3.50547695675
0.0135 -0.0075 3.53684660684
0.0135 -0.0065 3.59104512159
0.0135 -0.0055 3.66382937432
0.0135 -0.0045 3.74724474936
0.0135 -0.0035 3.83426502404
0.0135 -0.0025 3.92238400772
0.0135 -0.0015 4.01128127725
0.0135 -0.0005 4.09976741751
0.0135 0.0005 4.18428808541
0.0135 0.0015 4.25896588716
0.0135 0.0025 4.31758457136
0.0135 0.0035 4.35772970393
0.0135 0.0045 4.38239483476
0.0135 0.0055 4.39740871208
0.0135 0.0065 4.40815183452
0.0135 0.0075 4.41645718836
0.0135 0.0085 4.42406237995
0.0135 0.0095 4.43762041139
0.0135 0.0105 4.46243639357
0.0135 0.0115 4.49516286865
0.0135 0.0125 4.52423729976
0.0135 0.0135 4.52257507788
0.0135 0.0145 4.44959579257
0.0135 0.0155 4.28864467948
0.0135 0.0165 4.07084994717
0.0135 0.0175 3.85139222242
0.0135 0.0185 3.67087170967
0.0135 0.0195 3.53502307659
0.0135 0.0205 3.4270789292
0.0135 0.0215 3.3316352253
0.0135 0.0225 3.24140863859
0.0135 0.0235 3.15275113268
0.0135 0.0245 3.06171598439
0.0135 0.0255 2.96028811825
0.0135 0.0265 2.83905596506
0.0135 0.0275 2.70421765375
0.0135 0.0285 2.57536546543
0.0135 0.0295 2.47110695355
0.0135 0.0305 2.40351323949
0.0135 0.0315 2.37293166225
0.0145 -0.0315 4.5588145305
0.0145 -0.0305 4.5496708136
0.0145 -0.0295 4.53144064914
0.0145 -0.0285 4.51144501967
0.0145 -0.0275 4.50015014704
0.0145 -0.0265 4.49952624641
0.0145 -0.0255 4.49975469042
0.0145 -0.0245 4.4811720087
0.0145 -0.0235 4.42113692585
0.0145 -0.0225 4.31337801773
0.0145 -0.0215 4.17414726283
0.0145 -0.0205 4.02723626866
0.0145 -0.0195 3.88856735868
0.0145 -0.0185 3.76361120004
0.0145 -0.0175 3.65241166247
0.0145 -0.0165 3.55346214837
0.0145 -0.0155 3.46520759294
0.0145 -0.0145 3.3868668438
0.0145 -0.0135 3.31965524224
0.0145 -0.0125 3.26727195446
0.0145 -0.0115 3.23420382481
0.0145 -0.0105 3.22097043171
0.0145 -0.0095 3.22093268946
0.0145 -0.0085 3.22793031651
0.0145 -0.0075 3.24589988621
0.0145 -0.0065 3.2831304043
0.0145 -0.0055 3.3437737201
0.0145 -0.0045 3.42633976327
0.0145 -0.0035 3.52619579647
0.0145 -0.0025 3.63982049231
0.0145 -0.0015 3.76480840641
0.0145 -0.0005 3.89744147064
0.0145 0.0005 4.03055536905
0.0145 0.0015 4.15277873392
0.0145 0.0025 4.25073252903
0.0145 0.0035 4.31680960495
0.0145 0.0045 4.3534176974
0.0145 0.0055 4.37178059608
0.0145 0.0065 4.38331177054
0.0145 0.0075 4.39050382048
0.0145 0.0085 4.39266468502
0.0145 0.0095 4.39418590214
0.0145 0.0105 4.4028190068
0.0145 0.0115 4.42094143238
0.0145 0.0125 4.44058374348
0.0145 0.0135 4.43482137959
0.0145 0.0145 4.36653679594
0.0145 0.0155 4.22068474089
0.0145 0.0165 4.01803882376
0.0145 0.0175 3.80111968327
0.0145 0.0185 3.60862979955
0.0145 0.0195 3.45738646971
0.0145 0.0205 3.34027511042
0.0145 0.0215 3.24030806698
0.0145 0.0225 3.1459881291
0.0145 0.0235 3.05279409526
0.0145 0.0245 2.95682692581
0.0145 0.0255 2.8494390882
0.0145 0.0265 2.72130056495
0.0145 0.0275 2.58034753256
0.0145 0.0285 2.45060223547
0.0145 0.0295 2.35241729682
0.0145 0.0305 2.29426379756
0.0145 0.0315 2.2716853627
0.0155 -0.0315 4.53736928107
0.0155 -0.0305 4.52751999123
0.0155 -0.0295 4.50876618424
0.0155 -0.0285 4.48966232922
0.0155 -0.0275 4.47897648734
0.0155 -0.0265 4.47493000466
0.0155 -0.0255 4.46229133741
0.0155 -0.0245 4.41118035783
0.0155 -0.0235 4.29847270065
0.0155 -0.0225 4.13555910455
0.0155 -0.0215 3.95683323329
0.0155 -0.0205 3.78809315208
0.0155 -0.0195 3.63671782688
0.0155 -0.0185 3.50162819353
0.0155 -0.0175 3.38063881717
0.0155 -0.0165 3.27226780146
0.0155 -0.0155 3.17596296675
0.0155 -0.0145 3.09339160102
0.0155 -0.0135 3.02832461872
0.0155 -0.0125 2.98467630669
0.0155 -0.0115 2.96307598837
0.0155 -0.0105 2.95798881986
0.0155 -0.0095 2.95999482512
0.0155 -0.0085 2.96391735162
0.0155 -0.0075 2.97344903061
0.0155 -0.0065 2.99837533363
0.0155 -0.0055 3.0485701737
0.0155 -0.0045 3.1279450117
0.0155 -0.0035 3.23456440178
0.0155 -0.0025 3.36530676346
0.0155 -0.0015 3.51752600638
0.0155 -0.0005 3.68710839043
0.0155 0.0005 3.8651070913
0.0155 0.0015 4.03547060505
0.0155 0.0025 4.17676292689
0.0155 0.0035 4.27305247793
0.0155 0.0045 4.32354596872
0.0155 0.0055 4.34500530511
0.0155 0.0065 4.35595878877
0.0155 0.0075 4.36035867345
0.0155 0.0085 4.3567695995
0.0155 0.0095 4.35001728751
0.0155 0.0105 4.35004112798
0.0155 0.0115 4.35989314109
0.0155 0.0125 4.37032591219
0.0155 0.0135 4.35805562563
0.0155 0.0145 4.29227856069
0.0155 0.0155 4.15855570086
0.0155 0.0165 3.97044146388
0.0155 0.0175 3.75941859504
0.0155 0.0185 3.55864997346
0.0155 0.0195 3.38985737341
0.0155 0.0205 3.25675431926
0.0155 0.0215 3.14794752745
0.0155 0.0225 3.0485833853
0.0155 0.0235 2.94913094188
0.0155 0.0245 2.84351993198
0.0155 0.0255 2.7253592403
0.0155 0.0265 2.59186743803
0.0155 0.0275 2.45208612605
0.0155 0.0285 2.32903029669
0.0155 0.0295 2.24172280801
0.0155 0.0305 2.19352356895
0.0155 0.0315 2.17765703321
0.0165 -0.0315 4.51437924548
0.0165 -0.0305 4.50558409745
0.0165 -0.0295 4.48929131018
0.0165 -0.0285 4.47303824803
0.0165 -0.0275 4.46289862865
0.0165 -0.0265 4.45422696178
0.0165 -0.0255 4.42558273958
0.0165 -0.0245 4.33708285104
0.0165 -0.0235 4.17036179759
0.0165 -0.0225 3.96150969204
0.0165 -0.0215 3.76166846608
0.0165 -0.0205 3.58714095073
0.0165 -0.0195 3.43071511417
0.0165 -0.0185 3.28868793829
0.0165 -0.0175 3.15916244
0.0165 -0.0165 3.04075098195
0.0165 -0.0155 2.93442371758
0.0165 -0.0145 2.84436346219
0.0165 -0.0135 2.77577405136