% Model:              Benchmark260518.mph
% Version:            COMSOL 6.2.0.339
% Date:               May 20 2026, 13:12
% Dimension:          2
% Nodes:              4096
% Expressions:        1
% Description:        压力
% Length unit:        m
% x                       y                        p (Pa)
5.0E-4                    -0.0315                  3.8041925929888007
5.0E-4                    -0.0305                  3.829849467817617
5.0E-4                    -0.0295                  3.8648037150198835
5.0E-4                    -0.0285                  3.9028129057624192
5.0E-4                    -0.0275                  3.942582351818913
5.0E-4                    -0.0265                  3.983624250299986
5.0E-4                    -0.0255                  4.025632340851732
5.0E-4                    -0.0245                  4.068447479223266
5.0E-4                    -0.0235                  4.111960645684527
5.0E-4                    -0.0225                  4.156103739660127
5.0E-4                    -0.0215                  4.2008337007259975
5.0E-4                    -0.0205                  4.24612404136265
5.0E-4                    -0.0195                  4.291948325483059
5.0E-4                    -0.0185                  4.338264729234286
5.0E-4                    -0.0175                  4.385019639725441
5.0E-4                    -0.0165                  4.432147546568899
5.0E-4                    -0.0155                  4.4795645541336615
5.0E-4                    -0.0145                  4.527141639450142
5.0E-4                    -0.0135                  4.574715564467601
5.0E-4                    -0.0125                  4.622168632492825
5.0E-4                    -0.0115                  4.669408614730736
5.0E-4                    -0.0105                  4.716385529717018
5.0E-4                    -0.0095                  4.763223719383058
5.0E-4                    -0.0085                  4.809351467900877
5.0E-4                    -0.0075                  4.852260869259027
5.0E-4                    -0.0065                  4.889067842841598
5.0E-4                    -0.0055                  4.916441930731944
5.0E-4                    -0.0045                  4.9368163531609754
5.0E-4                    -0.0035                  4.953194074930271
5.0E-4                    -0.0025                  4.96069726781908
5.0E-4                    -0.0015                  4.959098955006705
5.0E-4                    -5.0E-4                  4.955774457287356
5.0E-4                    5.0E-4                   4.955774451384639
5.0E-4                    0.0015                   4.959098938009324
5.0E-4                    0.0025                   4.96069724203784
5.0E-4                    0.0035                   4.95319404554545
5.0E-4                    0.0045                   4.936816327575936
5.0E-4                    0.0055                   4.9164419139452065
5.0E-4                    0.0065                   4.889067835708908
5.0E-4                    0.0075                   4.8522608709025
5.0E-4                    0.0085                   4.809351477167451
5.0E-4                    0.0095                   4.763223735020004
5.0E-4                    0.0105                   4.716385550706768
5.0E-4                    0.0115                   4.6694086406458535
5.0E-4                    0.0125                   4.622168663218051
5.0E-4                    0.0135                   4.57471559992661
5.0E-4                    0.0145                   4.5271416796726225
5.0E-4                    0.0155                   4.479564599206954
5.0E-4                    0.0165                   4.432147596529474
5.0E-4                    0.0175                   4.385019694607233
5.0E-4                    0.0185                   4.338264789091339
5.0E-4                    0.0195                   4.291948390349131
5.0E-4                    0.0205                   4.246124111245456
5.0E-4                    0.0215                   4.200833775615466
5.0E-4                    0.0225                   4.156103819535515
5.0E-4                    0.0235                   4.11196073052292
5.0E-4                    0.0245                   4.068447568979197
5.0E-4                    0.0255                   4.025632435458763
5.0E-4                    0.0265                   3.9836243496721435
5.0E-4                    0.0275                   3.942582455824096
5.0E-4                    0.0285                   3.90281301421672
5.0E-4                    0.0295                   3.8648038276476884
5.0E-4                    0.0305                   3.8298495842356246
5.0E-4                    0.0315                   3.804192712237099
0.0015                    -0.0315                  3.7783265056327378
0.0015                    -0.0305                  3.8040913994803103
0.0015                    -0.0295                  3.84165517560681
0.0015                    -0.0285                  3.882684748380693
0.0015                    -0.0275                  3.924907512065512
0.0015                    -0.0265                  3.9678083092308976
0.0015                    -0.0255                  4.0112194651324895
0.0015                    -0.0245                  4.055071882686265
0.0015                    -0.0235                  4.099344764841275
0.0015                    -0.0225                  4.144042694627489
0.0015                    -0.0215                  4.189191602290129
0.0015                    -0.0205                  4.234831783330323
0.0015                    -0.0195                  4.281006680459786
0.0015                    -0.0185                  4.3277489544032655
0.0015                    -0.0175                  4.37506806197238
0.0015                    -0.0165                  4.42293966736564
0.0015                    -0.0155                  4.471289269900749
0.0015                    -0.0145                  4.5199842600062645
0.0015                    -0.0135                  4.5688539783355
0.0015                    -0.0125                  4.617730664174465
0.0015                    -0.0115                  4.6664961415812165
0.0015                    -0.0105                  4.7151076934831675
0.0015                    -0.0095                  4.7633672667133204
0.0015                    -0.0085                  4.8101664877261285
0.0015                    -0.0075                  4.85264310414106
0.0015                    -0.0065                  4.887683003472259
0.0015                    -0.0055                  4.9123606292071615
0.0015                    -0.0045                  4.926692453022833
0.0015                    -0.0035                  4.9350570287974715
0.0015                    -0.0025                  4.937639440702081
0.0015                    -0.0015                  4.935093942389171
0.0015                    -5.0E-4                  4.932834689674133
0.0015                    5.0E-4                   4.932834686869112
0.0015                    0.0015                   4.9350939336288775
0.0015                    0.0025                   4.937639425847369
0.0015                    0.0035                   4.935057009918971
0.0015                    0.0045                   4.92669243567881
0.0015                    0.0055                   4.9123606188491316
0.0015                    0.0065                   4.887683002315429
0.0015                    0.0075                   4.852643111801163
0.0015                    0.0085                   4.810166502182368
0.0015                    0.0095                   4.763367286084199
0.0015                    0.0105                   4.715107716882898
0.0015                    0.0115                   4.666496168889671
0.0015                    0.0125                   4.6177306955833
0.0015                    0.0135                   4.568854014097817
0.0015                    0.0145                   4.519984300351461
0.0015                    0.0155                   4.471289315012128
0.0015                    0.0165                   4.422939717373009
0.0015                    0.0175                   4.375068116965967
0.0015                    0.0185                   4.327749014449623
0.0015                    0.0195                   4.28100674560287
0.0015                    0.0205                   4.234831853591208
0.0015                    0.0215                   4.1891916776727145
0.0015                    0.0225                   4.144042775128201
0.0015                    0.0235                   4.099344850447951
0.0015                    0.0245                   4.05507197337538
0.0015                    0.0255                   4.011219560867888
0.0015                    0.0265                   3.9678084099573177
0.0015                    0.0275                   3.924907617704186
0.0015                    0.0285                   3.882684858821226
0.0015                    0.0295                   3.841655290687536
0.0015                    0.0305                   3.8040915188664277
0.0015                    0.0315                   3.77832662802984
0.0025                    -0.0315                  3.74289573031264
0.0025                    -0.0305                  3.766267007870845
0.0025                    -0.0295                  3.803984730392361
0.0025                    -0.0285                  3.8475191224382765
0.0025                    -0.0275                  3.892769690498703
0.0025                    -0.0265                  3.9383830623852654
0.0025                    -0.0255                  3.984010832606148
0.0025                    -0.0245                  4.029595021996619
0.0025                    -0.0235                  4.075176295018644
0.0025                    -0.0225                  4.120843996974227
0.0025                    -0.0215                  4.166719871686082
0.0025                    -0.0205                  4.212950567290768
0.0025                    -0.0195                  4.259696949881356
0.0025                    -0.0185                  4.307116588950179
0.0025                    -0.0175                  4.355337574543802
0.0025                    -0.0165                  4.404426310677165
0.0025                    -0.0155                  4.454358603920265
0.0025                    -0.0145                  4.505007332942867
0.0025                    -0.0135                  4.556154271267449
0.0025                    -0.0125                  4.607525525565538
0.0025                    -0.0115                  4.658828278427949
0.0025                    -0.0105                  4.709662262126228
0.0025                    -0.0095                  4.7591658819196665
0.0025                    -0.0085                  4.805477308266556
0.0025                    -0.0075                  4.845557037229156
0.0025                    -0.0065                  4.876564719339693
0.0025                    -0.0055                  4.896738657458896
0.0025                    -0.0045                  4.907559987749165
0.0025                    -0.0035                  4.912185075366028
0.0025                    -0.0025                  4.911602520870135
0.0025                    -0.0015                  4.908696597572327
0.0025                    -5.0E-4                  4.907323716397141
0.0025                    5.0E-4                   4.907323717828351
0.0025                    0.0015                   4.908696600806439
0.0025                    0.0025                   4.911602524235631
0.0025                    0.0035                   4.912185077438275
0.0025                    0.0045                   4.907559989088474
0.0025                    0.0055                   4.896738661901001
0.0025                    0.0065                   4.87656472997333
0.0025                    0.0075                   4.845557054399627
0.0025                    0.0085                   4.805477330230732
0.0025                    0.0095                   4.759165906630672
0.0025                    0.0105                   4.709662289033513
0.0025                    0.0115                   4.658828307858852
0.0025                    0.0125                   4.607525558159041
0.0025                    0.0135                   4.556154307664772
0.0025                    0.0145                   4.5050073736551495
0.0025                    0.0155                   4.4543586493128995
0.0025                    0.0165                   4.404426361001737
0.0025                    0.0175                   4.355337629965771
0.0025                    0.0185                   4.3071166495742865
0.0025                    0.0195                   4.259697015774946
0.0025                    0.0205                   4.212950638497404
0.0025                    0.0215                   4.16671994823527
0.0025                    0.0225                   4.1208440788873375
0.0025                    0.0235                   4.07517638231259
0.0025                    0.0245                   4.029595114685427
0.0025                    0.0255                   3.984010930697833
0.0025                    0.0265                   3.9383831658788466
0.0025                    0.0275                   3.8927697993796646
0.0025                    0.0285                   3.847519236662687
0.0025                    0.0295                   3.80398484980261
0.0025                    0.0305                   3.766267131813808
0.0025                    0.0315                   3.742895857010166
0.0035                    -0.0315                  3.7043329631022974
0.0035                    -0.0305                  3.724828428800335
0.0035                    -0.0295                  3.7603320930882917
0.0035                    -0.0285                  3.8040191833104444
0.0035                    -0.0275                  3.851088235807209
0.0035                    -0.0265                  3.899072245435059
0.0035                    -0.0255                  3.946984035752897
0.0035                    -0.0245                  3.9945217973394884
0.0035                    -0.0235                  4.041664735590442
0.0035                    -0.0225                  4.0885246177658585
0.0035                    -0.0215                  4.135293322644287
0.0035                    -0.0205                  4.182220237363507
0.0035                    -0.0195                  4.229594782237652
0.0035                    -0.0185                  4.27772148577201
0.0035                    -0.0175                  4.326881716501678
0.0035                    -0.0165                  4.3772830009896415
0.0035                    -0.0155                  4.429005461918282
0.0035                    -0.0145                  4.481958133799342
0.0035                    -0.0135                  4.535857581270884
0.0035                    -0.0125                  4.590227658849482
0.0035                    -0.0115                  4.644373431701273
0.0035                    -0.0105                  4.697248419662088
0.0035                    -0.0095                  4.747181450165093
0.0035                    -0.0085                  4.791632312369232
0.0035                    -0.0075                  4.827629758966067
0.0035                    -0.0065                  4.853323777296097
0.0035                    -0.0055                  4.868737606648105
0.0035                    -0.0045                  4.876109490133384
0.0035                    -0.0035                  4.878769074346806
0.0035                    -0.0025                  4.879184853037431
0.0035                    -0.0015                  4.879571247709411
0.0035                    -5.0E-4                  4.880789602020443
0.0035                    5.0E-4                   4.880789608139023
0.0035                    0.0015                   4.879571263947486
0.0035                    0.0025                   4.8791848749813695
0.0035                    0.0035                   4.8787690975865425
0.0035                    0.0045                   4.876109512755426
0.0035                    0.0055                   4.868737630039112
0.0035                    0.0065                   4.853323802529359
0.0035                    0.0075                   4.827629786235764
0.0035                    0.0085                   4.791632341258213
0.0035                    0.0095                   4.747181479680834
0.0035                    0.0105                   4.697248449813684
0.0035                    0.0115                   4.644373463265276
0.0035                    0.0125                   4.590227692834013
0.0035                    0.0135                   4.535857618610616
0.0035                    0.0145                   4.481958175238192
0.0035                    0.0155                   4.4290055079953525
0.0035                    0.0165                   4.377283052072052
0.0035                    0.0175                   4.326881772830074
0.0035                    0.0185                   4.277721547501319
0.0035                    0.0195                   4.229594849469768
0.0035                    0.0205                   4.182220310171555
0.0035                    0.0215                   4.135293401087503
0.0035                    0.0225                   4.088524701898066
0.0035                    0.0235                   4.04166482546506
0.0035                    0.0245                   3.994521893009707
0.0035                    0.0255                   3.9469841372675907
0.0035                    0.0265                   3.89907235282973
0.0035                    0.0275                   3.8510883490818424
0.0035                    0.0285                   3.8040193023636095
0.0035                    0.0295                   3.760332217528703
0.0035                    0.0305                   3.7248285575754907
0.0035                    0.0315                   3.7043330942326986
0.0045                    -0.0315                  3.6640481194038186
0.0045                    -0.0305                  3.6821439166671075
0.0045                    -0.0295                  3.7148105573703885
0.0045                    -0.0285                  3.7569230678974925
0.0045                    -0.0275                  3.804101942676932
0.0045                    -0.0265                  3.853360069821551
0.0045                    -0.0255                  3.9030186533498954
0.0045                    -0.0245                  3.9523140490617124
0.0045                    -0.0235                  4.000997118720881
0.0045                    -0.0225                  4.049094638274729
0.0045                    -0.0215                  4.096799548965256
0.0045                    -0.0205                  4.1444205308998345
0.0045                    -0.0195                  4.192350269746342
0.0045                    -0.0185                  4.241031487055088
0.0045                    -0.0175                  4.290909479236387
0.0045                    -0.0165                  4.342366475077621
0.0045                    -0.0155                  4.39563849390306
0.0045                    -0.0145                  4.450723372045168
0.0045                    -0.0135                  4.5072935673700645
0.0045                    -0.0125                  4.564617358105936
0.0045                    -0.0115                  4.621481644308179
0.0045                    -0.0105                  4.676106861304771
0.0045                    -0.0095                  4.72606501429147
0.0045                    -0.0085                  4.768406054573774
0.0045                    -0.0075                  4.800386971389048
0.0045                    -0.0065                  4.821136440606736
0.0045                    -0.0055                  4.832634183864088
0.0045                    -0.0045                  4.838333488402772
0.0045                    -0.0035                  4.841322878598226
0.0045                    -0.0025                  4.844817924100403
0.0045                    -0.0015                  4.850891877883026
0.0045                    -5.0E-4                  4.856956695233867
0.0045                    5.0E-4                   4.856956705306251
0.0045                    0.0015                   4.850891904200846
0.0045                    0.0025                   4.844817958446094
0.0045                    0.0035                   4.841322914642337
0.0045                    0.0045                   4.8383335241681396
0.0045                    0.0055                   4.832634219615599
0.0045                    0.0065                   4.821136476030184
0.0045                    0.0075                   4.8003870058241365
0.0045                    0.0085                   4.76840608792515
0.0045                    0.0095                   4.726065046794686
0.0045                    0.0105                   4.67610689365301
0.0045                    0.0115                   4.621481677580892
0.0045                    0.0125                   4.564617393485713
0.0045                    0.0135                   4.507293605924669
0.0045                    0.0145                   4.450723414635065
0.0045                    0.0155                   4.395638541169017
0.0045                    0.0165                   4.3423665274692365
0.0045                    0.0175                   4.290909537057203
0.0045                    0.0185                   4.2410315505080876
0.0045                    0.0195                   4.192350338971882
0.0045                    0.0205                   4.144420606004262
0.0045                    0.0215                   4.09679963004006
0.0045                    0.0225                   4.049094725407198
0.0045                    0.0235                   4.000997211997091
0.0045                    0.0245                   3.952314148562742
0.0045                    0.0255                   3.903018759140278
0.0045                    0.0265                   3.8533601819246126
0.0045                    0.0275                   3.8041020610215597
0.0045                    0.0285                   3.756923192206256
0.0045                    0.0295                   3.7148106869737285
0.0045                    0.0305                   3.682144050261511
0.0045                    0.0315                   3.6640482550291256
0.0055                    -0.0315                  3.6225022932185578
0.0055                    -0.0305                  3.6387319387657886
0.0055                    -0.0295                  3.6687381770128615
0.0055                    -0.0285                  3.708594907473402
0.0055                    -0.0275                  3.754634560756713
0.0055                    -0.0265                  3.803947393074778
0.0055                    -0.0255                  3.85448894250145
0.0055                    -0.0245                  3.9050424638949672
0.0055                    -0.0235                  3.9550206367193024
0.0055                    -0.0225                  4.004252279780889
0.0055                    -0.0215                  4.052839188770613
0.0055                    -0.0205                  4.101076558087613
0.0055                    -0.0195                  4.149404289776001
0.0055                    -0.0185                  4.1983639359013365
0.0055                    -0.0175                  4.248544991786018
0.0055                    -0.0165                  4.300509063066242
0.0055                    -0.0155                  4.3546833452970715
0.0055                    -0.0145                  4.411219077272165
0.0055                    -0.0135                  4.469822858446867
0.0055                    -0.0125                  4.5295893668406615
0.0055                    -0.0115                  4.58887185857575
0.0055                    -0.0105                  4.645249510169926
0.0055                    -0.0095                  4.695700681400362
0.0055                    -0.0085                  4.737102096320278
0.0055                    -0.0075                  4.767153658028664
0.0055                    -0.0065                  4.786062114197046
0.0055                    -0.0055                  4.796562831052349
0.0055                    -0.0045                  4.802344356310629
0.0055                    -0.0035                  4.806803864301248
0.0055                    -0.0025                  4.814594823648943
0.0055                    -0.0015                  4.828393343811606
0.0055                    -5.0E-4                  4.841769127802972
0.0055                    5.0E-4                   4.84176914100069
0.0055                    0.0015                   4.828393376266208
0.0055                    0.0025                   4.8145948625416075
0.0055                    0.0035                   4.806803903018361
0.0055                    0.0045                   4.8023443945307145
0.0055                    0.0055                   4.796562869421132
0.0055                    0.0065                   4.7860621519827475
0.0055                    0.0075                   4.767153694166765
0.0055                    0.0085                   4.7371021306926275
0.0055                    0.0095                   4.69570071468545
0.0055                    0.0105                   4.645249543438361
0.0055                    0.0115                   4.588871892992781
0.0055                    0.0125                   4.529589403553898
0.0055                    0.0135                   4.469822898484712
0.0055                    0.0145                   4.411219121482727
0.0055                    0.0155                   4.3546833943356305
0.0055                    0.0165                   4.300509117413752
0.0055                    0.0175                   4.248545051783336
0.0055                    0.0185                   4.198364001788363
0.0055                    0.0195                   4.149404361727965
0.0055                    0.0205                   4.101076636243856
0.0055                    0.0215                   4.052839273253905
0.0055                    0.0225                   4.004252370706252
0.0055                    0.0235                   3.9550207341923627
0.0055                    0.0245                   3.905042568000072
0.0055                    0.0255                   3.8544890532776255
0.0055                    0.0265                   3.8039475104727227
0.0055                    0.0275                   3.7546346845654166
0.0055                    0.0285                   3.708595037213191
0.0055                    0.0295                   3.668738311809437
0.0055                    0.0305                   3.6387320772237204
0.0055                    0.0315                   3.622502433502016
0.0065                    -0.0315                  3.5799773578054634
0.0065                    -0.0305                  3.594720698112842
0.0065                    -0.0295                  3.6224089059103837
0.0065                    -0.0285                  3.659912637623819
0.0065                    -0.0275                  3.704189052239784
0.0065                    -0.0265                  3.7526468672132056
0.0065                    -0.0255                  3.8032080580468737
0.0065                    -0.0245                  3.8543867320736136
0.0065                    -0.0235                  3.9052723932733535
0.0065                    -0.0225                  3.955428509775028
0.0065                    -0.0215                  4.004777727029486
0.0065                    -0.0205                  4.053515491579407
0.0065                    -0.0195                  4.1020510170242925
0.0065                    -0.0185                  4.150958159951644
0.0065                    -0.0175                  4.200918747872935
0.0065                    -0.0165                  4.252643215388435
0.0065                    -0.0155                  4.306753775740262
0.0065                    -0.0145                  4.363615771693202
0.0065                    -0.0135                  4.423111122224091
0.0065                    -0.0125                  4.4843843997783885
0.0065                    -0.0115                  4.545647273198572
0.0065                    -0.0105                  4.604126783138447
0.0065                    -0.0095                  4.656363773667497
0.0065                    -0.0085                  4.699127240512052
0.0065                    -0.0075                  4.730629428733604
0.0065                    -0.0065                  4.751792807605617
0.0065                    -0.0055                  4.764794331211253
0.0065                    -0.0045                  4.772543077731617
0.0065                    -0.0035                  4.779542742430071
0.0065                    -0.0025                  4.793642851903826
0.0065                    -0.0015                  4.819044844421498
0.0065                    -5.0E-4                  4.842480191215177
0.0065                    5.0E-4                   4.842480207037844
0.0065                    0.0015                   4.8190448806746
0.0065                    0.0025                   4.793642890718145
0.0065                    0.0035                   4.77954277772658
0.0065                    0.0045                   4.772543111639422
0.0065                    0.0055                   4.764794365232273
0.0065                    0.0065                   4.751792841214812
0.0065                    0.0075                   4.730629461454354
0.0065                    0.0085                   4.6991272725958915
0.0065                    0.0095                   4.656363805797339
0.0065                    0.0105                   4.604126816249542
0.0065                    0.0115                   4.545647308292846
0.0065                    0.0125                   4.484384437806795