% Model:              Benchmark260518.mph
% Version:            COMSOL 6.2.0.339
% Date:               May 19 2026, 16:25
% Dimension:          2
% Nodes:              4096
% Expressions:        1
% Description:        压力
% Length unit:        m
% x                       y                        p (Pa)
5.0E-4                    -0.0315                  3.5588946534416053
5.0E-4                    -0.0305                  3.57441246381531
5.0E-4                    -0.0295                  3.5956094785498682
5.0E-4                    -0.0285                  3.6186449693103
5.0E-4                    -0.0275                  3.6427422229794106
5.0E-4                    -0.0265                  3.667633398271735
5.0E-4                    -0.0255                  3.6931324072400993
5.0E-4                    -0.0245                  3.719136524884958
5.0E-4                    -0.0235                  3.745579388098845
5.0E-4                    -0.0225                  3.7724109458714525
5.0E-4                    -0.0215                  3.7995969703773476
5.0E-4                    -0.0205                  3.827113649942193
5.0E-4                    -0.0195                  3.8549414761963945
5.0E-4                    -0.0185                  3.8830661083340585
5.0E-4                    -0.0175                  3.9114771873472174
5.0E-4                    -0.0165                  3.940167462312689
5.0E-4                    -0.0155                  3.9691327769456985
5.0E-4                    -0.0145                  3.9983714998916384
5.0E-4                    -0.0135                  4.027886005929412
5.0E-4                    -0.0125                  4.057686639525365
5.0E-4                    -0.0115                  4.087791365397769
5.0E-4                    -0.0105                  4.118227217166889
5.0E-4                    -0.0095                  4.149035508514729
5.0E-4                    -0.0085                  4.180274917576277
5.0E-4                    -0.0075                  4.212019190677681
5.0E-4                    -0.0065                  4.244364023512874
5.0E-4                    -0.0055                  4.277456463807066
5.0E-4                    -0.0045                  4.311472711213761
5.0E-4                    -0.0035                  4.346628660444027
5.0E-4                    -0.0025                  4.383205929388717
5.0E-4                    -0.0015                  4.4215690655670645
5.0E-4                    -5.0E-4                  4.462186769126943
5.0E-4                    5.0E-4                   4.50551857338356
5.0E-4                    0.0015                   4.551881330363967
5.0E-4                    0.0025                   4.601098329622779
5.0E-4                    0.0035                   4.6511930300637765
5.0E-4                    0.0045                   4.697958273050763
5.0E-4                    0.0055                   4.737177739524068
5.0E-4                    0.0065                   4.76471833959722
5.0E-4                    0.0075                   4.77963648493906
5.0E-4                    0.0085                   4.785822524963961
5.0E-4                    0.0095                   4.786733762026831
5.0E-4                    0.0105                   4.784110637877803
5.0E-4                    0.0115                   4.779078186764885
5.0E-4                    0.0125                   4.772301289404217
5.0E-4                    0.0135                   4.7633754085238245
5.0E-4                    0.0145                   4.751975074644101
5.0E-4                    0.0155                   4.7635416670950725
5.0E-4                    0.0165                   4.824792524235632
5.0E-4                    0.0175                   4.899938864800503
5.0E-4                    0.0185                   4.947229760160198
5.0E-4                    0.0195                   4.971500167282295
5.0E-4                    0.0205                   4.985770258680294
5.0E-4                    0.0215                   4.995073111557243
5.0E-4                    0.0225                   5.000200336019173
5.0E-4                    0.0235                   5.000369381390995
5.0E-4                    0.0245                   4.996513829133375
5.0E-4                    0.0255                   4.990560860645791
5.0E-4                    0.0265                   4.983238731447992
5.0E-4                    0.0275                   4.974972642465266
5.0E-4                    0.0285                   4.966567278501051
5.0E-4                    0.0295                   4.959036058303304
5.0E-4                    0.0305                   4.94738796101023
5.0E-4                    0.0315                   4.930953437327913
0.0015                    -0.0315                  3.543312736252414
0.0015                    -0.0305                  3.5588417896673215
0.0015                    -0.0295                  3.5815662647326523
0.0015                    -0.0285                  3.6063877499490706
0.0015                    -0.0275                  3.6319304773549432
0.0015                    -0.0265                  3.65790753396673
0.0015                    -0.0255                  3.684236497227662
0.0015                    -0.0245                  3.71087625682656
0.0015                    -0.0235                  3.737807419397098
0.0015                    -0.0225                  3.765017393103351
0.0015                    -0.0215                  3.7924962687573953
0.0015                    -0.0205                  3.820236575987598
0.0015                    -0.0195                  3.8482314053303663
0.0015                    -0.0185                  3.8764734239312832
0.0015                    -0.0175                  3.9049551713207444
0.0015                    -0.0165                  3.933668553141317
0.0015                    -0.0155                  3.9626044732732626
0.0015                    -0.0145                  3.9917526407444033
0.0015                    -0.0135                  4.021102319200322
0.0015                    -0.0125                  4.050643656532095
0.0015                    -0.0115                  4.080369737732856
0.0015                    -0.0105                  4.1102788053050325
0.0015                    -0.0095                  4.140378562491284
0.0015                    -0.0085                  4.17068997661588
0.0015                    -0.0075                  4.201251956369211
0.0015                    -0.0065                  4.23212889328745
0.0015                    -0.0055                  4.263420579322488
0.0015                    -0.0045                  4.2952770840644545
0.0015                    -0.0035                  4.327908558787101
0.0015                    -0.0025                  4.361638222172132
0.0015                    -0.0015                  4.39697420813631
0.0015                    -5.0E-4                  4.434728432376664
0.0015                    5.0E-4                   4.476087140154627
0.0015                    0.0015                   4.522422150026514
0.0015                    0.0025                   4.574488903807534
0.0015                    0.0035                   4.630648658030835
0.0015                    0.0045                   4.685429461938503
0.0015                    0.0055                   4.7319128240149615
0.0015                    0.0065                   4.763538711865033
0.0015                    0.0075                   4.780048172557018
0.0015                    0.0085                   4.78710580042601
0.0015                    0.0095                   4.788113721791852
0.0015                    0.0105                   4.785157915364344
0.0015                    0.0115                   4.780144923559931
0.0015                    0.0125                   4.7740852042252975
0.0015                    0.0135                   4.768024377755643
0.0015                    0.0145                   4.765725299221418
0.0015                    0.0155                   4.777970940482361
0.0015                    0.0165                   4.832555667071084
0.0015                    0.0175                   4.901021889611942
0.0015                    0.0185                   4.938656835351717
0.0015                    0.0195                   4.956753586442758
0.0015                    0.0205                   4.966860291643315
0.0015                    0.0215                   4.974251102928489
0.0015                    0.0225                   4.979717233366527
0.0015                    0.0235                   4.98116960989995
0.0015                    0.0245                   4.9754235827748605
0.0015                    0.0255                   4.9614082291336254
0.0015                    0.0265                   4.941088241326369
0.0015                    0.0275                   4.917603143017975
0.0015                    0.0285                   4.893757874796977
0.0015                    0.0295                   4.869857501187021
0.0015                    0.0305                   4.847579302959993
0.0015                    0.0315                   4.836149613318577
0.0025                    -0.0315                  3.521988848099316
0.0025                    -0.0305                  3.535976026620898
0.0025                    -0.0295                  3.5586783723717756
0.0025                    -0.0285                  3.584912068331178
0.0025                    -0.0275                  3.612194729897446
0.0025                    -0.0265                  3.6397392685509478
0.0025                    -0.0255                  3.6673636342918967
0.0025                    -0.0245                  3.6950473963504047
0.0025                    -0.0235                  3.7228080498781204
0.0025                    -0.0225                  3.75067161111426
0.0025                    -0.0215                  3.7786614344903473
0.0025                    -0.0205                  3.806794838684416
0.0025                    -0.0195                  3.8350827728687342
0.0025                    -0.0185                  3.8635293033641833
0.0025                    -0.0175                  3.8921313920247345
0.0025                    -0.0165                  3.920878884150601
0.0025                    -0.0155                  3.9497539801080057
0.0025                    -0.0145                  3.9787306968568066
0.0025                    -0.0135                  4.007774304652459
0.0025                    -0.0125                  4.036841356194022
0.0025                    -0.0115                  4.0658812456648095
0.0025                    -0.0105                  4.094839857451301
0.0025                    -0.0095                  4.123664656834804
0.0025                    -0.0085                  4.152312125050685
0.0025                    -0.0075                  4.180757072101455
0.0025                    -0.0065                  4.209003107744923
0.0025                    -0.0055                  4.237095253620063
0.0025                    -0.0045                  4.265142395215523
0.0025                    -0.0035                  4.293361449821276
0.0025                    -0.0025                  4.32215107938978
0.0025                    -0.0015                  4.352232212324012
0.0025                    -5.0E-4                  4.384849384217189
0.0025                    5.0E-4                   4.421984889122366
0.0025                    0.0015                   4.466270227413433
0.0025                    0.0025                   4.519958105745825
0.0025                    0.0035                   4.582489139139866
0.0025                    0.0045                   4.647780204064767
0.0025                    0.0055                   4.706556986435444
0.0025                    0.0065                   4.7491757122916045
0.0025                    0.0075                   4.774109521610235
0.0025                    0.0085                   4.786690648300167
0.0025                    0.0095                   4.789675108782741
0.0025                    0.0105                   4.786729829571777
0.0025                    0.0115                   4.782593464163789
0.0025                    0.0125                   4.780219319996116
0.0025                    0.0135                   4.782657529143812
0.0025                    0.0145                   4.795483175996633
0.0025                    0.0155                   4.827098143913142
0.0025                    0.0165                   4.873068846498059
0.0025                    0.0175                   4.912688325125268
0.0025                    0.0185                   4.935733356450641
0.0025                    0.0195                   4.9474770800003975
0.0025                    0.0205                   4.954693768987971
0.0025                    0.0215                   4.96035322517377
0.0025                    0.0225                   4.963825826358598
0.0025                    0.0235                   4.961831998593516
0.0025                    0.0245                   4.9498738873717025
0.0025                    0.0255                   4.925962973990667
0.0025                    0.0265                   4.892719742978279
0.0025                    0.0275                   4.855177172119365
0.0025                    0.0285                   4.817553801434
0.0025                    0.0295                   4.783560949563809
0.0025                    0.0305                   4.759121847523408
0.0025                    0.0315                   4.747391347327827
0.0035                    -0.0315                  3.49883120031818
0.0035                    -0.0305                  3.5109750567932703
0.0035                    -0.0295                  3.5321699140640397
0.0035                    -0.0285                  3.5583270607222404
0.0035                    -0.0275                  3.58655455018909
0.0035                    -0.0265                  3.615402189082978
0.0035                    -0.0255                  3.644313913843749
0.0035                    -0.0245                  3.6731326449172905
0.0035                    -0.0235                  3.7018446022843507
0.0035                    -0.0225                  3.730481512305653
0.0035                    -0.0215                  3.7590854275184937
0.0035                    -0.0205                  3.787694144113443
0.0035                    -0.0195                  3.8163352681785723
0.0035                    -0.0185                  3.8450238080474843
0.0035                    -0.0175                  3.8737608199103097
0.0035                    -0.0165                  3.9025326142123737
0.0035                    -0.0155                  3.9313099835286494
0.0035                    -0.0145                  3.9600469434882744
0.0035                    -0.0135                  3.988679117779877
0.0035                    -0.0125                  4.017122463966558
0.0035                    -0.0115                  4.045273605700563
0.0035                    -0.0105                  4.073013224121576
0.0035                    -0.0095                  4.100213534816785
0.0035                    -0.0085                  4.126750153876486
0.0035                    -0.0075                  4.152517604056873
0.0035                    -0.0065                  4.1774475804594875
0.0035                    -0.0055                  4.201532115159439
0.0035                    -0.0045                  4.22485967734972
0.0035                    -0.0035                  4.247677193689778
0.0035                    -0.0025                  4.270492002443699
0.0035                    -0.0015                  4.294226280343417
0.0035                    -5.0E-4                  4.320419980561569
0.0035                    5.0E-4                   4.351426905278705
0.0035                    0.0015                   4.390466562908936
0.0035                    0.0025                   4.441007651791995
0.0035                    0.0035                   4.504559410283546
0.0035                    0.0045                   4.577400956687166
0.0035                    0.0055                   4.650765939665491
0.0035                    0.0065                   4.7114068043543265
0.0035                    0.0075                   4.752034840906106
0.0035                    0.0085                   4.77404581988136
0.0035                    0.0095                   4.780221036837798
0.0035                    0.0105                   4.778873349725615
0.0035                    0.0115                   4.779531456810175
0.0035                    0.0125                   4.786952569850146
0.0035                    0.0135                   4.803487650779972
0.0035                    0.0145                   4.8299877842222765
0.0035                    0.0155                   4.8637237524744314
0.0035                    0.0165                   4.8964515159824
0.0035                    0.0175                   4.919361373119065
0.0035                    0.0185                   4.932112390172136
0.0035                    0.0195                   4.939589489969659
0.0035                    0.0205                   4.94494894344
0.0035                    0.0215                   4.948846019894931
0.0035                    0.0225                   4.948911227599593
0.0035                    0.0235                   4.94000822862242
0.0035                    0.0245                   4.917493834744863
0.0035                    0.0255                   4.881185849104444
0.0035                    0.0265                   4.835339104979196
0.0035                    0.0275                   4.786024481124976
0.0035                    0.0285                   4.7390016770085595
0.0035                    0.0295                   4.699739597671252
0.0035                    0.0305                   4.6724862779549285
0.0035                    0.0315                   4.659023427164215
0.0045                    -0.0315                  3.474650519947006
0.0045                    -0.0305                  3.485259903504712
0.0045                    -0.0295                  3.5045650288531975
0.0045                    -0.0285                  3.5295606005286784
0.0045                    -0.0275                  3.557642210201774
0.0045                    -0.0265                  3.587062425049688
0.0045                    -0.0255                  3.6168633758153943
0.0045                    -0.0245                  3.6466233188373094
0.0045                    -0.0235                  3.6762009868659615
0.0045                    -0.0225                  3.705578677458152
0.0045                    -0.0215                  3.7347861367579323
0.0045                    -0.0205                  3.7638652025348653
0.0045                    -0.0195                  3.7928523056465395
0.0045                    -0.0185                  3.8217694884539792
0.0045                    -0.0175                  3.850619650062045
0.0045                    -0.0165                  3.8793838509667835
0.0045                    -0.0155                  3.9080195568114737
0.0045                    -0.0145                  3.936458878735709
0.0045                    -0.0135                  3.964606328516564
0.0045                    -0.0125                  3.992336431943189
0.0045                    -0.0115                  4.019492544907624
0.0045                    -0.0105                  4.045889121421682
0.0045                    -0.0095                  4.071320110783393
0.0045                    -0.0085                  4.095575228868982
0.0045                    -0.0075                  4.118464246940178
0.0045                    -0.0065                  4.139848279463132
0.0045                    -0.0055                  4.1596787269662965
0.0045                    -0.0045                  4.178049024591007
0.0045                    -0.0035                  4.195268282288059
0.0045                    -0.0025                  4.211965650159313
0.0045                    -0.0015                  4.229221682937424
0.0045                    -5.0E-4                  4.248702841410044
0.0045                    5.0E-4                   4.272750799770968
0.0045                    0.0015                   4.304374771600279
0.0045                    0.0025                   4.347222709539024
0.0045                    0.0035                   4.404896886574298
0.0045                    0.0045                   4.47772175197698
0.0045                    0.0055                   4.561184096795255
0.0045                    0.0065                   4.6403575651710165
0.0045                    0.0075                   4.698614362039594
0.0045                    0.0085                   4.730814073063673
0.0045                    0.0095                   4.742658057926371
0.0045                    0.0105                   4.748819932511767
0.0045                    0.0115                   4.761901254428886
0.0045                    0.0125                   4.78531940217513
0.0045                    0.0135                   4.816304485329745
0.0045                    0.0145                   4.849776245905528
0.0045                    0.0155                   4.880459531732139
0.0045                    0.0165                   4.903606329007573
0.0045                    0.0175                   4.917846843315693
0.0045                    0.0185                   4.926251102663623
0.0045                    0.0195                   4.931911901888566
0.0045                    0.0205                   4.935801158804523
0.0045                    0.0215                   4.936758173730811
0.0045                    0.0225                   4.930305472710005
0.0045                    0.0235                   4.910346940567452
0.0045                    0.0245                   4.874186938328753
0.0045                    0.0255                   4.824627753290933
0.0045                    0.0265                   4.767774495754448
0.0045                    0.0275                   4.710255935079216
0.0045                    0.0285                   4.657821793041257
0.0045                    0.0295                   4.615026944896604
0.0045                    0.0305                   4.585246682857525
0.0045                    0.0315                   4.570478938568965
0.0055                    -0.0315                  3.449718220354944
0.0055                    -0.0305                  3.459133622663237
0.0055                    -0.0295                  3.4766742067301992
0.0055                    -0.0285                  3.5000860869408994
0.0055                    -0.0275                  3.5272270974890363
0.0055                    -0.0265                  3.5564185215505697
0.0055                    -0.0255                  3.586500898450664
0.0055                    -0.0245                  3.6167985709837542
0.0055                    -0.0235                  3.64698475234541
0.0055                    -0.0225                  3.676936512525325
0.0055                    -0.0215                  3.706633078491021
0.0055                    -0.0205                  3.7360966372837785
0.0055                    -0.0195                  3.765359078649463
0.0055                    -0.0185                  3.7944427371610505
0.0055                    -0.0175                  3.823349082331953
0.0055                    -0.0165                  3.852052215876483
0.0055                    -0.0155                  3.8804952518655904
0.0055                    -0.0145                  3.9085881039875305
0.0055                    -0.0135                  3.9362054084214675
0.0055                    -0.0125                  3.963184007575965
0.0055                    -0.0115                  3.9893207587816915
0.0055                    -0.0105                  4.014373134662124
0.0055                    -0.0095                  4.03806652032542
0.0055                    -0.0085                  4.060112695711176
0.0055                    -0.0075                  4.080242751461
0.0055                    -0.0065                  4.098254633148763
0.0055                    -0.0055                  4.114072343311003
0.0055                    -0.0045                  4.127814192142994
0.0055                    -0.0035                  4.139871826915145
0.0055                    -0.0025                  4.151000771341755
0.0055                    -0.0015                  4.162411314151073
0.0055                    -5.0E-4                  4.175828488791752
0.0055                    5.0E-4                   4.193467853567025
0.0055                    0.0015                   4.217943498326693
0.0055                    0.0025                   4.252252379818438
0.0055                    0.0035                   4.299978966597758
0.0055                    0.0045                   4.363730324087509
0.0055                    0.0055                   4.445654101079981
0.0055                    0.0065                   4.53393047595409
0.0055                    0.0075                   4.6057249156958555
0.0055                    0.0085                   4.649969189705387
0.0055                    0.0095                   4.675167825870548
0.0055                    0.0105                   4.699871840632043
0.0055                    0.0115                   4.733446033832287
0.0055                    0.0125                   4.77386438818418
0.0055                    0.0135                   4.815036149018171
0.0055                    0.0145                   4.85144145869634
0.0055                    0.0155                   4.879617325572026
0.0055                    0.0165                   4.898914411783465
0.0055                    0.0175                   4.9111375347256265
0.0055                    0.0185                   4.918727568903424
0.0055                    0.0195                   4.923187362922068
0.0055                    0.0205                   4.924290976783778
0.0055                    0.0215                   4.918884232385766
0.0055                    0.0225                   4.9010939851034285
0.0055                    0.0235                   4.866574139517305
0.0055                    0.0245                   4.816184698757975
0.0055                    0.0255                   4.75521628612887
0.0055                    0.0265                   4.690610289354665
0.0055                    0.0275                   4.628516598500556
0.0055                    0.0285                   4.573325958383116
0.0055                    0.0295                   4.5284478078230395
0.0055                    0.0305                   4.497079015367814
0.0055                    0.0315                   4.481403509762658
0.0065                    -0.0315                  3.42422081570865
0.0065                    -0.0305                  3.4326826976864853
0.0065                    -0.0295                  3.4486916698044645
0.0065                    -0.0285                  3.4704753631113845
0.0065                    -0.0275                  3.496283388827121
0.0065                    -0.0265                  3.5246462146673383
0.0065                    -0.0255                  3.554403324845908
0.0065                    -0.0245                  3.5847400886554253
0.0065                    -0.0235                  3.6151624021788438
0.0065                    -0.0225                  3.6454164599296566
0.0065                    -0.0215                  3.675399386806578
0.0065                    -0.0205                  3.70508925463885
0.0065                    -0.0195                  3.734497719287522
0.0065                    -0.0185                  3.7636390363111274
0.0065                    -0.0175                  3.792509865638315
0.0065                    -0.0165                  3.8210766447714275
0.0065                    -0.0155                  3.849268583931797
0.0065                    -0.0145                  3.876974583336678
0.0065                    -0.0135                  3.9040421691528926
0.0065                    -0.0125                  3.930276627554635
0.0065                    -0.0115                  3.955439632869856
0.0065                    -0.0105                  3.979248891925028
0.0065                    -0.0095                  4.0013830626949245
0.0065                    -0.0085                  4.0214986503246575
0.0065                    -0.0075                  4.039266512535586
0.0065                    -0.0065                  4.05443254102859
0.0065                    -0.0055                  4.066899137655425
0.0065                    -0.0045                  4.076815528616485
0.0065                    -0.0035                  4.084664182377791
0.0065                    -0.0025                  4.091337589573727
0.0065                    -0.0015                  4.09819373947237
0.0065                    -5.0E-4                  4.10705049762999
0.0065                    5.0E-4                   4.120098748196091
0.0065                    0.0015                   4.139713338068352
0.0065                    0.0025                   4.168313372897691
0.0065                    0.0035                   4.207873503610176
0.0065                    0.0045                   4.260633817603892
0.0065                    0.0055                   4.330146354402425
0.0065                    0.0065                   4.411863422816465
0.0065                    0.0075                   4.48860714046504
0.0065                    0.0085                   4.547309662654042
0.0065                    0.0095                   4.595739351579632
0.0065                    0.0105                   4.64772971401319
0.0065                    0.0115                   4.703500476442376
0.0065                    0.0125                   4.757050799349602