% Model:              Benchmark260518.mph
% Version:            COMSOL 6.2.0.339
% Date:               May 20 2026, 23:50
% Dimension:          2
% Nodes:              4096
% Expressions:        1
% Description:        压力
% Length unit:        m
% x                       y                        p (Pa)
5.0E-4                    -0.0315                  4.069568379824555
5.0E-4                    -0.0305                  4.091447485857525
5.0E-4                    -0.0295                  4.121257810656228
5.0E-4                    -0.0285                  4.153736976504919
5.0E-4                    -0.0275                  4.187608010033631
5.0E-4                    -0.0265                  4.222435235366806
5.0E-4                    -0.0255                  4.257971482698276
5.0E-4                    -0.0245                  4.294082802130612
5.0E-4                    -0.0235                  4.330732903623426
5.0E-4                    -0.0225                  4.3679716746567125
5.0E-4                    -0.0215                  4.405961739651267
5.0E-4                    -0.0205                  4.444965040900821
5.0E-4                    -0.0195                  4.485431962723998
5.0E-4                    -0.0185                  4.527833706493413
5.0E-4                    -0.0175                  4.571513180892959
5.0E-4                    -0.0165                  4.613857809515357
5.0E-4                    -0.0155                  4.651405541224579
5.0E-4                    -0.0145                  4.679283463411521
5.0E-4                    -0.0135                  4.695330434004822
5.0E-4                    -0.0125                  4.702626633131635
5.0E-4                    -0.0115                  4.704331602521972
5.0E-4                    -0.0105                  4.702453154288127
5.0E-4                    -0.0095                  4.698688502575406
5.0E-4                    -0.0085                  4.6942972134927885
5.0E-4                    -0.0075                  4.689455342848873
5.0E-4                    -0.0065                  4.68304412667981
5.0E-4                    -0.0055                  4.6734512692313706
5.0E-4                    -0.0045                  4.659856633538358
5.0E-4                    -0.0035                  4.642922682838462
5.0E-4                    -0.0025                  4.6236013359705215
5.0E-4                    -0.0015                  4.6037167325373645
5.0E-4                    -5.0E-4                  4.618992608551788
5.0E-4                    5.0E-4                   4.726798405108662
5.0E-4                    0.0015                   4.878373730504821
5.0E-4                    0.0025                   4.983543188209744
5.0E-4                    0.0035                   5.036914379862101
5.0E-4                    0.0045                   5.058357665627075
5.0E-4                    0.0055                   5.060887629443996
5.0E-4                    0.0065                   5.053666718694881
5.0E-4                    0.0075                   5.041845452254041
5.0E-4                    0.0085                   5.028406002312824
5.0E-4                    0.0095                   5.014958882486065
5.0E-4                    0.0105                   5.00230103755456
5.0E-4                    0.0115                   4.990581662453465
5.0E-4                    0.0125                   4.979410991539422
5.0E-4                    0.0135                   4.968021632759556
5.0E-4                    0.0145                   4.953772623002439
5.0E-4                    0.0155                   4.933298189280941
5.0E-4                    0.0165                   4.909588811517644
5.0E-4                    0.0175                   4.890342214017439
5.0E-4                    0.0185                   4.8699132905327644
5.0E-4                    0.0195                   4.838036618242013
5.0E-4                    0.0205                   4.796809003449003
5.0E-4                    0.0215                   4.750819656045035
5.0E-4                    0.0225                   4.703390328288612
5.0E-4                    0.0235                   4.657405031677183
5.0E-4                    0.0245                   4.613681564714017
5.0E-4                    0.0255                   4.571829175859628
5.0E-4                    0.0265                   4.531488191853846
5.0E-4                    0.0275                   4.492507586857137
5.0E-4                    0.0285                   4.454942925690268
5.0E-4                    0.0295                   4.4191218976683455
5.0E-4                    0.0305                   4.386231035838698
5.0E-4                    0.0315                   4.362058013582484
0.0015                    -0.0315                  4.047586595457414
0.0015                    -0.0305                  4.069689526199232
0.0015                    -0.0295                  4.101861721152756
0.0015                    -0.0285                  4.137120477384946
0.0015                    -0.0275                  4.1734209421056345
0.0015                    -0.0265                  4.210166910721608
0.0015                    -0.0255                  4.247119368363025
0.0015                    -0.0245                  4.284135877536473
0.0015                    -0.0235                  4.321146925761912
0.0015                    -0.0225                  4.358188393774652
0.0015                    -0.0215                  4.395459107583765
0.0015                    -0.0205                  4.4334118103428715
0.0015                    -0.0195                  4.472785297633068
0.0015                    -0.0185                  4.514419880595529
0.0015                    -0.0175                  4.558399553881062
0.0015                    -0.0165                  4.602641748379942
0.0015                    -0.0155                  4.6436966316802355
0.0015                    -0.0145                  4.675087921205652
0.0015                    -0.0135                  4.69373863434498
0.0015                    -0.0125                  4.702931973591065
0.0015                    -0.0115                  4.70514288827964
0.0015                    -0.0105                  4.702349469371726
0.0015                    -0.0095                  4.696733155258803
0.0015                    -0.0085                  4.690448376944733
0.0015                    -0.0075                  4.684688757991314
0.0015                    -0.0065                  4.678802685992432
0.0015                    -0.0055                  4.671001572623856
0.0015                    -0.0045                  4.6600730369265495
0.0015                    -0.0035                  4.646816442462923
0.0015                    -0.0025                  4.634500230856311
0.0015                    -0.0015                  4.632657903357502
0.0015                    -5.0E-4                  4.659301502443209
0.0015                    5.0E-4                   4.771892462442785
0.0015                    0.0015                   4.9212134333787905
0.0015                    0.0025                   5.01375590895995
0.0015                    0.0035                   5.06036631954059
0.0015                    0.0045                   5.077516783400248
0.0015                    0.0055                   5.077612805432627
0.0015                    0.0065                   5.06741487673747
0.0015                    0.0075                   5.051160068436243
0.0015                    0.0085                   5.032064832189048
0.0015                    0.0095                   5.012522556934354
0.0015                    0.0105                   4.994148065086209
0.0015                    0.0115                   4.977688312030519
0.0015                    0.0125                   4.962984161202943
0.0015                    0.0135                   4.948968092672718
0.0015                    0.0145                   4.9334846287946625
0.0015                    0.0155                   4.915221213004157
0.0015                    0.0165                   4.900161758602245
0.0015                    0.0175                   4.885201364189642
0.0015                    0.0185                   4.86125635004298
0.0015                    0.0195                   4.826062689904306
0.0015                    0.0205                   4.781398967105901
0.0015                    0.0215                   4.732864574574885
0.0015                    0.0225                   4.68418430129087
0.0015                    0.0235                   4.638077151435384
0.0015                    0.0245                   4.594777517824854
0.0015                    0.0255                   4.553437785528093
0.0015                    0.0265                   4.513238161667719
0.0015                    0.0275                   4.473701558312628
0.0015                    0.0285                   4.4347200988553634
0.0015                    0.0295                   4.396692812879795
0.0015                    0.0305                   4.361746934449272
0.0015                    0.0315                   4.337658819757571
0.0025                    -0.0315                  4.017265375004914
0.0025                    -0.0305                  4.037774274443325
0.0025                    -0.0295                  4.070596341623736
0.0025                    -0.0285                  4.10856103556905
0.0025                    -0.0275                  4.148100203981773
0.0025                    -0.0265                  4.187822985628231
0.0025                    -0.0255                  4.227162487695213
0.0025                    -0.0245                  4.26581400494109
0.0025                    -0.0235                  4.303584105301695
0.0025                    -0.0225                  4.340415917255948
0.0025                    -0.0215                  4.376502316116095
0.0025                    -0.0205                  4.412423604409248
0.0025                    -0.0195                  4.449198718103727
0.0025                    -0.0185                  4.488088989337968
0.0025                    -0.0175                  4.529991271875654
0.0025                    -0.0165                  4.574211280440223
0.0025                    -0.0155                  4.618197138727618
0.0025                    -0.0145                  4.655825653688689
0.0025                    -0.0135                  4.682417675025175
0.0025                    -0.0125                  4.696895536281431
0.0025                    -0.0115                  4.698318897046208
0.0025                    -0.0105                  4.689516042112775
0.0025                    -0.0095                  4.676833452880327
0.0025                    -0.0085                  4.66609877171915
0.0025                    -0.0075                  4.660506767810251
0.0025                    -0.0065                  4.660398799482756
0.0025                    -0.0055                  4.663949061239386
0.0025                    -0.0045                  4.668904681163486
0.0025                    -0.0035                  4.675479193121564
0.0025                    -0.0025                  4.688620772768856
0.0025                    -0.0015                  4.72005033683292
0.0025                    -5.0E-4                  4.789140003459538
0.0025                    5.0E-4                   4.890508002342949
0.0025                    0.0015                   4.984259319956932
0.0025                    0.0025                   5.046188449516272
0.0025                    0.0035                   5.078824887598917
0.0025                    0.0045                   5.090883564832568
0.0025                    0.0055                   5.089121873833493
0.0025                    0.0065                   5.076603829280414
0.0025                    0.0075                   5.056417869633081
0.0025                    0.0085                   5.03202905040425
0.0025                    0.0095                   5.006467873190838
0.0025                    0.0105                   4.981822239738057
0.0025                    0.0115                   4.95933217225789
0.0025                    0.0125                   4.9396328030600785
0.0025                    0.0135                   4.922484448369194
0.0025                    0.0145                   4.907078762462856
0.0025                    0.0155                   4.893265836706124
0.0025                    0.0165                   4.880115436441888
0.0025                    0.0175                   4.861349379465162
0.0025                    0.0185                   4.831987036347973
0.0025                    0.0195                   4.79155976568809
0.0025                    0.0205                   4.743740563458611
0.0025                    0.0215                   4.694237330006816
0.0025                    0.0225                   4.646253483772366
0.0025                    0.0235                   4.601713459328139
0.0025                    0.0245                   4.560089155741089
0.0025                    0.0255                   4.519979695393065
0.0025                    0.0265                   4.480190861976632
0.0025                    0.0275                   4.4400909509619675
0.0025                    0.0285                   4.399736181590802
0.0025                    0.0295                   4.360367328242981
0.0025                    0.0305                   4.325862302173896
0.0025                    0.0315                   4.304243197377424
0.0035                    -0.0315                  3.983635256596294
0.0035                    -0.0305                  4.002441964353618
0.0035                    -0.0295                  4.034379520059074
0.0035                    -0.0285                  4.073575891741103
0.0035                    -0.0275                  4.115805462481889
0.0035                    -0.0265                  4.1586298373827715
0.0035                    -0.0255                  4.200785890958255
0.0035                    -0.0245                  4.241561083662696
0.0035                    -0.0235                  4.280493929676665
0.0035                    -0.0225                  4.317321469860516
0.0035                    -0.0215                  4.352078789951226
0.0035                    -0.0205                  4.385276250240714
0.0035                    -0.0195                  4.4180155811566335
0.0035                    -0.0185                  4.45187537374625
0.0035                    -0.0175                  4.488463747528853
0.0035                    -0.0165                  4.528965645448032
0.0035                    -0.0155                  4.572883508855853
0.0035                    -0.0145                  4.616444811590405
0.0035                    -0.0135                  4.651949915568202
0.0035                    -0.0125                  4.669207452851159
0.0035                    -0.0115                  4.663820704681067
0.0035                    -0.0105                  4.643294680342417
0.0035                    -0.0095                  4.620463997183012
0.0035                    -0.0085                  4.605534862544446
0.0035                    -0.0075                  4.604587296164607
0.0035                    -0.0065                  4.619634350110012
0.0035                    -0.0055                  4.649050557481605
0.0035                    -0.0045                  4.688752838023577
0.0035                    -0.0035                  4.7347887626435785
0.0035                    -0.0025                  4.786621849190458
0.0035                    -0.0015                  4.846642735190793
0.0035                    -5.0E-4                  4.914500768392571
0.0035                    5.0E-4                   4.980860487210073
0.0035                    0.0015                   5.03252699826619
0.0035                    0.0025                   5.065932972785481
0.0035                    0.0035                   5.085138911886768
0.0035                    0.0045                   5.093299416466222
0.0035                    0.0055                   5.091174814136647
0.0035                    0.0065                   5.078437264005998
0.0035                    0.0075                   5.056652997206765
0.0035                    0.0085                   5.029024034760145
0.0035                    0.0095                   4.998810350358307
0.0035                    0.0105                   4.9683849597319005
0.0035                    0.0115                   4.939352299820628
0.0035                    0.0125                   4.912824244551603
0.0035                    0.0135                   4.889474410737798
0.0035                    0.0145                   4.869921707378631
0.0035                    0.0155                   4.853378775391844
0.0035                    0.0165                   4.83633066666685
0.0035                    0.0175                   4.812525418217303
0.0035                    0.0185                   4.777199569062306
0.0035                    0.0195                   4.731877014840137
0.0035                    0.0205                   4.683264538612262
0.0035                    0.0215                   4.636578583876913
0.0035                    0.0225                   4.593177536138306
0.0035                    0.0235                   4.552984401740447
0.0035                    0.0245                   4.5145929195220615
0.0035                    0.0255                   4.476434802347923
0.0035                    0.0265                   4.437440687664182
0.0035                    0.0275                   4.39732846988945
0.0035                    0.0285                   4.356852252510751
0.0035                    0.0295                   4.318370153679454
0.0035                    0.0305                   4.2864840226102405
0.0035                    0.0315                   4.267744556716087
0.0045                    -0.0315                  3.947980186039762
0.0045                    -0.0305                  3.96561471546969
0.0045                    -0.0295                  3.996551089785516
0.0045                    -0.0285                  4.03604063624019
0.0045                    -0.0275                  4.080056772808453
0.0045                    -0.0265                  4.125563190044381
0.0045                    -0.0255                  4.170535083909057
0.0045                    -0.0245                  4.213669455362782
0.0045                    -0.0235                  4.254089295361957
0.0045                    -0.0225                  4.291206119772809
0.0045                    -0.0215                  4.3247592683804505
0.0045                    -0.0205                  4.355012871254768
0.0045                    -0.0195                  4.383028796819135
0.0045                    -0.0185                  4.410722582491163
0.0045                    -0.0175                  4.4406491436250555
0.0045                    -0.0165                  4.475244725402113
0.0045                    -0.0155                  4.515777762829192
0.0045                    -0.0145                  4.559682269861705
0.0045                    -0.0135                  4.595944365583111
0.0045                    -0.0125                  4.608689715813988
0.0045                    -0.0115                  4.593774948538389
0.0045                    -0.0105                  4.563850681488448
0.0045                    -0.0095                  4.537026236071142
0.0045                    -0.0085                  4.526685459930245
0.0045                    -0.0075                  4.5384595348643435
0.0045                    -0.0065                  4.573735565420716
0.0045                    -0.0055                  4.631967664965156
0.0045                    -0.0045                  4.708982548170235
0.0045                    -0.0035                  4.79508204871742
0.0045                    -0.0025                  4.8781885261601365
0.0045                    -0.0015                  4.948814345208809
0.0045                    -5.0E-4                  5.0014270424215095
0.0045                    5.0E-4                   5.034861419628227
0.0045                    0.0015                   5.05439245153188
0.0045                    0.0025                   5.06798298616688
0.0045                    0.0035                   5.078680045472032
0.0045                    0.0045                   5.08499138458543
0.0045                    0.0055                   5.084242431196829
0.0045                    0.0065                   5.073622520883273
0.0045                    0.0075                   5.05229037323401
0.0045                    0.0085                   5.022656279885176
0.0045                    0.0095                   4.988447803486124
0.0045                    0.0105                   4.952752200701491
0.0045                    0.0115                   4.917909954715607
0.0045                    0.0125                   4.8844287568165585
0.0045                    0.0135                   4.852072240704753
0.0045                    0.0145                   4.823006529638145
0.0045                    0.0155                   4.798510457543541
0.0045                    0.0165                   4.773778451873032
0.0045                    0.0175                   4.742366937633979
0.0045                    0.0185                   4.7014258077242825
0.0045                    0.0195                   4.654181627177332
0.0045                    0.0205                   4.6081710369109965
0.0045                    0.0215                   4.567504222538517
0.0045                    0.0225                   4.531313144996512
0.0045                    0.0235                   4.497177640521673
0.0045                    0.0245                   4.462953521065942
0.0045                    0.0255                   4.427208145080094
0.0045                    0.0265                   4.389460758645114
0.0045                    0.0275                   4.350181140244058
0.0045                    0.0285                   4.310964985131937
0.0045                    0.0295                   4.274772134150631
0.0045                    0.0305                   4.245923656393803
0.0045                    0.0315                   4.229566335694898
0.0055                    -0.0315                  3.910823681759925
0.0055                    -0.0305                  3.9278519300423267
0.0055                    -0.0295                  3.95826566766965
0.0055                    -0.0285                  3.997981585827242
0.0055                    -0.0275                  4.043298245933373
0.0055                    -0.0265                  4.091016795108059
0.0055                    -0.0255                  4.138582990546365
0.0055                    -0.0245                  4.184092252713922
0.0055                    -0.0235                  4.226161595371953
0.0055                    -0.0225                  4.26380506105837
0.0055                    -0.0215                  4.296425096726427
0.0055                    -0.0205                  4.324058241194953
0.0055                    -0.0195                  4.347767426333434
0.0055                    -0.0185                  4.370038033186199
0.0055                    -0.0175                  4.394347902900147
0.0055                    -0.0165                  4.423341596320624
0.0055                    -0.0155                  4.458040617733086
0.0055                    -0.0145                  4.49506148069335
0.0055                    -0.0135                  4.5228939007786595
0.0055                    -0.0125                  4.527687564134633
0.0055                    -0.0115                  4.5084961792307325
0.0055                    -0.0105                  4.481754721302161
0.0055                    -0.0095                  4.466229466791555
0.0055                    -0.0085                  4.470700228602231
0.0055                    -0.0075                  4.496948488575259
0.0055                    -0.0065                  4.5470654070873655
0.0055                    -0.0055                  4.623392796127693
0.0055                    -0.0045                  4.722348349755082
0.0055                    -0.0035                  4.829798009104434
0.0055                    -0.0025                  4.925937570156293
0.0055                    -0.0015                  4.996500460705367
0.0055                    -5.0E-4                  5.03673206449403
0.0055                    5.0E-4                   5.050751495327034
0.0055                    0.0015                   5.052185399431079
0.0055                    0.0025                   5.0549991841390725
0.0055                    0.0035                   5.06170332245282
0.0055                    0.0045                   5.067508229972681
0.0055                    0.0055                   5.067696397939676
0.0055                    0.0065                   5.057918059369017
0.0055                    0.0075                   5.0362321128208265
0.0055                    0.0085                   5.004889039362093
0.0055                    0.0095                   4.967835020941759
0.0055                    0.0105                   4.928536334002848
0.0055                    0.0115                   4.889314159440445
0.0055                    0.0125                   4.84939598642317
0.0055                    0.0135                   4.80802919904181
0.0055                    0.0145                   4.768464515888466
0.0055                    0.0155                   4.733804991350475
0.0055                    0.0165                   4.70051941584893
0.0055                    0.0175                   4.662264092363324
0.0055                    0.0185                   4.618737403139356
0.0055                    0.0195                   4.573664172740267
0.0055                    0.0205                   4.532262748661303
0.0055                    0.0215                   4.4976389909761
0.0055                    0.0225                   4.467876801712796
0.0055                    0.0235                   4.439319503402003
0.0055                    0.0245                   4.409006716173698
0.0055                    0.0255                   4.375731257497157
0.0055                    0.0265                   4.33962624743484
0.0055                    0.0275                   4.301892889217129
0.0055                    0.0285                   4.2646747794532285
0.0055                    0.0295                   4.231023294496932
0.0055                    0.0305                   4.204776813071852
0.0055                    0.0315                   4.1901629713160045
0.0065                    -0.0315                  3.8724168831961885
0.0065                    -0.0305                  3.88935585361227
0.0065                    -0.0295                  3.919898944353693
0.0065                    -0.0285                  3.9602738340724564
0.0065                    -0.0275                  4.006958422307929
0.0065                    -0.0265                  4.056709158337481
0.0065                    -0.0255                  4.106661998903045
0.0065                    -0.0245                  4.154430790009553
0.0065                    -0.0235                  4.198129449458574
0.0065                    -0.0225                  4.23636450550902
0.0065                    -0.0215                  4.268307315962917
0.0065                    -0.0205                  4.293919741106745
0.0065                    -0.0195                  4.314735559671861
0.0065                    -0.0185                  4.333798265097452
0.0065                    -0.0175                  4.354213176101137
0.0065                    -0.0165                  4.378336609227756
0.0065                    -0.0155                  4.405795469888808
0.0065                    -0.0145                  4.4327254388438
0.0065                    -0.0135                  4.450520519424728
0.0065                    -0.0125                  4.450271040443127
0.0065                    -0.0115                  4.43654619423206
0.0065                    -0.0105                  4.425647974366067
0.0065                    -0.0095                  4.428175469047913
0.0065                    -0.0085                  4.44521775526906
0.0065                    -0.0075                  4.478783018917683
0.0065                    -0.0065                  4.536206508201404
0.0065                    -0.0055                  4.622428711408273
0.0065                    -0.0045                  4.730698837678367
0.0065                    -0.0035                  4.841654419508827
0.0065                    -0.0025                  4.934060802666706
0.0065                    -0.0015                  4.997444865859099
0.0065                    -5.0E-4                  5.0297817267203255
0.0065                    5.0E-4                   5.034741754033066
0.0065                    0.0015                   5.027041738796778
0.0065                    0.0025                   5.023515936474793
0.0065                    0.0035                   5.027499316622541
0.0065                    0.0045                   5.031535780439357
0.0065                    0.0055                   5.028705621413128
0.0065                    0.0065                   5.015903382945974
0.0065                    0.0075                   4.993160979050011
0.0065                    0.0085                   4.962636895732417
0.0065                    0.0095                   4.926812907045155
0.0065                    0.0105                   4.887526206762788
0.0065                    0.0115                   4.84575605302908
0.0065                    0.0125                   4.8006100817580695
0.0065                    0.0135                   4.752636865725735