% Model:              Benchmark260518.mph
% Version:            COMSOL 6.2.0.339
% Date:               May 20 2026, 07:42
% Dimension:          2
% Nodes:              4096
% Expressions:        1
% Description:        压力
% Length unit:        m
% x                       y                        p (Pa)
5.0E-4                    -0.0315                  4.2435206983455425
5.0E-4                    -0.0305                  4.276539772365347
5.0E-4                    -0.0295                  4.321458829807657
5.0E-4                    -0.0285                  4.370075022189934
5.0E-4                    -0.0275                  4.420569868090198
5.0E-4                    -0.0265                  4.472230237112072
5.0E-4                    -0.0255                  4.524598096589895
5.0E-4                    -0.0245                  4.577466855178753
5.0E-4                    -0.0235                  4.630772302709903
5.0E-4                    -0.0225                  4.684608793764766
5.0E-4                    -0.0215                  4.739120646062027
5.0E-4                    -0.0205                  4.793282602992743
5.0E-4                    -0.0195                  4.843775615199165
5.0E-4                    -0.0185                  4.886608049428663
5.0E-4                    -0.0175                  4.916804999192069
5.0E-4                    -0.0165                  4.93298796772125
5.0E-4                    -0.0155                  4.939519948455706
5.0E-4                    -0.0145                  4.940099232823984
5.0E-4                    -0.0135                  4.93686006573697
5.0E-4                    -0.0125                  4.931697698241397
5.0E-4                    -0.0115                  4.926244720715489
5.0E-4                    -0.0105                  4.920992212724819
5.0E-4                    -0.0095                  4.914673784151675
5.0E-4                    -0.0085                  4.905048733618695
5.0E-4                    -0.0075                  4.890476537627032
5.0E-4                    -0.0065                  4.870780995996368
5.0E-4                    -0.0055                  4.847376987246636
5.0E-4                    -0.0045                  4.837815511197119
5.0E-4                    -0.0035                  4.89050595251125
5.0E-4                    -0.0025                  5.008537101463644
5.0E-4                    -0.0015                  5.1200718399287615
5.0E-4                    -5.0E-4                  5.178561095382372
5.0E-4                    5.0E-4                   5.1802554215598136
5.0E-4                    0.0015                   5.12716170140546
5.0E-4                    0.0025                   5.027597960898568
5.0E-4                    0.0035                   4.922195450543443
5.0E-4                    0.0045                   4.872778024906937
5.0E-4                    0.0055                   4.881158531947731
5.0E-4                    0.0065                   4.903043455198913
5.0E-4                    0.0075                   4.918167618052275
5.0E-4                    0.0085                   4.925726816066767
5.0E-4                    0.0095                   4.92815414896183
5.0E-4                    0.0105                   4.928959795569941
5.0E-4                    0.0115                   4.931132177525054
5.0E-4                    0.0125                   4.935792490875229
5.0E-4                    0.0135                   4.9418317356872175
5.0E-4                    0.0145                   4.947177125471654
5.0E-4                    0.0155                   4.9501466278685635
5.0E-4                    0.0165                   4.949415181001491
5.0E-4                    0.0175                   4.94319535263379
5.0E-4                    0.0185                   4.927940617735312
5.0E-4                    0.0195                   4.899506575732589
5.0E-4                    0.0205                   4.859089353468972
5.0E-4                    0.0215                   4.8114038505543295
5.0E-4                    0.0225                   4.760389679768645
5.0E-4                    0.0235                   4.708971336774147
5.0E-4                    0.0245                   4.657819102409831
5.0E-4                    0.0255                   4.606754370615933
5.0E-4                    0.0265                   4.555801003536175
5.0E-4                    0.0275                   4.505195891713244
5.0E-4                    0.0285                   4.455460268820341
5.0E-4                    0.0295                   4.40738676741837
5.0E-4                    0.0305                   4.362864626758112
5.0E-4                    0.0315                   4.330146727367024
0.0015                    -0.0315                  4.210611784892027
0.0015                    -0.0305                  4.244606483426601
0.0015                    -0.0295                  4.294222552612835
0.0015                    -0.0285                  4.348322042922229
0.0015                    -0.0275                  4.40357755461182
0.0015                    -0.0265                  4.459041803213221
0.0015                    -0.0255                  4.514343204545505
0.0015                    -0.0245                  4.569380949509103
0.0015                    -0.0235                  4.624323769424718
0.0015                    -0.0225                  4.679530243381395
0.0015                    -0.0215                  4.735074295222168
0.0015                    -0.0205                  4.789866336075874
0.0015                    -0.0195                  4.840752028507783
0.0015                    -0.0185                  4.884035980308985
0.0015                    -0.0175                  4.914919035799612
0.0015                    -0.0165                  4.932406912498017
0.0015                    -0.0155                  4.940323663527215
0.0015                    -0.0145                  4.941113647295801
0.0015                    -0.0135                  4.936474485398717
0.0015                    -0.0125                  4.92850718534276
0.0015                    -0.0115                  4.920067578612691
0.0015                    -0.0105                  4.9131560404450605
0.0015                    -0.0095                  4.907343487752737
0.0015                    -0.0085                  4.900305682750048
0.0015                    -0.0075                  4.890013586662913
0.0015                    -0.0065                  4.876938437346765
0.0015                    -0.0055                  4.869563889986782
0.0015                    -0.0045                  4.886547656053173
0.0015                    -0.0035                  4.9774371791484535
0.0015                    -0.0025                  5.123314402965932
0.0015                    -0.0015                  5.240934502915692
0.0015                    -5.0E-4                  5.301690915356238
0.0015                    5.0E-4                   5.303351796900484
0.0015                    0.0015                   5.247483888435264
0.0015                    0.0025                   5.1403770959859925
0.0015                    0.0035                   5.009016324985756
0.0015                    0.0045                   4.924823206501345
0.0015                    0.0055                   4.906213008713218
0.0015                    0.0065                   4.909809309809945
0.0015                    0.0075                   4.916389153510824
0.0015                    0.0085                   4.918777552667616
0.0015                    0.0095                   4.9183769041580785
0.0015                    0.0105                   4.918714166278206
0.0015                    0.0115                   4.922660602096123
0.0015                    0.0125                   4.930554159560394
0.0015                    0.0135                   4.940034072066977
0.0015                    0.0145                   4.947783357143144
0.0015                    0.0155                   4.951614713021372
0.0015                    0.0165                   4.950415308044975
0.0015                    0.0175                   4.943110826551378
0.0015                    0.0185                   4.927332968882947
0.0015                    0.0195                   4.8986299924174475
0.0015                    0.0205                   4.857840998203503
0.0015                    0.0215                   4.8099682992034385
0.0015                    0.0225                   4.758422920104478
0.0015                    0.0235                   4.70573481189687
0.0015                    0.0245                   4.652552525455116
0.0015                    0.0255                   4.598765844924623
0.0015                    0.0265                   4.544302013864817
0.0015                    0.0275                   4.489365281881653
0.0015                    0.0285                   4.4344511166472875
0.0015                    0.0295                   4.380625787928749
0.0015                    0.0305                   4.331295501139684
0.0015                    0.0315                   4.2975814125181335
0.0025                    -0.0315                  4.1653507917192325
0.0025                    -0.0305                  4.197950373327225
0.0025                    -0.0295                  4.250436602819989
0.0025                    -0.0285                  4.310862134364816
0.0025                    -0.0275                  4.373117911036526
0.0025                    -0.0265                  4.434822988451289
0.0025                    -0.0255                  4.495138757514859
0.0025                    -0.0245                  4.553846758072127
0.0025                    -0.0235                  4.611102457851344
0.0025                    -0.0225                  4.667264194322392
0.0025                    -0.0215                  4.72236937284984
0.0025                    -0.0205                  4.7753683550841455
0.0025                    -0.0195                  4.824472164728402
0.0025                    -0.0185                  4.866906701053123
0.0025                    -0.0175                  4.9002434400473796
0.0025                    -0.0165                  4.923747653198177
0.0025                    -0.0155                  4.935282136843307
0.0025                    -0.0145                  4.93272425312508
0.0025                    -0.0135                  4.918769413185869
0.0025                    -0.0125                  4.900244309947636
0.0025                    -0.0115                  4.884399890670668
0.0025                    -0.0105                  4.876053412499713
0.0025                    -0.0095                  4.876337628201183
0.0025                    -0.0085                  4.883367216143354
0.0025                    -0.0075                  4.894881851624221
0.0025                    -0.0065                  4.912405414618135
0.0025                    -0.0055                  4.948000382198135
0.0025                    -0.0045                  5.024301955954707
0.0025                    -0.0035                  5.148683291846541
0.0025                    -0.0025                  5.284261943194691
0.0025                    -0.0015                  5.386939470226495
0.0025                    -5.0E-4                  5.440571195462729
0.0025                    5.0E-4                   5.442032956933243
0.0025                    0.0015                   5.3916071315686
0.0025                    0.0025                   5.294097265008344
0.0025                    0.0035                   5.167166223410258
0.0025                    0.0045                   5.050642420648218
0.0025                    0.0055                   4.9763425569131075
0.0025                    0.0065                   4.937892676719299
0.0025                    0.0075                   4.915362223742336
0.0025                    0.0085                   4.898401441279032
0.0025                    0.0095                   4.8862971801430914
0.0025                    0.0105                   4.881540822712683
0.0025                    0.0115                   4.886270799077769
0.0025                    0.0125                   4.899833922667673
0.0025                    0.0135                   4.918453855837699
0.0025                    0.0145                   4.936352262748397
0.0025                    0.0155                   4.947271632313784
0.0025                    0.0165                   4.9471392774021075
0.0025                    0.0175                   4.9359061699567714
0.0025                    0.0185                   4.915432519977783
0.0025                    0.0195                   4.885147298544783
0.0025                    0.0205                   4.845893335301966
0.0025                    0.0215                   4.800534434096687
0.0025                    0.0225                   4.750540679972147
0.0025                    0.0235                   4.697232064018878
0.0025                    0.0245                   4.641216205265481
0.0025                    0.0255                   4.582799483231373
0.0025                    0.0265                   4.522270879681758
0.0025                    0.0275                   4.46017778014874
0.0025                    0.0285                   4.39763938306742
0.0025                    0.0295                   4.337212907008884
0.0025                    0.0305                   4.285023374857115
0.0025                    0.0315                   4.2528296116918645
0.0035                    -0.0315                  4.1155747523156805
0.0035                    -0.0305                  4.146734229832141
0.0035                    -0.0295                  4.200144564337848
0.0035                    -0.0285                  4.265211943906925
0.0035                    -0.0275                  4.334254131272543
0.0035                    -0.0265                  4.402930131550849
0.0035                    -0.0255                  4.469183110962212
0.0035                    -0.0245                  4.532134770861322
0.0035                    -0.0235                  4.591428979961912
0.0035                    -0.0225                  4.646959831543925
0.0035                    -0.0215                  4.698773956606623
0.0035                    -0.0205                  4.7468026432138455
0.0035                    -0.0195                  4.791766781426709
0.0035                    -0.0185                  4.832857644921884
0.0035                    -0.0175                  4.869415226084516
0.0035                    -0.0165                  4.897912124197713
0.0035                    -0.0155                  4.907092862170492
0.0035                    -0.0145                  4.8912707311574595
0.0035                    -0.0135                  4.8589048762368225
0.0035                    -0.0125                  4.824454263596634
0.0035                    -0.0115                  4.80016725665435
0.0035                    -0.0105                  4.794375687861755
0.0035                    -0.0095                  4.810422070999844
0.0035                    -0.0085                  4.8473725254569375
0.0035                    -0.0075                  4.90284105753299
0.0035                    -0.0065                  4.976159173193384
0.0035                    -0.0055                  5.071400501628752
0.0035                    -0.0045                  5.191165074285044
0.0035                    -0.0035                  5.3239197238183325
0.0035                    -0.0025                  5.442745077258959
0.0035                    -0.0015                  5.525933103175828
0.0035                    -5.0E-4                  5.56800598569489
0.0035                    5.0E-4                   5.56903980445463
0.0035                    0.0015                   5.527464731709009
0.0035                    0.0025                   5.442048152779831
0.0035                    0.0035                   5.3201430485499435
0.0035                    0.0045                   5.186507157694885
0.0035                    0.0055                   5.069558403117218
0.0035                    0.0065                   4.979614119345066
0.0035                    0.0075                   4.9126582612740215
0.0035                    0.0085                   4.863185747076963
0.0035                    0.0095                   4.829750566129968
0.0035                    0.0105                   4.813281351132394
0.0035                    0.0115                   4.814707079306894
0.0035                    0.0125                   4.832802476998115
0.0035                    0.0135                   4.862285122397845
0.0035                    0.0145                   4.8949539587426525
0.0035                    0.0155                   4.920149127700039
0.0035                    0.0165                   4.927463125500208
0.0035                    0.0175                   4.914437613748797
0.0035                    0.0185                   4.887993899615871
0.0035                    0.0195                   4.855734484494412
0.0035                    0.0205                   4.8201160174371225
0.0035                    0.0215                   4.780279142123395
0.0035                    0.0225                   4.734457937697511
0.0035                    0.0235                   4.681916227748604
0.0035                    0.0245                   4.623188225523709
0.0035                    0.0255                   4.559285727534072
0.0035                    0.0265                   4.491465389820353
0.0035                    0.0275                   4.42137401003817
0.0035                    0.0285                   4.3516045202033435
0.0035                    0.0295                   4.286674150473177
0.0035                    0.0305                   4.234058257064165
0.0035                    0.0315                   4.203761575781588
0.0045                    -0.0315                  4.062878292058053
0.0045                    -0.0305                  4.093427256400252
0.0045                    -0.0295                  4.147601993427337
0.0045                    -0.0285                  4.216097420622825
0.0045                    -0.0275                  4.290893663300531
0.0045                    -0.0265                  4.366186794896045
0.0045                    -0.0255                  4.438369286953511
0.0045                    -0.0245                  4.505408655700253
0.0045                    -0.0235                  4.566065253147983
0.0045                    -0.0225                  4.619557928909128
0.0045                    -0.0215                  4.665914140593702
0.0045                    -0.0205                  4.706995099770451
0.0045                    -0.0195                  4.746032310407903
0.0045                    -0.0185                  4.78503683341382
0.0045                    -0.0175                  4.821986437236804
0.0045                    -0.0165                  4.846207100967874
0.0045                    -0.0155                  4.842367488837372
0.0045                    -0.0145                  4.8081515342478625
0.0045                    -0.0135                  4.758723924682071
0.0045                    -0.0125                  4.714981721530879
0.0045                    -0.0115                  4.693227306913997
0.0045                    -0.0105                  4.700628357686015
0.0045                    -0.0095                  4.7386953159547165
0.0045                    -0.0085                  4.808066140386908
0.0045                    -0.0075                  4.908363930120799
0.0045                    -0.0065                  5.035915682176402
0.0045                    -0.0055                  5.1816410038849385
0.0045                    -0.0045                  5.33036471334109
0.0045                    -0.0035                  5.463923372417158
0.0045                    -0.0025                  5.566226593467348
0.0045                    -0.0015                  5.630701086550437
0.0045                    -5.0E-4                  5.660994242760261
0.0045                    5.0E-4                   5.661177836946955
0.0045                    0.0015                   5.627884786936564
0.0045                    0.0025                   5.552603130763797
0.0045                    0.0035                   5.433641896654063
0.0045                    0.0045                   5.287008139199291
0.0045                    0.0055                   5.140210290116346
0.0045                    0.0065                   5.012472899674827
0.0045                    0.0075                   4.909565833969758
0.0045                    0.0085                   4.831774000241671
0.0045                    0.0095                   4.777966873567413
0.0045                    0.0105                   4.746679353769129
0.0045                    0.0115                   4.737029253734565
0.0045                    0.0125                   4.7490321083517175
0.0045                    0.0135                   4.780577194840025
0.0045                    0.0145                   4.82317417282691
0.0045                    0.0155                   4.861892056107557
0.0045                    0.0165                   4.881214968557165
0.0045                    0.0175                   4.873674684022469
0.0045                    0.0185                   4.847122829657925
0.0045                    0.0195                   4.815829078712001
0.0045                    0.0205                   4.784875697001534
0.0045                    0.0215                   4.75111393401868
0.0045                    0.0225                   4.7102016398819835
0.0045                    0.0235                   4.65925833685558
0.0045                    0.0245                   4.598028999450769
0.0045                    0.0255                   4.528415162519283
0.0045                    0.0265                   4.4531709836078655
0.0045                    0.0275                   4.375710260020847
0.0045                    0.0285                   4.300391713008707
0.0045                    0.0295                   4.232990499319797
0.0045                    0.0305                   4.180834490723555
0.0045                    0.0315                   4.151994072011754
0.0055                    -0.0315                  4.007613887969
0.0055                    -0.0305                  4.038113780393128
0.0055                    -0.0295                  4.093334856868962
0.0055                    -0.0285                  4.164889150061692
0.0055                    -0.0275                  4.244764256051385
0.0055                    -0.0265                  4.326166074875442
0.0055                    -0.0255                  4.403947206905773
0.0055                    -0.0245                  4.4746491925772025
0.0055                    -0.0235                  4.536093660087134
0.0055                    -0.0225                  4.586990927863493
0.0055                    -0.0215                  4.627996561929795
0.0055                    -0.0205                  4.662381270575908
0.0055                    -0.0195                  4.694802477435448
0.0055                    -0.0185                  4.728924841745768
0.0055                    -0.0175                  4.760020113505372
0.0055                    -0.0165                  4.7721938048018995
0.0055                    -0.0155                  4.752642047555357
0.0055                    -0.0145                  4.70633501302581
0.0055                    -0.0135                  4.655131522868521
0.0055                    -0.0125                  4.622316422785129
0.0055                    -0.0115                  4.618310579036313
0.0055                    -0.0105                  4.643431667774556
0.0055                    -0.0095                  4.698789326116831
0.0055                    -0.0085                  4.78890387735027
0.0055                    -0.0075                  4.916332431409797
0.0055                    -0.0065                  5.076435814847125
0.0055                    -0.0055                  5.251918631010051
0.0055                    -0.0045                  5.416044280855236
0.0055                    -0.0035                  5.548173252261412
0.0055                    -0.0025                  5.638947267785122
0.0055                    -0.0015                  5.688894599782184
0.0055                    -5.0E-4                  5.7086614215383165
0.0055                    5.0E-4                   5.707420926815705
0.0055                    0.0015                   5.680356780513405
0.0055                    0.0025                   5.6123595277669
0.0055                    0.0035                   5.494837738064874
0.0055                    0.0045                   5.340525534232607
0.0055                    0.0055                   5.1785684446783895
0.0055                    0.0065                   5.032848874551483
0.0055                    0.0075                   4.912739127248005
0.0055                    0.0085                   4.820161319218744
0.0055                    0.0095                   4.754402031734574
0.0055                    0.0105                   4.712516180338206
0.0055                    0.0115                   4.690687920763628
0.0055                    0.0125                   4.687710452041451
0.0055                    0.0135                   4.705801309058625
0.0055                    0.0145                   4.742985083326525
0.0055                    0.0155                   4.785803488967707
0.0055                    0.0165                   4.814726010219667
0.0055                    0.0175                   4.817661500879445
0.0055                    0.0185                   4.79912563832844
0.0055                    0.0195                   4.772745052147365
0.0055                    0.0205                   4.746133922913086
0.0055                    0.0215                   4.7167794722225755
0.0055                    0.0225                   4.679263635015116
0.0055                    0.0235                   4.6293312955031665
0.0055                    0.0245                   4.5653211144366495
0.0055                    0.0255                   4.489892165682461
0.0055                    0.0265                   4.407712927108055
0.0055                    0.0275                   4.324200538186096
0.0055                    0.0285                   4.245149997187797
0.0055                    0.0295                   4.176753938195889
0.0055                    0.0305                   4.125572631992378
0.0055                    0.0315                   4.098024569606719
0.0065                    -0.0315                  3.9499359221848085
0.0065                    -0.0305                  3.9803727091913306
0.0065                    -0.0295                  4.036444878077794
0.0065                    -0.0285                  4.110678061652689
0.0065                    -0.0275                  4.195309345536327
0.0065                    -0.0265                  4.2827702555090905
0.0065                    -0.0255                  4.366287738719919
0.0065                    -0.0245                  4.440718923913446
0.0065                    -0.0235                  4.502917684063947
0.0065                    -0.0225                  4.551802847100484
0.0065                    -0.0215                  4.589363321249855
0.0065                    -0.0205                  4.619112585360078
0.0065                    -0.0195                  4.645959061401109
0.0065                    -0.0185                  4.67270729999875
0.0065                    -0.0175                  4.6928946396976094
0.0065                    -0.0165                  4.692532761918936
0.0065                    -0.0155                  4.663567308524806
0.0065                    -0.0145                  4.619011788154718
0.0065                    -0.0135                  4.584344618028936
0.0065                    -0.0125                  4.573851494275522
0.0065                    -0.0115                  4.586301960698984
0.0065                    -0.0105                  4.620574751022743
0.0065                    -0.0095                  4.68476897878026
0.0065                    -0.0085                  4.788250872881217
0.0065                    -0.0075                  4.932426337164868
0.0065                    -0.0065                  5.10798984472763
0.0065                    -0.0055                  5.2914881303723496
0.0065                    -0.0045                  5.453824544767004
0.0065                    -0.0035                  5.578904509247347
0.0065                    -0.0025                  5.661373434445148
0.0065                    -0.0015                  5.701723994372594
0.0065                    -5.0E-4                  5.713505069513673
0.0065                    5.0E-4                   5.710760627163962
0.0065                    0.0015                   5.688077315591696
0.0065                    0.0025                   5.627300203464502
0.0065                    0.0035                   5.516895605171279
0.0065                    0.0045                   5.365922583428687
0.0065                    0.0055                   5.20183945804506
0.0065                    0.0065                   5.049742705565503
0.0065                    0.0075                   4.921211299614765
0.0065                    0.0085                   4.819724068322062
0.0065                    0.0095                   4.746432210266256
0.0065                    0.0105                   4.69957816367971
0.0065                    0.0115                   4.67283651430605
0.0065                    0.0125                   4.660024217577126
0.0065                    0.0135                   4.661144420099974