% Model:              Benchmark260518.mph
% Version:            COMSOL 6.2.0.339
% Date:               May 20 2026, 14:16
% Dimension:          2
% Nodes:              4096
% Expressions:        1
% Description:        压力
% Length unit:        m
% x                       y                        p (Pa)
5.0E-4                    -0.0315                  3.8209305884126383
5.0E-4                    -0.0305                  3.8441376122742814
5.0E-4                    -0.0295                  3.8756937538611895
5.0E-4                    -0.0285                  3.910042762465424
5.0E-4                    -0.0275                  3.9459444660062646
5.0E-4                    -0.0265                  3.9829426865317643
5.0E-4                    -0.0255                  4.020774397782399
5.0E-4                    -0.0245                  4.0592843038068125
5.0E-4                    -0.0235                  4.098344126277961
5.0E-4                    -0.0225                  4.137852256001825
5.0E-4                    -0.0215                  4.177716894821964
5.0E-4                    -0.0205                  4.2178590198705
5.0E-4                    -0.0195                  4.258216019074253
5.0E-4                    -0.0185                  4.298744128148185
5.0E-4                    -0.0175                  4.339419050192099
5.0E-4                    -0.0165                  4.380242153296903
5.0E-4                    -0.0155                  4.421249945580622
5.0E-4                    -0.0145                  4.462508320360662
5.0E-4                    -0.0135                  4.5041041875091805
5.0E-4                    -0.0125                  4.546140278921956
5.0E-4                    -0.0115                  4.588735061144998
5.0E-4                    -0.0105                  4.632026852668851
5.0E-4                    -0.0095                  4.675396939024415
5.0E-4                    -0.0085                  4.716391495329031
5.0E-4                    -0.0075                  4.751814805031344
5.0E-4                    -0.0065                  4.777635340990374
5.0E-4                    -0.0055                  4.792510873083289
5.0E-4                    -0.0045                  4.79968564878475
5.0E-4                    -0.0035                  4.802221298544305
5.0E-4                    -0.0025                  4.8020152416638435
5.0E-4                    -0.0015                  4.800112197358526
5.0E-4                    -5.0E-4                  4.796068636995365
5.0E-4                    5.0E-4                   4.787996960478307
5.0E-4                    0.0015                   4.774187291933015
5.0E-4                    0.0025                   4.755376254205093
5.0E-4                    0.0035                   4.735481746124086
5.0E-4                    0.0045                   4.719113185962352
5.0E-4                    0.0055                   4.714968249876081
5.0E-4                    0.0065                   4.760174566759077
5.0E-4                    0.0075                   4.852885510024595
5.0E-4                    0.0085                   4.912329259479042
5.0E-4                    0.0095                   4.920171233550734
5.0E-4                    0.0105                   4.922026391135942
5.0E-4                    0.0115                   4.926506139573862
5.0E-4                    0.0125                   4.9252042634963
5.0E-4                    0.0135                   4.914457777240276
5.0E-4                    0.0145                   4.890424559401229
5.0E-4                    0.0155                   4.853775476271553
5.0E-4                    0.0165                   4.809037752116553
5.0E-4                    0.0175                   4.760766099652527
5.0E-4                    0.0185                   4.7126721944622965
5.0E-4                    0.0195                   4.666108295601173
5.0E-4                    0.0205                   4.6212954323978055
5.0E-4                    0.0215                   4.578181972455051
5.0E-4                    0.0225                   4.536534505967412
5.0E-4                    0.0235                   4.496104338994496
5.0E-4                    0.0245                   4.456683526669389
5.0E-4                    0.0255                   4.418157817612364
5.0E-4                    0.0265                   4.380518806620566
5.0E-4                    0.0275                   4.343835096618496
5.0E-4                    0.0285                   4.308326615058321
5.0E-4                    0.0295                   4.274389858567201
5.0E-4                    0.0305                   4.243188396287513
5.0E-4                    0.0315                   4.220282331507128
0.0015                    -0.0315                  3.797531544016758
0.0015                    -0.0305                  3.8208093981725333
0.0015                    -0.0295                  3.854656654684581
0.0015                    -0.0285                  3.8916984914630453
0.0015                    -0.0275                  3.9298927679978783
0.0015                    -0.0265                  3.968756973809973
0.0015                    -0.0255                  4.00814803170625
0.0015                    -0.0245                  4.048004432307838
0.0015                    -0.0235                  4.088274098874903
0.0015                    -0.0225                  4.12889083676351
0.0015                    -0.0215                  4.169774176979405
0.0015                    -0.0205                  4.210833124695935
0.0015                    -0.0195                  4.251975997172682
0.0015                    -0.0185                  4.293120985349003
0.0015                    -0.0175                  4.334209652562206
0.0015                    -0.0165                  4.375223929931297
0.0015                    -0.0155                  4.41620466107896
0.0015                    -0.0145                  4.457267500652159
0.0015                    -0.0135                  4.498610553028738
0.0015                    -0.0125                  4.540505100236498
0.0015                    -0.0115                  4.583252426314747
0.0015                    -0.0105                  4.6269313055982275
0.0015                    -0.0095                  4.670716403843479
0.0015                    -0.0085                  4.712125412022027
0.0015                    -0.0075                  4.748244351409433
0.0015                    -0.0065                  4.774800518336649
0.0015                    -0.0055                  4.790664041497263
0.0015                    -0.0045                  4.799185846969542
0.0015                    -0.0035                  4.80221665650651
0.0015                    -0.0025                  4.801170408872436
0.0015                    -0.0015                  4.797844395864265
0.0015                    -5.0E-4                  4.792820361844621
0.0015                    5.0E-4                   4.784692572683846
0.0015                    0.0015                   4.771479963369323
0.0015                    0.0025                   4.7534595012332925
0.0015                    0.0035                   4.7347434165593025
0.0015                    0.0045                   4.7232645811391425
0.0015                    0.0055                   4.731919601548934
0.0015                    0.0065                   4.808840123006369
0.0015                    0.0075                   4.914437389745634
0.0015                    0.0085                   4.948549662016445
0.0015                    0.0095                   4.9334972348000665
0.0015                    0.0105                   4.926966780598505
0.0015                    0.0115                   4.930824976221644
0.0015                    0.0125                   4.929503295636331
0.0015                    0.0135                   4.918314325374565
0.0015                    0.0145                   4.891889016347296
0.0015                    0.0155                   4.85019917299075
0.0015                    0.0165                   4.799345995960379
0.0015                    0.0175                   4.745706601039308
0.0015                    0.0185                   4.694187406834862
0.0015                    0.0195                   4.646401485055417
0.0015                    0.0205                   4.602008867223491
0.0015                    0.0215                   4.56006808991601
0.0015                    0.0225                   4.519708232732192
0.0015                    0.0235                   4.480301308640291
0.0015                    0.0245                   4.441468956005683
0.0015                    0.0255                   4.403024116365692
0.0015                    0.0265                   4.36489849092095
0.0015                    0.0275                   4.327115698867803
0.0015                    0.0285                   4.289812946207229
0.0015                    0.0295                   4.253464669256422
0.0015                    0.0305                   4.220129880885544
0.0015                    0.0315                   4.197220305567264
0.0025                    -0.0315                  3.765386587351217
0.0025                    -0.0305                  3.7866052931391385
0.0025                    -0.0295                  3.820606043268471
0.0025                    -0.0285                  3.8599163629969544
0.0025                    -0.0275                  3.9009634183855466
0.0025                    -0.0265                  3.9425689373094315
0.0025                    -0.0255                  3.9844525512475553
0.0025                    -0.0245                  4.026579326620325
0.0025                    -0.0235                  4.0689526753369005
0.0025                    -0.0225                  4.111545119299041
0.0025                    -0.0215                  4.154281253669185
0.0025                    -0.0205                  4.197043738731829
0.0025                    -0.0195                  4.239687837515466
0.0025                    -0.0185                  4.282062584633546
0.0025                    -0.0175                  4.3240386932254795
0.0025                    -0.0165                  4.3655426247602875
0.0025                    -0.0155                  4.406593568191017
0.0025                    -0.0145                  4.447339263384456
0.0025                    -0.0135                  4.48807965206888
0.0025                    -0.0125                  4.529244989970525
0.0025                    -0.0115                  4.571217719287131
0.0025                    -0.0105                  4.61392331930702
0.0025                    -0.0095                  4.65635411702755
0.0025                    -0.0085                  4.696289918774298
0.0025                    -0.0075                  4.731662723843966
0.0025                    -0.0065                  4.759835788265814
0.0025                    -0.0055                  4.779839128828243
0.0025                    -0.0045                  4.791906588994417
0.0025                    -0.0035                  4.794638729234563
0.0025                    -0.0025                  4.7898390754565465
0.0025                    -0.0015                  4.782573363852814
0.0025                    -5.0E-4                  4.7763598762638075
0.0025                    5.0E-4                   4.771427534491264
0.0025                    0.0015                   4.7662252249711985
0.0025                    0.0025                   4.7601226939512475
0.0025                    0.0035                   4.7579039813801725
0.0025                    0.0045                   4.773854281611252
0.0025                    0.0055                   4.835200257035053
0.0025                    0.0065                   4.94630031425252
0.0025                    0.0075                   5.027184000420257
0.0025                    0.0085                   5.015351016248446
0.0025                    0.0095                   4.965052684501784
0.0025                    0.0105                   4.941359358673496
0.0025                    0.0115                   4.939636056349072
0.0025                    0.0125                   4.9334251275269905
0.0025                    0.0135                   4.914985135285769
0.0025                    0.0145                   4.880090456057516
0.0025                    0.0155                   4.8295189958316165
0.0025                    0.0165                   4.770702231672842
0.0025                    0.0175                   4.711258000409401
0.0025                    0.0185                   4.656916797750187
0.0025                    0.0195                   4.609036658046296
0.0025                    0.0205                   4.566290598363983
0.0025                    0.0215                   4.526691727679077
0.0025                    0.0225                   4.48859212221419
0.0025                    0.0235                   4.450927516423973
0.0025                    0.0245                   4.413115965963611
0.0025                    0.0255                   4.374878895331375
0.0025                    0.0265                   4.336122604199753
0.0025                    0.0275                   4.296913127021704
0.0025                    0.0285                   4.257616459379995
0.0025                    0.0295                   4.219515184412667
0.0025                    0.0305                   4.186310270226579
0.0025                    0.0315                   4.165606930522026
0.0035                    -0.0315                  3.7300790126453807
0.0035                    -0.0305                  3.74891364867811
0.0035                    -0.0295                  3.781122275077651
0.0035                    -0.0285                  3.820749736941441
0.0035                    -0.0275                  3.863684461719881
0.0035                    -0.0265                  3.907827116103891
0.0035                    -0.0255                  3.952384304624668
0.0035                    -0.0245                  3.997143511840769
0.0035                    -0.0235                  4.042071977715407
0.0035                    -0.0225                  4.087143277196532
0.0035                    -0.0215                  4.132271067945725
0.0035                    -0.0205                  4.177297771381216
0.0035                    -0.0195                  4.222010478965934
0.0035                    -0.0185                  4.266168815930798
0.0035                    -0.0175                  4.3095413733027845
0.0035                    -0.0165                  4.351952767102043
0.0035                    -0.0155                  4.393336449463942
0.0035                    -0.0145                  4.433781257621124
0.0035                    -0.0135                  4.473551658601516
0.0035                    -0.0125                  4.513038003151977
0.0035                    -0.0115                  4.552573953697848
0.0035                    -0.0105                  4.592035634286464
0.0035                    -0.0095                  4.6304324730440785
0.0035                    -0.0085                  4.666695489187406
0.0035                    -0.0075                  4.699969607165445
0.0035                    -0.0065                  4.7296381610408265
0.0035                    -0.0055                  4.7540756628152865
0.0035                    -0.0045                  4.767848426356725
0.0035                    -0.0035                  4.766742335431892
0.0035                    -0.0025                  4.755370372959183
0.0035                    -0.0015                  4.7433348474278985
0.0035                    -5.0E-4                  4.738052174442136
0.0035                    5.0E-4                   4.742486109538619
0.0035                    0.0015                   4.756805315229744
0.0035                    0.0025                   4.780770242807751
0.0035                    0.0035                   4.818533889028782
0.0035                    0.0045                   4.883129057677633
0.0035                    0.0055                   4.985298522748794
0.0035                    0.0065                   5.096399521160586
0.0035                    0.0075                   5.144027815226067
0.0035                    0.0085                   5.096511912448877
0.0035                    0.0095                   5.012977602338836
0.0035                    0.0105                   4.962655219771957
0.0035                    0.0115                   4.945414576620312
0.0035                    0.0125                   4.9272072379570195
0.0035                    0.0135                   4.893742516955309
0.0035                    0.0145                   4.843769325409593
0.0035                    0.0155                   4.782106426996172
0.0035                    0.0165                   4.717419184252609
0.0035                    0.0175                   4.656388206577406
0.0035                    0.0185                   4.603435507628996
0.0035                    0.0195                   4.5584528013405405
0.0035                    0.0205                   4.519082691815974
0.0035                    0.0215                   4.482716857265084
0.0035                    0.0225                   4.4473470357703775
0.0035                    0.0235                   4.411712289278635
0.0035                    0.0245                   4.375118583107765
0.0035                    0.0255                   4.337250486910462
0.0035                    0.0265                   4.2980893051949876
0.0035                    0.0275                   4.2579683981015
0.0035                    0.0285                   4.217883558886859
0.0035                    0.0295                   4.1801602694417355
0.0035                    0.0305                   4.149165980216921
0.0035                    0.0315                   4.131073512846916
0.0045                    -0.0315                  3.6930252394155683
0.0045                    -0.0305                  3.709886671016367
0.0045                    -0.0295                  3.7398741762448915
0.0045                    -0.0285                  3.7784549280165867
0.0045                    -0.0275                  3.8219204075839888
0.0045                    -0.0265                  3.867752267741928
0.0045                    -0.0255                  3.914587832854698
0.0045                    -0.0245                  3.961856480914265
0.0045                    -0.0235                  4.009372824749978
0.0045                    -0.0225                  4.0570610242295455
0.0045                    -0.0215                  4.10480872244216
0.0045                    -0.0205                  4.152413171336755
0.0045                    -0.0195                  4.199586554843547
0.0045                    -0.0185                  4.245988610919723
0.0045                    -0.0175                  4.291265190859128
0.0045                    -0.0165                  4.335091644674845
0.0045                    -0.0155                  4.377227583138852
0.0045                    -0.0145                  4.417564881934763
0.0045                    -0.0135                  4.4561427112296546
0.0045                    -0.0125                  4.493113373314972
0.0045                    -0.0115                  4.52865879186387
0.0045                    -0.0105                  4.56286113280336
0.0045                    -0.0095                  4.595573837956353
0.0045                    -0.0085                  4.627355468425084
0.0045                    -0.0075                  4.657975997532624
0.0045                    -0.0065                  4.6870268603901515
0.0045                    -0.0055                  4.711719142670581
0.0045                    -0.0045                  4.723280824523303
0.0045                    -0.0035                  4.71741016362398
0.0045                    -0.0025                  4.702359512767147
0.0045                    -0.0015                  4.691517508529257
0.0045                    -5.0E-4                  4.693571122262376
0.0045                    5.0E-4                   4.711358131078296
0.0045                    0.0015                   4.746593435216159
0.0045                    0.0025                   4.801497609564725
0.0045                    0.0035                   4.8784895757968805
0.0045                    0.0045                   4.979106196400474
0.0045                    0.0055                   5.094245308862135
0.0045                    0.0065                   5.188922556131434
0.0045                    0.0075                   5.213027708346683
0.0045                    0.0085                   5.149868541346542
0.0045                    0.0095                   5.045499613049331
0.0045                    0.0105                   4.965393145465213
0.0045                    0.0115                   4.9247594346766155
0.0045                    0.0125                   4.891456852857793
0.0045                    0.0135                   4.8420765305371845
0.0045                    0.0145                   4.776965376167422
0.0045                    0.0155                   4.706887983752581
0.0045                    0.0165                   4.641696947479852
0.0045                    0.0175                   4.585394320543981
0.0045                    0.0185                   4.538761458811666
0.0045                    0.0195                   4.499614742118692
0.0045                    0.0205                   4.46498960887776
0.0045                    0.0215                   4.432300489327529
0.0045                    0.0225                   4.3997346956621355
0.0045                    0.0235                   4.366125551833852
0.0045                    0.0245                   4.330791950620723
0.0045                    0.0255                   4.293487527105028
0.0045                    0.0265                   4.254413962579562
0.0045                    0.0275                   4.21435423099574
0.0045                    0.0285                   4.174969019819625
0.0045                    0.0295                   4.1391035537419025
0.0045                    0.0305                   4.110825110432357
0.0045                    0.0315                   4.094921015970623
0.0055                    -0.0315                  3.654694865501512
0.0055                    -0.0305                  3.6700820785151707
0.0055                    -0.0295                  3.698093303165614
0.0055                    -0.0285                  3.7352076907500416
0.0055                    -0.0275                  3.7783061548257013
0.0055                    -0.0265                  3.824920320071338
0.0055                    -0.0255                  3.8733600238206805
0.0055                    -0.0245                  3.9226827388002534
0.0055                    -0.0235                  3.9724739300539076
0.0055                    -0.0225                  4.022572477799704
0.0055                    -0.0215                  4.072848266794874
0.0055                    -0.0205                  4.123074682629728
0.0055                    -0.0195                  4.172899277670091
0.0055                    -0.0185                  4.221877807489525
0.0055                    -0.0175                  4.26952114143033
0.0055                    -0.0165                  4.315322410802498
0.0055                    -0.0155                  4.358779218065075
0.0055                    -0.0145                  4.399440660553663
0.0055                    -0.0135                  4.436955968067684
0.0055                    -0.0125                  4.471130561772786
0.0055                    -0.0115                  4.502027082909463
0.0055                    -0.0105                  4.5301546048740295
0.0055                    -0.0095                  4.556843298690389
0.0055                    -0.0085                  4.583845292311768
0.0055                    -0.0075                  4.611501708625248
0.0055                    -0.0065                  4.6381492981045005
0.0055                    -0.0055                  4.659670720899657
0.0055                    -0.0045                  4.668612457099822
0.0055                    -0.0035                  4.6630210814989095
0.0055                    -0.0025                  4.653508531562007
0.0055                    -0.0015                  4.652691721150445
0.0055                    -5.0E-4                  4.665805151900584
0.0055                    5.0E-4                   4.694638723072124
0.0055                    0.0015                   4.742479093808592
0.0055                    0.0025                   4.812681206907658
0.0055                    0.0035                   4.905255373679918
0.0055                    0.0045                   5.013908748754408
0.0055                    0.0055                   5.120777178346297
0.0055                    0.0065                   5.194753916846798
0.0055                    0.0075                   5.204980062659663
0.0055                    0.0085                   5.140419402529907
0.0055                    0.0095                   5.027099725094281
0.0055                    0.0105                   4.92309701486486
0.0055                    0.0115                   4.85978113743573
0.0055                    0.0125                   4.813038780856914
0.0055                    0.0135                   4.754414728615988
0.0055                    0.0145                   4.68292181903936
0.0055                    0.0155                   4.6127582706512875
0.0055                    0.0165                   4.554077259716118
0.0055                    0.0175                   4.507179054846565
0.0055                    0.0185                   4.46935493091731
0.0055                    0.0195                   4.437223867565318
0.0055                    0.0205                   4.407671345461757
0.0055                    0.0215                   4.378634273617639
0.0055                    0.0225                   4.3487417247711075
0.0055                    0.0235                   4.317011329856076
0.0055                    0.0245                   4.282900136772335
0.0055                    0.0255                   4.246369916424772
0.0055                    0.0265                   4.207949798064364
0.0055                    0.0275                   4.168857547649916
0.0055                    0.0285                   4.131124804001104
0.0055                    0.0295                   4.0975953519733075
0.0055                    0.0305                   4.071802311222298
0.0055                    0.0315                   4.057586063097015
0.0065                    -0.0315                  3.6152815343652205
0.0065                    -0.0305                  3.6296117535022305
0.0065                    -0.0295                  3.6560871994595905
0.0065                    -0.0285                  3.6918638982624516
0.0065                    -0.0275                  3.7343104197606696
0.0065                    -0.0265                  3.7811510127484587
0.0065                    -0.0255                  3.830585680807989
0.0065                    -0.0245                  3.881398999126521
0.0065                    -0.0235                  3.9329391559077584
0.0065                    -0.0225                  3.9849504690069715
0.0065                    -0.0215                  4.037330767420375
0.0065                    -0.0205                  4.089908548588426
0.0065                    -0.0195                  4.142325464609425
0.0065                    -0.0185                  4.194047516304215
0.0065                    -0.0175                  4.2444339747881035
0.0065                    -0.0165                  4.2927765938544145
0.0065                    -0.0155                  4.338268044059982
0.0065                    -0.0145                  4.37999937207764
0.0065                    -0.0135                  4.417102833354872
0.0065                    -0.0125                  4.4490045792682515
0.0065                    -0.0115                  4.475789380196621
0.0065                    -0.0105                  4.498670669220323
0.0065                    -0.0095                  4.520068149870511
0.0065                    -0.0085                  4.5422805473783665
0.0065                    -0.0075                  4.566075726359375
0.0065                    -0.0065                  4.589575585024521
0.0065                    -0.0055                  4.6088113527112045
0.0065                    -0.0045                  4.618515957209156
0.0065                    -0.0035                  4.619283379444233
0.0065                    -0.0025                  4.620798778678783
0.0065                    -0.0015                  4.630504463239982
0.0065                    -5.0E-4                  4.650982655308166
0.0065                    5.0E-4                   4.686344288210455
0.0065                    0.0015                   4.741372290387258
0.0065                    0.0025                   4.8171855866866125
0.0065                    0.0035                   4.909833532028301
0.0065                    0.0045                   5.008983177622273
0.0065                    0.0055                   5.096198724843491
0.0065                    0.0065                   5.147912204344017
0.0065                    0.0075                   5.144431197398661
0.0065                    0.0085                   5.07692906995043
0.0065                    0.0095                   4.9609989453487495
0.0065                    0.0105                   4.845752339372646
0.0065                    0.0115                   4.765907005727241
0.0065                    0.0125                   4.7073730922222214