% Model:              Benchmark260518.mph
% Version:            COMSOL 6.2.0.339
% Date:               May 21 2026, 10:14
% Dimension:          2
% Nodes:              4096
% Expressions:        1
% Description:        压力
% Length unit:        m
% x                       y                        p (Pa)
5.0E-4                    -0.0315                  3.9816336589549315
5.0E-4                    -0.0305                  4.0042286899260695
5.0E-4                    -0.0295                  4.035012610590811
5.0E-4                    -0.0285                  4.068509097286437
5.0E-4                    -0.0275                  4.1035954636588015
5.0E-4                    -0.0265                  4.139898290680159
5.0E-4                    -0.0255                  4.177205329576957
5.0E-4                    -0.0245                  4.215459276431863
5.0E-4                    -0.0235                  4.254686839299138
5.0E-4                    -0.0225                  4.294980679692871
5.0E-4                    -0.0215                  4.336495088109361
5.0E-4                    -0.0205                  4.379431253297714
5.0E-4                    -0.0195                  4.423991433073975
5.0E-4                    -0.0185                  4.470333245717654
5.0E-4                    -0.0175                  4.518473924560221
5.0E-4                    -0.0165                  4.568272305161528
5.0E-4                    -0.0155                  4.6185525289897615
5.0E-4                    -0.0145                  4.6657649926828295
5.0E-4                    -0.0135                  4.7055930852012136
5.0E-4                    -0.0125                  4.7333518672966255
5.0E-4                    -0.0115                  4.747660722570821
5.0E-4                    -0.0105                  4.751880525349167
5.0E-4                    -0.0095                  4.749360869509894
5.0E-4                    -0.0085                  4.763549547990133
5.0E-4                    -0.0075                  4.816618255485171
5.0E-4                    -0.0065                  4.879735278917764
5.0E-4                    -0.0055                  4.921068436307319
5.0E-4                    -0.0045                  4.945984002875593
5.0E-4                    -0.0035                  4.965280088981775
5.0E-4                    -0.0025                  4.982463862882914
5.0E-4                    -0.0015                  4.997706395408667
5.0E-4                    -5.0E-4                  5.008944580901256
5.0E-4                    5.0E-4                   5.01391005866187
5.0E-4                    0.0015                   5.011590455047592
5.0E-4                    0.0025                   5.002475777110295
5.0E-4                    0.0035                   4.986907432537784
5.0E-4                    0.0045                   4.962683975508556
5.0E-4                    0.0055                   4.924425268265143
5.0E-4                    0.0065                   4.86344465308102
5.0E-4                    0.0075                   4.788663906821963
5.0E-4                    0.0085                   4.739798146013782
5.0E-4                    0.0095                   4.731283800941823
5.0E-4                    0.0105                   4.735475425082745
5.0E-4                    0.0115                   4.734620929903528
5.0E-4                    0.0125                   4.725809273706206
5.0E-4                    0.0135                   4.705742299206908
5.0E-4                    0.0145                   4.674904441810322
5.0E-4                    0.0155                   4.636972944691826
5.0E-4                    0.0165                   4.5956189791587585
5.0E-4                    0.0175                   4.553841754460256
5.0E-4                    0.0185                   4.512697912422481
5.0E-4                    0.0195                   4.4723546147372755
5.0E-4                    0.0205                   4.432875959777421
5.0E-4                    0.0215                   4.394209911695354
5.0E-4                    0.0225                   4.356261935212947
5.0E-4                    0.0235                   4.318953588956743
5.0E-4                    0.0245                   4.282245396995188
5.0E-4                    0.0255                   4.246144983253819
5.0E-4                    0.0265                   4.210723751325681
5.0E-4                    0.0275                   4.176123478102635
5.0E-4                    0.0285                   4.14261580608828
5.0E-4                    0.0295                   4.110597095520042
5.0E-4                    0.0305                   4.08114450135004
5.0E-4                    0.0315                   4.059475304164506
0.0015                    -0.0315                  3.958824263959991
0.0015                    -0.0305                  3.981383220486872
0.0015                    -0.0295                  4.014191067783258
0.0015                    -0.0285                  4.0499383474546065
0.0015                    -0.0275                  4.086624359929737
0.0015                    -0.0265                  4.123807810746055
0.0015                    -0.0255                  4.1613770041322
0.0015                    -0.0245                  4.199333866880563
0.0015                    -0.0235                  4.237772653618265
0.0015                    -0.0225                  4.276875264121766
0.0015                    -0.0215                  4.316928272840822
0.0015                    -0.0205                  4.358347406867061
0.0015                    -0.0195                  4.401696515307265
0.0015                    -0.0185                  4.447676584097389
0.0015                    -0.0175                  4.497026340985197
0.0015                    -0.0165                  4.549987745748038
0.0015                    -0.0155                  4.6050860409581365
0.0015                    -0.0145                  4.657781444455761
0.0015                    -0.0135                  4.702383323869924
0.0015                    -0.0125                  4.732989385456374
0.0015                    -0.0115                  4.74921739378825
0.0015                    -0.0105                  4.755945463719735
0.0015                    -0.0095                  4.757058377695612
0.0015                    -0.0085                  4.760874903665338
0.0015                    -0.0075                  4.7983892881696075
0.0015                    -0.0065                  4.854547803448467
0.0015                    -0.0055                  4.89166027539221
0.0015                    -0.0045                  4.9170843241084095
0.0015                    -0.0035                  4.938348333967747
0.0015                    -0.0025                  4.9586937895490255
0.0015                    -0.0015                  4.978225856666253
0.0015                    -5.0E-4                  4.992532362864736
0.0015                    5.0E-4                   4.996464562533497
0.0015                    0.0015                   4.990203635335131
0.0015                    0.0025                   4.9776877156105925
0.0015                    0.0035                   4.961074152038721
0.0015                    0.0045                   4.9386691627851365
0.0015                    0.0055                   4.904381939044568
0.0015                    0.0065                   4.849745685409799
0.0015                    0.0075                   4.777474467584685
0.0015                    0.0085                   4.737528766786335
0.0015                    0.0095                   4.737606274418666
0.0015                    0.0105                   4.7396044731836415
0.0015                    0.0115                   4.738423153605152
0.0015                    0.0125                   4.729734659454752
0.0015                    0.0135                   4.708985585101762
0.0015                    0.0145                   4.675688324875852
0.0015                    0.0155                   4.634184870414765
0.0015                    0.0165                   4.5892909058720415
0.0015                    0.0175                   4.544867812307054
0.0015                    0.0185                   4.502310426308269
0.0015                    0.0195                   4.46158202118249
0.0015                    0.0205                   4.422225355586268
0.0015                    0.0215                   4.38379819658528
0.0015                    0.0225                   4.345966305860776
0.0015                    0.0235                   4.308515702971585
0.0015                    0.0245                   4.271337700478881
0.0015                    0.0255                   4.234406763454146
0.0015                    0.0265                   4.197761492157147
0.0015                    0.0275                   4.161502513348389
0.0015                    0.0285                   4.1258097640785305
0.0015                    0.0295                   4.091142924223501
0.0015                    0.0305                   4.059423064804654
0.0015                    0.0315                   4.037616276138738
0.0025                    -0.0315                  3.9275513360132863
0.0025                    -0.0305                  3.947810542099163
0.0025                    -0.0295                  3.9802993376217524
0.0025                    -0.0285                  4.017524936925248
0.0025                    -0.0275                  4.055864604783994
0.0025                    -0.0265                  4.094090399018345
0.0025                    -0.0255                  4.131877676919909
0.0025                    -0.0245                  4.169202282372064
0.0025                    -0.0235                  4.206198290558385
0.0025                    -0.0225                  4.24315454199486
0.0025                    -0.0215                  4.280551037048579
0.0025                    -0.0205                  4.319121535894274
0.0025                    -0.0195                  4.35992492952129
0.0025                    -0.0185                  4.4043663633373535
0.0025                    -0.0175                  4.453987943567447
0.0025                    -0.0165                  4.509678360327151
0.0025                    -0.0155                  4.569936834941626
0.0025                    -0.0145                  4.629460006082186
0.0025                    -0.0135                  4.681659945946334
0.0025                    -0.0125                  4.7198968351961454
0.0025                    -0.0115                  4.744221320537132
0.0025                    -0.0105                  4.757827977144009
0.0025                    -0.0095                  4.762469572938623
0.0025                    -0.0085                  4.772007116317033
0.0025                    -0.0075                  4.799407702855422
0.0025                    -0.0065                  4.834616520626372
0.0025                    -0.0055                  4.865091216430859
0.0025                    -0.0045                  4.89070684138156
0.0025                    -0.0035                  4.913545845011951
0.0025                    -0.0025                  4.935479623014705
0.0025                    -0.0015                  4.956182674500592
0.0025                    -5.0E-4                  4.970903029288449
0.0025                    5.0E-4                   4.974189009566512
0.0025                    0.0015                   4.966328086274226
0.0025                    0.0025                   4.952053832141156
0.0025                    0.0035                   4.934881080435993
0.0025                    0.0045                   4.914302804194084
0.0025                    0.0055                   4.885793625898627
0.0025                    0.0065                   4.844867615474401
0.0025                    0.0075                   4.794705387504328
0.0025                    0.0085                   4.758409714312549
0.0025                    0.0095                   4.748849938993428
0.0025                    0.0105                   4.748029734702875
0.0025                    0.0115                   4.742110916625264
0.0025                    0.0125                   4.728696312451756
0.0025                    0.0135                   4.703688068141423
0.0025                    0.0145                   4.666027626754568
0.0025                    0.0155                   4.620387084709584
0.0025                    0.0165                   4.57209599211832
0.0025                    0.0175                   4.525478810505773
0.0025                    0.0185                   4.482023784161852
0.0025                    0.0195                   4.441352444958876
0.0025                    0.0205                   4.402490915585107
0.0025                    0.0215                   4.364536422514409
0.0025                    0.0225                   4.32685312500944
0.0025                    0.0235                   4.289064671619284
0.0025                    0.0245                   4.250994419191407
0.0025                    0.0255                   4.212601843465974
0.0025                    0.0265                   4.173939711873132
0.0025                    0.0275                   4.135157221602871
0.0025                    0.0285                   4.096643646445263
0.0025                    0.0295                   4.059622208128203
0.0025                    0.0305                   4.0275582464291135
0.0025                    0.0315                   4.0075745606927216
0.0035                    -0.0315                  3.893432518368568
0.0035                    -0.0305                  3.9109273488603487
0.0035                    -0.0295                  3.940920780831165
0.0035                    -0.0285                  3.9773831985470944
0.0035                    -0.0275                  4.016052232256598
0.0035                    -0.0265                  4.054678476766754
0.0035                    -0.0255                  4.092318251071163
0.0035                    -0.0245                  4.1286804676254185
0.0035                    -0.0235                  4.163822057020925
0.0035                    -0.0225                  4.1980778658204105
0.0035                    -0.0215                  4.23208814377568
0.0035                    -0.0205                  4.2668646219802575
0.0035                    -0.0195                  4.303857580587803
0.0035                    -0.0185                  4.344939549490832
0.0035                    -0.0175                  4.392139038421069
0.0035                    -0.0165                  4.4469032382215
0.0035                    -0.0155                  4.508583021351838
0.0035                    -0.0145                  4.572722247317482
0.0035                    -0.0135                  4.633673367838215
0.0035                    -0.0125                  4.68415938282792
0.0035                    -0.0115                  4.720365888735538
0.0035                    -0.0105                  4.741184724357653
0.0035                    -0.0095                  4.749268982785595
0.0035                    -0.0085                  4.759079050947607
0.0035                    -0.0075                  4.780754434478617
0.0035                    -0.0065                  4.808821628656627
0.0035                    -0.0055                  4.836498827702038
0.0035                    -0.0045                  4.862719054932855
0.0035                    -0.0035                  4.887408773173263
0.0035                    -0.0025                  4.910738437555978
0.0035                    -0.0015                  4.931195798431824
0.0035                    -5.0E-4                  4.944922584908885
0.0035                    5.0E-4                   4.947965218008495
0.0035                    0.0015                   4.939964663682132
0.0035                    0.0025                   4.925153749448642
0.0035                    0.0035                   4.907833962042797
0.0035                    0.0045                   4.888352197380614
0.0035                    0.0055                   4.863988452015122
0.0035                    0.0065                   4.832167192753163
0.0035                    0.0075                   4.7952646108209
0.0035                    0.0085                   4.76636715235742
0.0035                    0.0095                   4.755649344179399
0.0035                    0.0105                   4.75157245106244
0.0035                    0.0115                   4.738595898241129
0.0035                    0.0125                   4.715329943549463
0.0035                    0.0135                   4.681506413070096
0.0035                    0.0145                   4.638056030110253
0.0035                    0.0155                   4.590103531290912
0.0035                    0.0165                   4.541533387046314
0.0035                    0.0175                   4.495735904654867
0.0035                    0.0185                   4.453523962783836
0.0035                    0.0195                   4.4141343446541965
0.0035                    0.0205                   4.376340837489941
0.0035                    0.0215                   4.339022591127619
0.0035                    0.0225                   4.301390458740876
0.0035                    0.0235                   4.263002893514457
0.0035                    0.0245                   4.223690121750892
0.0035                    0.0255                   4.183474547373471
0.0035                    0.0265                   4.142539857650998
0.0035                    0.0275                   4.101312722931049
0.0035                    0.0285                   4.060784254841627
0.0035                    0.0295                   4.023159334339907
0.0035                    0.0305                   3.9925166548140916
0.0035                    0.0315                   3.9746343021249553
0.0045                    -0.0315                  3.8577440966214636
0.0045                    -0.0305                  3.872855565050169
0.0045                    -0.0295                  3.8997599549327915
0.0045                    -0.0285                  3.9338713368205576
0.0045                    -0.0275                  3.9712720849234353
0.0045                    -0.0265                  4.0092217053192245
0.0045                    -0.0255                  4.046119692800365
0.0045                    -0.0245                  4.08121231083565
0.0045                    -0.0235                  4.11431401964308
0.0045                    -0.0225                  4.145683455425468
0.0045                    -0.0215                  4.176012132346996
0.0045                    -0.0205                  4.206453239445068
0.0045                    -0.0195                  4.2386319609795535
0.0045                    -0.0185                  4.274569024792547
0.0045                    -0.0175                  4.316432502278691
0.0045                    -0.0165                  4.365981743999896
0.0045                    -0.0155                  4.4237514618634695
0.0045                    -0.0145                  4.488083328272167
0.0045                    -0.0135                  4.55533183635014
0.0045                    -0.0125                  4.6175351381387655
0.0045                    -0.0115                  4.665021110291042
0.0045                    -0.0105                  4.693610033569532
0.0045                    -0.0095                  4.70926034140186
0.0045                    -0.0085                  4.725737558273517
0.0045                    -0.0075                  4.7497208473630135
0.0045                    -0.0065                  4.777468435581983
0.0045                    -0.0055                  4.805503601262576
0.0045                    -0.0045                  4.832943522758568
0.0045                    -0.0035                  4.859080497083339
0.0045                    -0.0025                  4.882903043752377
0.0045                    -0.0015                  4.9025163310866136
0.0045                    -5.0E-4                  4.915256571393147
0.0045                    5.0E-4                   4.918755250204664
0.0045                    0.0015                   4.912220295046556
0.0045                    0.0025                   4.898323931657318
0.0045                    0.0035                   4.880840814222059
0.0045                    0.0045                   4.860879817566579
0.0045                    0.0055                   4.837411454084419
0.0045                    0.0065                   4.8094046220827185
0.0045                    0.0075                   4.778785245921193
0.0045                    0.0085                   4.753805625149175
0.0045                    0.0095                   4.741752654491349
0.0045                    0.0105                   4.734486126085912
0.0045                    0.0115                   4.7156385278507145
0.0045                    0.0125                   4.6816205321444855
0.0045                    0.0135                   4.637963270835703
0.0045                    0.0145                   4.590397754517618
0.0045                    0.0155                   4.543457998408438
0.0045                    0.0165                   4.4988549453197155
0.0045                    0.0175                   4.457521813367906
0.0045                    0.0185                   4.419046528876748
0.0045                    0.0195                   4.382360731749521
0.0045                    0.0205                   4.346234899678174
0.0045                    0.0215                   4.309632809593365
0.0045                    0.0225                   4.27186633447257
0.0045                    0.0235                   4.23260193725908
0.0045                    0.0245                   4.191797945480291
0.0045                    0.0255                   4.149652276792635
0.0045                    0.0265                   4.106626406067089
0.0045                    0.0275                   4.063608978391532
0.0045                    0.0285                   4.022235852402656
0.0045                    0.0295                   3.9852053629008615
0.0045                    0.0305                   3.956318725555673
0.0045                    0.0315                   3.9400999488840585
0.0055                    -0.0315                  3.8209255034626373
0.0055                    -0.0305                  3.8341164808153243
0.0055                    -0.0295                  3.858089294129307
0.0055                    -0.0285                  3.88926893502324
0.0055                    -0.0275                  3.9243375719013964
0.0055                    -0.0265                  3.960603726529487
0.0055                    -0.0255                  3.9961169370523426
0.0055                    -0.0245                  4.02967747600895
0.0055                    -0.0235                  4.060741042237683
0.0055                    -0.0225                  4.089339764231903
0.0055                    -0.0215                  4.116059806196233
0.0055                    -0.0205                  4.142030779620777
0.0055                    -0.0195                  4.168878507521155
0.0055                    -0.0185                  4.198610167303876
0.0055                    -0.0175                  4.233389056324386
0.0055                    -0.0165                  4.275236189126494
0.0055                    -0.0155                  4.325596387791008
0.0055                    -0.0145                  4.385183083291841
0.0055                    -0.0135                  4.452832111520284
0.0055                    -0.0125                  4.520812574953652
0.0055                    -0.0115                  4.5775229416580885
0.0055                    -0.0105                  4.6185630054333755
0.0055                    -0.0095                  4.649815217861219
0.0055                    -0.0085                  4.67981991875663
0.0055                    -0.0075                  4.7110448732821295
0.0055                    -0.0065                  4.741851828611459
0.0055                    -0.0055                  4.771620823908444
0.0055                    -0.0045                  4.800105906571232
0.0055                    -0.0035                  4.826598794340358
0.0055                    -0.0025                  4.849984382121739
0.0055                    -0.0015                  4.868773346603582
0.0055                    -5.0E-4                  4.881237150643193
0.0055                    5.0E-4                   4.885905844845892
0.0055                    0.0015                   4.882027394637003
0.0055                    0.0025                   4.87031944078827
0.0055                    0.0035                   4.852801790333688
0.0055                    0.0045                   4.83125817447881
0.0055                    0.0055                   4.806239851274044
0.0055                    0.0065                   4.777414289265849
0.0055                    0.0075                   4.74577375731055
0.0055                    0.0085                   4.718064386521377
0.0055                    0.0095                   4.701017158762394
0.0055                    0.0105                   4.68837421449511
0.0055                    0.0115                   4.664549758925638
0.0055                    0.0125                   4.623672907741289
0.0055                    0.0135                   4.57499530541501
0.0055                    0.0145                   4.528057841736114
0.0055                    0.0155                   4.485982889171717
0.0055                    0.0165                   4.448530983521209
0.0055                    0.0175                   4.414094241764077
0.0055                    0.0185                   4.381120228723296
0.0055                    0.0195                   4.348174226617077
0.0055                    0.0205                   4.314126429999433
0.0055                    0.0215                   4.278235327795501
0.0055                    0.0225                   4.240134648282371
0.0055                    0.0235                   4.199770181403932
0.0055                    0.0245                   4.15735469071731
0.0055                    0.0255                   4.113371140728178
0.0055                    0.0265                   4.068653252575081
0.0055                    0.0275                   4.024545197440976
0.0055                    0.0285                   3.9830631395284275
0.0055                    0.0295                   3.946928585217059
0.0055                    0.0305                   3.9194799155158244
0.0055                    0.0315                   3.9043979323274045
0.0065                    -0.0315                  3.783238204449515
0.0065                    -0.0305                  3.7948763587733874
0.0065                    -0.0295                  3.816286761764804
0.0065                    -0.0285                  3.844554274063108
0.0065                    -0.0275                  3.876886865536508
0.0065                    -0.0265                  3.9108682071305636
0.0065                    -0.0255                  3.9445206279014013
0.0065                    -0.0245                  3.9763906560604707
0.0065                    -0.0235                  4.005587638404587
0.0065                    -0.0225                  4.031803909904643
0.0065                    -0.0215                  4.055355690190912
0.0065                    -0.0205                  4.077209750644745
0.0065                    -0.0195                  4.0989397166384425
0.0065                    -0.0185                  4.12259057406334
0.0065                    -0.0175                  4.150484849506833
0.0065                    -0.0165                  4.18494010167578
0.0065                    -0.0155                  4.22812340691516
0.0065                    -0.0145                  4.281330332823075
0.0065                    -0.0135                  4.344124380067297
0.0065                    -0.0125                  4.4104283229304055
0.0065                    -0.0115                  4.472730654766485
0.0065                    -0.0105                  4.527939207959028
0.0065                    -0.0095                  4.577981983615256
0.0065                    -0.0085                  4.624248883111531
0.0065                    -0.0075                  4.66471527061374
0.0065                    -0.0065                  4.700027842425151
0.0065                    -0.0055                  4.731935992642524
0.0065                    -0.0045                  4.76104137200433
0.0065                    -0.0035                  4.787215590333845
0.0065                    -0.0025                  4.80994135210621
0.0065                    -0.0015                  4.828292679399316
0.0065                    -5.0E-4                  4.841165614749414
0.0065                    5.0E-4                   4.8474606766992805
0.0065                    0.0015                   4.846325606749072
0.0065                    0.0025                   4.837307878878497
0.0065                    0.0035                   4.820734085187393
0.0065                    0.0045                   4.797961541363058
0.0065                    0.0055                   4.77020047639304
0.0065                    0.0065                   4.737241334176351
0.0065                    0.0075                   4.69962828189475
0.0065                    0.0085                   4.664325992498295
0.0065                    0.0095                   4.639470735145343
0.0065                    0.0105                   4.619760552104431
0.0065                    0.0115                   4.591396889704191
0.0065                    0.0125                   4.550189542549307
0.0065                    0.0135                   4.504060170664911