% Model:              Benchmark260518.mph
% Version:            COMSOL 6.2.0.339
% Date:               May 20 2026, 13:37
% Dimension:          2
% Nodes:              4096
% Expressions:        1
% Description:        压力
% Length unit:        m
% x                       y                        p (Pa)
5.0E-4                    -0.0315                  2.9176944031332037
5.0E-4                    -0.0305                  2.9652295887892883
5.0E-4                    -0.0295                  3.0300434126411724
5.0E-4                    -0.0285                  3.100632133680417
5.0E-4                    -0.0275                  3.174672867052828
5.0E-4                    -0.0265                  3.251366349619675
5.0E-4                    -0.0255                  3.3302426355801957
5.0E-4                    -0.0245                  3.4111748855492947
5.0E-4                    -0.0235                  3.4943409546275563
5.0E-4                    -0.0225                  3.5802906002284236
5.0E-4                    -0.0215                  3.6698667953993773
5.0E-4                    -0.0205                  3.7639170542914187
5.0E-4                    -0.0195                  3.862887164199841
5.0E-4                    -0.0185                  3.9665613715220003
5.0E-4                    -0.0175                  4.074124498692628
5.0E-4                    -0.0165                  4.184645727681049
5.0E-4                    -0.0155                  4.297158532574626
5.0E-4                    -0.0145                  4.410333774678054
5.0E-4                    -0.0135                  4.52081216017179
5.0E-4                    -0.0125                  4.6206716759903035
5.0E-4                    -0.0115                  4.700186317457994
5.0E-4                    -0.0105                  4.750562842363918
5.0E-4                    -0.0095                  4.773303647561019
5.0E-4                    -0.0085                  4.780475712682222
5.0E-4                    -0.0075                  4.7808922778796985
5.0E-4                    -0.0065                  4.778271981834127
5.0E-4                    -0.0055                  4.773836856546033
5.0E-4                    -0.0045                  4.767910864349486
5.0E-4                    -0.0035                  4.761420264491709
5.0E-4                    -0.0025                  4.7560288906628765
5.0E-4                    -0.0015                  4.753002416246396
5.0E-4                    -5.0E-4                  4.751832414422387
5.0E-4                    5.0E-4                   4.74979479029516
5.0E-4                    0.0015                   4.743338613690889
5.0E-4                    0.0025                   4.730266719774106
5.0E-4                    0.0035                   4.711012876655271
5.0E-4                    0.0045                   4.6884282599518805
5.0E-4                    0.0055                   4.6655832257840695
5.0E-4                    0.0065                   4.643900667850767
5.0E-4                    0.0075                   4.646682461301269
5.0E-4                    0.0085                   4.741418870231047
5.0E-4                    0.0095                   4.90544825603145
5.0E-4                    0.0105                   5.029665858667118
5.0E-4                    0.0115                   5.085751897461358
5.0E-4                    0.0125                   5.096552891084507
5.0E-4                    0.0135                   5.081576134022394
5.0E-4                    0.0145                   5.058074251635965
5.0E-4                    0.0155                   5.03636540486596
5.0E-4                    0.0165                   5.020697938938758
5.0E-4                    0.0175                   5.011440144723498
5.0E-4                    0.0185                   5.0073864851441225
5.0E-4                    0.0195                   5.007147192742759
5.0E-4                    0.0205                   5.008898030513346
5.0E-4                    0.0215                   5.009661993438142
5.0E-4                    0.0225                   5.0070261151013264
5.0E-4                    0.0235                   4.998801664000263
5.0E-4                    0.0245                   4.979599939090626
5.0E-4                    0.0255                   4.950727913825579
5.0E-4                    0.0265                   4.919242461622397
5.0E-4                    0.0275                   4.88806529792773
5.0E-4                    0.0285                   4.858486291283124
5.0E-4                    0.0295                   4.831118219459763
5.0E-4                    0.0305                   4.8068681568356855
5.0E-4                    0.0315                   4.789426770576696
0.0015                    -0.0315                  2.869612816893774
0.0015                    -0.0305                  2.916800309395278
0.0015                    -0.0295                  2.9854812824383843
0.0015                    -0.0285                  3.0604256963090104
0.0015                    -0.0275                  3.137604621296526
0.0015                    -0.0265                  3.2161848004177624
0.0015                    -0.0255                  3.295868491401367
0.0015                    -0.0245                  3.37646776996852
0.0015                    -0.0235                  3.4580377775950404
0.0015                    -0.0225                  3.54119962481897
0.0015                    -0.0215                  3.627423927378935
0.0015                    -0.0205                  3.7189373589820947
0.0015                    -0.0195                  3.8179928603212177
0.0015                    -0.0185                  3.9257413050836503
0.0015                    -0.0175                  4.041466066991008
0.0015                    -0.0165                  4.162736041862852
0.0015                    -0.0155                  4.286839387889998
0.0015                    -0.0145                  4.4112565992927255
0.0015                    -0.0135                  4.530968747936897
0.0015                    -0.0125                  4.6359696512076045
0.0015                    -0.0115                  4.714767148949318
0.0015                    -0.0105                  4.759828090986901
0.0015                    -0.0095                  4.7776761458519275
0.0015                    -0.0085                  4.782699794721871
0.0015                    -0.0075                  4.782403584066019
0.0015                    -0.0065                  4.779552988328557
0.0015                    -0.0055                  4.774542036939328
0.0015                    -0.0045                  4.76697658549312
0.0015                    -0.0035                  4.757786276274685
0.0015                    -0.0025                  4.749309871896539
0.0015                    -0.0015                  4.743702020354647
0.0015                    -5.0E-4                  4.7412744920429635
0.0015                    5.0E-4                   4.739776786535447
0.0015                    0.0015                   4.735504276775703
0.0015                    0.0025                   4.725512025028905
0.0015                    0.0035                   4.709406817684897
0.0015                    0.0045                   4.690066995133165
0.0015                    0.0055                   4.672387350675521
0.0015                    0.0065                   4.666762302323637
0.0015                    0.0075                   4.691298385844911
0.0015                    0.0085                   4.814851780723762
0.0015                    0.0095                   4.992663867120944
0.0015                    0.0105                   5.107461537640082
0.0015                    0.0115                   5.1541385304078196
0.0015                    0.0125                   5.152966225599667
0.0015                    0.0135                   5.125715426711404
0.0015                    0.0145                   5.090321807749943
0.0015                    0.0155                   5.058169751007152
0.0015                    0.0165                   5.034193057101227
0.0015                    0.0175                   5.019113612061421
0.0015                    0.0185                   5.011706407730118
0.0015                    0.0195                   5.010118073507336
0.0015                    0.0205                   5.011614288213606
0.0015                    0.0215                   5.0116465814297
0.0015                    0.0225                   5.005442896950928
0.0015                    0.0235                   4.9908973098710145
0.0015                    0.0245                   4.9678906699468515
0.0015                    0.0255                   4.9380730195451426
0.0015                    0.0265                   4.90537017431047
0.0015                    0.0275                   4.87306540725556
0.0015                    0.0285                   4.842443375383114
0.0015                    0.0295                   4.814008222017559
0.0015                    0.0305                   4.78887680433165
0.0015                    0.0315                   4.771837834142364
0.0025                    -0.0315                  2.8038091750409087
0.0025                    -0.0305                  2.8456582601625797
0.0025                    -0.0295                  2.912938680587357
0.0025                    -0.0285                  2.990244390088149
0.0025                    -0.0275                  3.0703464931548874
0.0025                    -0.0265                  3.1509787682773442
0.0025                    -0.0255                  3.231511841734454
0.0025                    -0.0245                  3.311597870718958
0.0025                    -0.0235                  3.39102634767093
0.0025                    -0.0225                  3.470249495097568
0.0025                    -0.0215                  3.551207435427947
0.0025                    -0.0205                  3.6377785707109127
0.0025                    -0.0195                  3.7351632998251656
0.0025                    -0.0185                  3.8477190477164602
0.0025                    -0.0175                  3.9761721961549354
0.0025                    -0.0165                  4.116276333629996
0.0025                    -0.0155                  4.260251633210359
0.0025                    -0.0145                  4.400804938033759
0.0025                    -0.0135                  4.531383130828064
0.0025                    -0.0125                  4.641900954377649
0.0025                    -0.0115                  4.720110240324117
0.0025                    -0.0105                  4.762684606116525
0.0025                    -0.0095                  4.780406529343649
0.0025                    -0.0085                  4.785876594482192
0.0025                    -0.0075                  4.7848649143641815
0.0025                    -0.0065                  4.778882918304939
0.0025                    -0.0055                  4.767492735827684
0.0025                    -0.0045                  4.7513664981775765
0.0025                    -0.0035                  4.733716481251997
0.0025                    -0.0025                  4.71853494486453
0.0025                    -0.0015                  4.708917570236297
0.0025                    -5.0E-4                  4.706030047072726
0.0025                    5.0E-4                   4.708640128160129
0.0025                    0.0015                   4.713768147041897
0.0025                    0.0025                   4.718097084857492
0.0025                    0.0035                   4.719717659466061
0.0025                    0.0045                   4.720643774693562
0.0025                    0.0055                   4.72941226642415
0.0025                    0.0065                   4.762129669467455
0.0025                    0.0075                   4.846762239338769
0.0025                    0.0085                   4.984740528193105
0.0025                    0.0095                   5.11943962048089
0.0025                    0.0105                   5.203352254198957
0.0025                    0.0115                   5.2315047146932265
0.0025                    0.0125                   5.216224667911922
0.0025                    0.0135                   5.176267723429803
0.0025                    0.0145                   5.128100446252175
0.0025                    0.0155                   5.083788195120117
0.0025                    0.0165                   5.049435092391468
0.0025                    0.0175                   5.026431941925637
0.0025                    0.0185                   5.013674834644257
0.0025                    0.0195                   5.008844222442328
0.0025                    0.0205                   5.008234015699175
0.0025                    0.0215                   5.005765425236878
0.0025                    0.0225                   4.995032268400949
0.0025                    0.0235                   4.974116689683543
0.0025                    0.0245                   4.945788802967518
0.0025                    0.0255                   4.913551123548538
0.0025                    0.0265                   4.879890251450946
0.0025                    0.0275                   4.846715513278653
0.0025                    0.0285                   4.815310575646624
0.0025                    0.0295                   4.786541569449176
0.0025                    0.0305                   4.762402778257257
0.0025                    0.0315                   4.747521004463302
0.0035                    -0.0315                  2.7323031291224886
0.0035                    -0.0305                  2.767822046942364
0.0035                    -0.0295                  2.8290163495374587
0.0035                    -0.0285                  2.9037608227747893
0.0035                    -0.0275                  2.9836852015041844
0.0035                    -0.0265                  3.06467189177574
0.0035                    -0.0255                  3.1451553919942947
0.0035                    -0.0245                  3.2245121680348348
0.0035                    -0.0235                  3.3023401863555213
0.0035                    -0.0225                  3.378668406871042
0.0035                    -0.0215                  3.455066361483252
0.0035                    -0.0205                  3.536017185773722
0.0035                    -0.0195                  3.629047715854199
0.0035                    -0.0185                  3.742850502299149
0.0035                    -0.0175                  3.882289087935566
0.0035                    -0.0165                  4.042887550298591
0.0035                    -0.0155                  4.210938056742306
0.0035                    -0.0145                  4.3688112910599415
0.0035                    -0.0135                  4.5087686555362865
0.0035                    -0.0125                  4.6269790007812865
0.0035                    -0.0115                  4.711158012832127
0.0035                    -0.0105                  4.758469814378785
0.0035                    -0.0095                  4.780531086855093
0.0035                    -0.0085                  4.787821709545341
0.0035                    -0.0075                  4.783409728944915
0.0035                    -0.0065                  4.767288988171754
0.0035                    -0.0055                  4.741158595411171
0.0035                    -0.0045                  4.710017832561492
0.0035                    -0.0035                  4.680128243056172
0.0035                    -0.0025                  4.656924167260498
0.0035                    -0.0015                  4.644383449965909
0.0035                    -5.0E-4                  4.643925807740715
0.0035                    5.0E-4                   4.65508374034165
0.0035                    0.0015                   4.677222653335734
0.0035                    0.0025                   4.709279262546204
0.0035                    0.0035                   4.748927463435904
0.0035                    0.0045                   4.794860118208421
0.0035                    0.0055                   4.8510833147372106
0.0035                    0.0065                   4.926291467871394
0.0035                    0.0075                   5.02605704821115
0.0035                    0.0085                   5.138456458074884
0.0035                    0.0095                   5.233401956484932
0.0035                    0.0105                   5.288570017562296
0.0035                    0.0115                   5.299262768778085
0.0035                    0.0125                   5.27255015136078
0.0035                    0.0135                   5.222068273242866
0.0035                    0.0145                   5.162141767009329
0.0035                    0.0155                   5.105632241910241
0.0035                    0.0165                   5.059987658729963
0.0035                    0.0175                   5.027389788336041
0.0035                    0.0185                   5.007176238370363
0.0035                    0.0195                   4.996924411256172
0.0035                    0.0205                   4.9923489650459665
0.0035                    0.0215                   4.9869717783135465
0.0035                    0.0225                   4.9732625135911945
0.0035                    0.0235                   4.948468672881151
0.0035                    0.0245                   4.91643193123219
0.0035                    0.0255                   4.881815480895794
0.0035                    0.0265                   4.847173892247792
0.0035                    0.0275                   4.813683078859906
0.0035                    0.0285                   4.782339920647361
0.0035                    0.0295                   4.754618945118502
0.0035                    0.0305                   4.732900550220744
0.0035                    0.0315                   4.720481913316356
0.0045                    -0.0315                  2.65778003237802
0.0045                    -0.0305                  2.6880094305498785
0.0045                    -0.0295                  2.742116525738937
0.0045                    -0.0285                  2.811080481741882
0.0045                    -0.0275                  2.8873641491979485
0.0045                    -0.0265                  2.966086907503244
0.0045                    -0.0255                  3.0448457233749235
0.0045                    -0.0245                  3.1228139344899066
0.0045                    -0.0235                  3.1997567889031755
0.0045                    -0.0225                  3.275580992014808
0.0045                    -0.0215                  3.3508585591991475
0.0045                    -0.0205                  3.4288030119969917
0.0045                    -0.0195                  3.5171631491257593
0.0045                    -0.0185                  3.626752806447131
0.0045                    -0.0175                  3.7681546029440067
0.0045                    -0.0165                  3.942782117586871
0.0045                    -0.0155                  4.134100345349009
0.0045                    -0.0145                  4.31195660480903
0.0045                    -0.0135                  4.465804263089721
0.0045                    -0.0125                  4.598232841778346
0.0045                    -0.0115                  4.696207459535437
0.0045                    -0.0105                  4.75398451506356
0.0045                    -0.0095                  4.781707475973435
0.0045                    -0.0085                  4.787886355824975
0.0045                    -0.0075                  4.773425845708588
0.0045                    -0.0065                  4.740109765678014
0.0045                    -0.0055                  4.695077705783468
0.0045                    -0.0045                  4.648386766377085
0.0045                    -0.0035                  4.610251204322294
0.0045                    -0.0025                  4.586947171266907
0.0045                    -0.0015                  4.579293721172335
0.0045                    -5.0E-4                  4.585883415211965
0.0045                    5.0E-4                   4.606629625542694
0.0045                    0.0015                   4.644426236242085
0.0045                    0.0025                   4.703288987546176
0.0045                    0.0035                   4.78412361714917
0.0045                    0.0045                   4.880804863726104
0.0045                    0.0055                   4.9816131913755335
0.0045                    0.0065                   5.077859724495086
0.0045                    0.0075                   5.166741231553738
0.0045                    0.0085                   5.244792994645506
0.0045                    0.0095                   5.3049240141243805
0.0045                    0.0105                   5.338647238247218
0.0045                    0.0115                   5.339047836896266
0.0045                    0.0125                   5.306396909002593
0.0045                    0.0135                   5.249154822554507
0.0045                    0.0145                   5.1807635212372
0.0045                    0.0155                   5.114943071767279
0.0045                    0.0165                   5.060021257338899
0.0045                    0.0175                   5.018549653145571
0.0045                    0.0185                   4.989846852655969
0.0045                    0.0195                   4.971894757566199
0.0045                    0.0205                   4.961417793976307
0.0045                    0.0215                   4.952920576862658
0.0045                    0.0225                   4.938709563149363
0.0045                    0.0235                   4.91427746520222
0.0045                    0.0245                   4.8820645875039865
0.0045                    0.0255                   4.8467878293826425
0.0045                    0.0265                   4.811662939392302
0.0045                    0.0275                   4.778238232513075
0.0045                    0.0285                   4.747531983363752
0.0045                    0.0295                   4.721377328649926
0.0045                    0.0305                   4.702165778689768
0.0045                    0.0315                   4.691983026984876
0.0055                    -0.0315                  2.581158440689398
0.0055                    -0.0305                  2.607467093627331
0.0055                    -0.0295                  2.6554017267026886
0.0055                    -0.0285                  2.717874824296336
0.0055                    -0.0275                  2.788551016471251
0.0055                    -0.0265                  2.8627855397484736
0.0055                    -0.0255                  2.9379329486341463
0.0055                    -0.0245                  3.013281589164527
0.0055                    -0.0235                  3.089308230148012
0.0055                    -0.0225                  3.1666138778641657
0.0055                    -0.0215                  3.2453277685746764
0.0055                    -0.0205                  3.3260068040275996
0.0055                    -0.0195                  3.412780367610818
0.0055                    -0.0185                  3.514219670326491
0.0055                    -0.0175                  3.645294431295355
0.0055                    -0.0165                  3.818759570096766
0.0055                    -0.0155                  4.024202992404719
0.0055                    -0.0145                  4.226927362916272
0.0055                    -0.0135                  4.407909720330069
0.0055                    -0.0125                  4.565086881899372
0.0055                    -0.0115                  4.684707836996035
0.0055                    -0.0105                  4.758059048245407
0.0055                    -0.0095                  4.790362530883083
0.0055                    -0.0085                  4.788178007072123
0.0055                    -0.0075                  4.755826712491622
0.0055                    -0.0065                  4.70188519691945
0.0055                    -0.0055                  4.640402989429035
0.0055                    -0.0045                  4.587463489897668
0.0055                    -0.0035                  4.55458958575273
0.0055                    -0.0025                  4.5423228082754505
0.0055                    -0.0015                  4.544888047142206
0.0055                    -5.0E-4                  4.558810573870279
0.0055                    5.0E-4                   4.58565624337268
0.0055                    0.0015                   4.631655701491308
0.0055                    0.0025                   4.705475296027469
0.0055                    0.0035                   4.811787301219097
0.0055                    0.0045                   4.940104821142418
0.0055                    0.0055                   5.0650194633032894
0.0055                    0.0065                   5.165816427440692
0.0055                    0.0075                   5.238052830373624
0.0055                    0.0085                   5.288356113748612
0.0055                    0.0095                   5.324693257669114
0.0055                    0.0105                   5.346213924800773
0.0055                    0.0115                   5.343615574663415
0.0055                    0.0125                   5.3107726748967305
0.0055                    0.0135                   5.252223492309506
0.0055                    0.0145                   5.180912995801938
0.0055                    0.0155                   5.111031072321879
0.0055                    0.0165                   5.0517556045285925
0.0055                    0.0175                   5.00541877984743
0.0055                    0.0185                   4.970101572743566
0.0055                    0.0195                   4.943681637931151
0.0055                    0.0205                   4.924708075039666
0.0055                    0.0215                   4.910321929471673
0.0055                    0.0225                   4.894987788669724
0.0055                    0.0235                   4.8729623472188335
0.0055                    0.0245                   4.843414932860383
0.0055                    0.0255                   4.80994155015852
0.0055                    0.0265                   4.775811485872737
0.0055                    0.0275                   4.743126252452239
0.0055                    0.0285                   4.7134015090140995
0.0055                    0.0295                   4.688586422864738
0.0055                    0.0305                   4.671322915816946
0.0055                    0.0315                   4.663027651555656
0.0065                    -0.0315                  2.502940857748248
0.0065                    -0.0305                  2.5266163031675486
0.0065                    -0.0295                  2.5699988008853003
0.0065                    -0.0285                  2.626913574959907
0.0065                    -0.0275                  2.6918418806188997
0.0065                    -0.0265                  2.760673532939391
0.0065                    -0.0255                  2.8309794838407845
0.0065                    -0.0245                  2.9023709573095235
0.0065                    -0.0235                  2.976426103898351
0.0065                    -0.0225                  3.055318425519984
0.0065                    -0.0215                  3.139821296981947
0.0065                    -0.0205                  3.228923141032433
0.0065                    -0.0195                  3.320096991883018
0.0065                    -0.0185                  3.4162902021996824
0.0065                    -0.0175                  3.534314974145867
0.0065                    -0.0165                  3.693911321463089
0.0065                    -0.0155                  3.8952785472333344
0.0065                    -0.0145                  4.115050553250669
0.0065                    -0.0135                  4.332100902382054
0.0065                    -0.0125                  4.528122502071506
0.0065                    -0.0115                  4.677805368194878
0.0065                    -0.0105                  4.767376161777863
0.0065                    -0.0095                  4.799617743260066
0.0065                    -0.0085                  4.783449884690857
0.0065                    -0.0075                  4.730935751029465
0.0065                    -0.0065                  4.659840018432897
0.0065                    -0.0055                  4.591968401801505
0.0065                    -0.0045                  4.546535273389663
0.0065                    -0.0035                  4.527796565871538
0.0065                    -0.0025                  4.52654094799831
0.0065                    -0.0015                  4.5350069281645045
0.0065                    -5.0E-4                  4.552226696464233
0.0065                    5.0E-4                   4.581899794083082
0.0065                    0.0015                   4.63221454596869
0.0065                    0.0025                   4.71432204827253
0.0065                    0.0035                   4.832073228091317
0.0065                    0.0045                   4.968667791647089
0.0065                    0.0055                   5.093717984850786
0.0065                    0.0065                   5.187120246516437
0.0065                    0.0075                   5.245909616560949
0.0065                    0.0085                   5.280055559612249
0.0065                    0.0095                   5.304113253691878
0.0065                    0.0105                   5.32084188292173
0.0065                    0.0115                   5.319869802780238
0.0065                    0.0125                   5.291510778368177