% Model:              Benchmark260518.mph
% Version:            COMSOL 6.2.0.339
% Date:               May 19 2026, 03:52
% Dimension:          2
% Nodes:              4096
% Expressions:        1
% Description:        压力
% Length unit:        m
% x                       y                        p (Pa)
% mirrored_by_python_y_to_minus_y, coord_match_decimals=12
0.0005 -0.0315 4.92274426985
0.0005 -0.0305 4.91682553893
0.0005 -0.0295 4.90957678445
0.0005 -0.0285 4.90331092753
0.0005 -0.0275 4.89771693113
0.0005 -0.0265 4.89137007659
0.0005 -0.0255 4.88676420748
0.0005 -0.0245 4.86921063167
0.0005 -0.0235 4.78448201345
0.0005 -0.0225 4.6768115761
0.0005 -0.0215 4.63201762698
0.0005 -0.0205 4.62785965752
0.0005 -0.0195 4.63681456022
0.0005 -0.0185 4.65986681561
0.0005 -0.0175 4.69572441018
0.0005 -0.0165 4.73556750497
0.0005 -0.0155 4.76730837078
0.0005 -0.0145 4.78225053029
0.0005 -0.0135 4.77846871456
0.0005 -0.0125 4.7610230557
0.0005 -0.0115 4.73772421966
0.0005 -0.0105 4.71491303641
0.0005 -0.0095 4.6960621784
0.0005 -0.0085 4.6821729685
0.0005 -0.0075 4.67266715432
0.0005 -0.0065 4.66633328035
0.0005 -0.0055 4.66193324966
0.0005 -0.0045 4.65845604633
0.0005 -0.0035 4.65517877319
0.0005 -0.0025 4.65164002145
0.0005 -0.0015 4.64756150543
0.0005 -0.0005 4.64278391474
0.0005 0.0005 4.6372285273
0.0005 0.0015 4.63089553901
0.0005 0.0025 4.62389940623
0.0005 0.0035 4.61653040424
0.0005 0.0045 4.60930664106
0.0005 0.0055 4.60297863811
0.0005 0.0065 4.59844454149
0.0005 0.0075 4.59650299192
0.0005 0.0085 4.59738988478
0.0005 0.0095 4.60054178799
0.0005 0.0105 4.60479270166
0.0005 0.0115 4.60886591908
0.0005 0.0125 4.61183538058
0.0005 0.0135 4.61304016382
0.0005 0.0145 4.61150526255
0.0005 0.0155 4.60517101513
0.0005 0.0165 4.58949118482
0.0005 0.0175 4.55890907036
0.0005 0.0185 4.51400917184
0.0005 0.0195 4.46019219
0.0005 0.0205 4.4025051283
0.0005 0.0215 4.34450137283
0.0005 0.0225 4.2872534537
0.0005 0.0235 4.23119883914
0.0005 0.0245 4.1767847074
0.0005 0.0255 4.12431007437
0.0005 0.0265 4.07396685252
0.0005 0.0275 4.02581182866
0.0005 0.0285 3.97991303923
0.0005 0.0295 3.93648085028
0.0005 0.0305 3.89671376473
0.0005 0.0315 3.86755526276
0.0015 -0.0315 4.92923370582
0.0015 -0.0305 4.92308570151
0.0015 -0.0295 4.91463432145
0.0015 -0.0285 4.90681416597
0.0015 -0.0275 4.89974406052
0.0015 -0.0265 4.89275944465
0.0015 -0.0255 4.89838579261
0.0015 -0.0245 4.91262250955
0.0015 -0.0235 4.85443557268
0.0015 -0.0225 4.71133378973
0.0015 -0.0215 4.62605298688
0.0015 -0.0205 4.62141798371
0.0015 -0.0195 4.62883718483
0.0015 -0.0185 4.65024753003
0.0015 -0.0175 4.68562561699
0.0015 -0.0165 4.72482689515
0.0015 -0.0155 4.75467310255
0.0015 -0.0145 4.76716988912
0.0015 -0.0135 4.7620962944
0.0015 -0.0125 4.74556548048
0.0015 -0.0115 4.72484342087
0.0015 -0.0105 4.70524112799
0.0015 -0.0095 4.68958859843
0.0015 -0.0085 4.67847405996
0.0015 -0.0075 4.67109993493
0.0015 -0.0065 4.66629764443
0.0015 -0.0055 4.66292366005
0.0015 -0.0045 4.66005216419
0.0015 -0.0035 4.65703858167
0.0015 -0.0025 4.65349634439
0.0015 -0.0015 4.64922440978
0.0015 -0.0005 4.64413254839
0.0015 0.0005 4.63817597307
0.0015 0.0015 4.63134062267
0.0015 0.0025 4.62369287055
0.0015 0.0035 4.61548725026
0.0015 0.0045 4.6072955395
0.0015 0.0055 4.60001319135
0.0015 0.0065 4.59471596904
0.0015 0.0075 4.59251575886
0.0015 0.0085 4.59390860094
0.0015 0.0095 4.59820580054
0.0015 0.0105 4.6039029483
0.0015 0.0115 4.60924523577
0.0015 0.0125 4.61289143466
0.0015 0.0135 4.61414418363
0.0015 0.0145 4.61235754944
0.0015 0.0155 4.60642880823
0.0015 0.0165 4.59270241849
0.0015 0.0175 4.5639948179
0.0015 0.0185 4.51854888405
0.0015 0.0195 4.46142758844
0.0015 0.0205 4.39846857938
0.0015 0.0215 4.33458468581
0.0015 0.0225 4.27209512214
0.0015 0.0235 4.21196934057
0.0015 0.0245 4.15473551986
0.0015 0.0255 4.10061007081
0.0015 0.0265 4.04940633199
0.0015 0.0275 4.00061429559
0.0015 0.0285 3.95363556899
0.0015 0.0295 3.90830476236
0.0015 0.0305 3.86668554853
0.0015 0.0315 3.83798054248
0.0025 -0.0315 4.93815895447
0.0025 -0.0305 4.93338760208
0.0025 -0.0295 4.92505835218
0.0025 -0.0285 4.91531320916
0.0025 -0.0275 4.90455512415
0.0025 -0.0265 4.8975276621
0.0025 -0.0255 4.92869756579
0.0025 -0.0245 5.00906223714
0.0025 -0.0235 5.02115680931
0.0025 -0.0225 4.87296143138
0.0025 -0.0215 4.70786427397
0.0025 -0.0205 4.64422296682
0.0025 -0.0195 4.63680569126
0.0025 -0.0185 4.65327374843
0.0025 -0.0175 4.68363271643
0.0025 -0.0165 4.71543813528
0.0025 -0.0155 4.73598923674
0.0025 -0.0145 4.74035515565
0.0025 -0.0135 4.73176523999
0.0025 -0.0125 4.71671974076
0.0025 -0.0115 4.70074782335
0.0025 -0.0105 4.68700710645
0.0025 -0.0095 4.67672852544
0.0025 -0.0085 4.66997811261
0.0025 -0.0075 4.66611834965
0.0025 -0.0065 4.66418841015
0.0025 -0.0055 4.66312674249
0.0025 -0.0045 4.6619761304
0.0025 -0.0035 4.66004867658
0.0025 -0.0025 4.65698204808
0.0025 -0.0015 4.6526840388
0.0025 -0.0005 4.64720207033
0.0025 0.0005 4.64058660556
0.0025 0.0015 4.63280925575
0.0025 0.0025 4.62378679005
0.0025 0.0035 4.61357582259
0.0025 0.0045 4.60269461193
0.0025 0.0055 4.5923006873
0.0025 0.0065 4.58400627114
0.0025 0.0075 4.57945780425
0.0025 0.0085 4.57978046156
0.0025 0.0095 4.58489658637
0.0025 0.0105 4.5932856194
0.0025 0.0115 4.60265282912
0.0025 0.0125 4.61019479275
0.0025 0.0135 4.61331450412
0.0025 0.0145 4.61095115835
0.0025 0.0155 4.60345152409
0.0025 0.0165 4.58933061664
0.0025 0.0175 4.56179508858
0.0025 0.0185 4.51648296223
0.0025 0.0195 4.45600969632
0.0025 0.0205 4.38623131102
0.0025 0.0215 4.31367816772
0.0025 0.0225 4.24272006572
0.0025 0.0235 4.17582314934
0.0025 0.0245 4.11409908282
0.0025 0.0255 4.05755831423
0.0025 0.0265 4.00532018736
0.0025 0.0275 3.95599791969
0.0025 0.0285 3.90837378892
0.0025 0.0295 3.86263971142
0.0025 0.0305 3.82258111605
0.0025 0.0315 3.79746560881
0.0035 -0.0315 4.94618352603
0.0035 -0.0305 4.94348026921
0.0035 -0.0295 4.93703244897
0.0035 -0.0285 4.92732435303
0.0035 -0.0275 4.91547889871
0.0035 -0.0265 4.91966633747
0.0035 -0.0255 5.00245250927
0.0035 -0.0245 5.16652568663
0.0035 -0.0235 5.2541325503
0.0035 -0.0225 5.13725633793
0.0035 -0.0215 4.92190273289
0.0035 -0.0205 4.77447572451
0.0035 -0.0195 4.71666562415
0.0035 -0.0185 4.70547167345
0.0035 -0.0175 4.71286412952
0.0035 -0.0165 4.72126086252
0.0035 -0.0155 4.7217892328
0.0035 -0.0145 4.71418383274
0.0035 -0.0135 4.70195364137
0.0035 -0.0125 4.68879375239
0.0035 -0.0115 4.67756640583
0.0035 -0.0105 4.66924761453
0.0035 -0.0095 4.66371378739
0.0035 -0.0085 4.66077519437
0.0035 -0.0075 4.6601275136
0.0035 -0.0065 4.66105835448
0.0035 -0.0055 4.66252540043
0.0035 -0.0045 4.66341473037
0.0035 -0.0035 4.66287080573
0.0035 -0.0025 4.66049440664
0.0035 -0.0015 4.6562999394
0.0035 -0.0005 4.65050861643
0.0035 0.0005 4.64332124801
0.0035 0.0015 4.63472571149
0.0035 0.0025 4.6244204897
0.0035 0.0035 4.6120755403
0.0035 0.0045 4.59794135072
0.0035 0.0055 4.58329742341
0.0035 0.0065 4.57022874416
0.0035 0.0075 4.56091854657
0.0035 0.0085 4.55728590632
0.0035 0.0095 4.56058868072
0.0035 0.0105 4.57034562572
0.0035 0.0115 4.58384847782
0.0035 0.0125 4.59676432328
0.0035 0.0135 4.6040789728
0.0035 0.0145 4.60245555808
0.0035 0.0155 4.59274465268
0.0035 0.0165 4.57626970773
0.0035 0.0175 4.54835828751
0.0035 0.0185 4.50326096381
0.0035 0.0195 4.44033784508
0.0035 0.0205 4.36408359754
0.0035 0.0215 4.28228832752
0.0035 0.0225 4.20201061143
0.0035 0.0235 4.12783922307
0.0035 0.0245 4.0616232936
0.0035 0.0255 4.0029466174
0.0035 0.0265 3.9499949869
0.0035 0.0275 3.90062242373
0.0035 0.0285 3.85360577838
0.0035 0.0295 3.81002134422
0.0035 0.0305 3.77422315758
0.0035 0.0315 3.753319588
0.0045 -0.0315 4.95140972592
0.0045 -0.0305 4.9501617565
0.0045 -0.0295 4.94651676519
0.0045 -0.0285 4.93851727069
0.0045 -0.0275 4.93146525813
0.0045 -0.0265 4.96227391415
0.0045 -0.0255 5.10161083738
0.0045 -0.0245 5.32793106013
0.0045 -0.0235 5.46645909838
0.0045 -0.0225 5.38973049805
0.0045 -0.0215 5.17498163105
0.0045 -0.0205 4.97865729422
0.0045 -0.0195 4.86078925576
0.0045 -0.0185 4.79895829457
0.0045 -0.0175 4.76413439297
0.0045 -0.0165 4.73934405395
0.0045 -0.0155 4.71825497543
0.0045 -0.0145 4.70039550797
0.0045 -0.0135 4.68573255175
0.0045 -0.0125 4.67412138403
0.0045 -0.0115 4.66552969562
0.0045 -0.0105 4.65957629905
0.0045 -0.0095 4.65597489061
0.0045 -0.0085 4.65470005968
0.0045 -0.0075 4.65561948301
0.0045 -0.0065 4.65815101317
0.0045 -0.0055 4.66118515293
0.0045 -0.0045 4.66341141307
0.0045 -0.0035 4.66380937825
0.0045 -0.0025 4.66193785179
0.0045 -0.0015 4.65788063805
0.0045 -0.0005 4.65198477518
0.0045 0.0005 4.644581185
0.0045 0.0015 4.635725618
0.0045 0.0025 4.62498644824
0.0045 0.0035 4.61161954275
0.0045 0.0045 4.59544278921
0.0045 0.0055 4.57764662032
0.0045 0.0065 4.56051262904
0.0045 0.0075 4.54648545523
0.0045 0.0085 4.53766314987
0.0045 0.0095 4.5358781844
0.0045 0.0105 4.54233691628
0.0045 0.0115 4.5559419478
0.0045 0.0125 4.57191756706
0.0045 0.0135 4.58311649574
0.0045 0.0145 4.58350363967
0.0045 0.0155 4.57280144654
0.0045 0.0165 4.55414879985
0.0045 0.0175 4.52594810358
0.0045 0.0185 4.48165738588
0.0045 0.0195 4.41669553181
0.0045 0.0205 4.33394613187
0.0045 0.0215 4.2429922829
0.0045 0.0225 4.15431787293
0.0045 0.0235 4.07447443753
0.0045 0.0245 4.00525161735
0.0045 0.0255 3.94523050872
0.0045 0.0265 3.89159898145
0.0045 0.0275 3.84200421526
0.0045 0.0285 3.79600593201
0.0045 0.0295 3.75550314789
0.0045 0.0305 3.72433336447
0.0045 0.0315 3.70713506473
0.0055 -0.0315 4.95518481421
0.0055 -0.0305 4.95349446542
0.0055 -0.0295 4.94783734446
0.0055 -0.0285 4.9362571656
0.0055 -0.0275 4.93102022674
0.0055 -0.0265 4.9744397839
0.0055 -0.0255 5.1282095306
0.0055 -0.0245 5.3699174978
0.0055 -0.0235 5.52953666864
0.0055 -0.0225 5.4858363003
0.0055 -0.0215 5.305735343
0.0055 -0.0205 5.11466357576
0.0055 -0.0195 4.97163589619
0.0055 -0.0185 4.87311411373
0.0055 -0.0175 4.80455890895
0.0055 -0.0165 4.75651768164
0.0055 -0.0155 4.72281683443
0.0055 -0.0145 4.69927892044
0.0055 -0.0135 4.68266887938
0.0055 -0.0125 4.67072264376
0.0055 -0.0115 4.66203560044
0.0055 -0.0105 4.6558296146
0.0055 -0.0095 4.65182299685
0.0055 -0.0085 4.65012867684
0.0055 -0.0075 4.65083741458
0.0055 -0.0065 4.65353154074
0.0055 -0.0055 4.6571045981
0.0055 -0.0045 4.66008792696
0.0055 -0.0035 4.66125462558
0.0055 -0.0025 4.66003270101
0.0055 -0.0015 4.65646145472
0.0055 -0.0005 4.65089530361
0.0055 0.0005 4.6437054075
0.0055 0.0015 4.63503415735
0.0055 0.0025 4.62453113276
0.0055 0.0035 4.61126200599
0.0055 0.0045 4.59447841575
0.0055 0.0055 4.57501561201
0.0055 0.0065 4.55548745918
0.0055 0.0075 4.53873107093
0.0055 0.0085 4.52639843719
0.0055 0.0095 4.51939676026
0.0055 0.0105 4.51936994532
0.0055 0.0115 4.52799883291
0.0055 0.0125 4.54272246512
0.0055 0.0135 4.55532720628
0.0055 0.0145 4.55747014399
0.0055 0.0155 4.54725105201
0.0055 0.0165 4.52814961662
0.0055 0.0175 4.50051378056
0.0055 0.0185 4.45712430878
0.0055 0.0195 4.38969878089
0.0055 0.0205 4.29994046736
0.0055 0.0215 4.20058554595
0.0055 0.0225 4.10569910984
0.0055 0.0235 4.02301278247
0.0055 0.0245 3.95300547453
0.0055 0.0255 3.89202392536
0.0055 0.0265 3.83648915758
0.0055 0.0275 3.78505882307
0.0055 0.0285 3.73883584276
0.0055 0.0295 3.70063458524
0.0055 0.0305 3.67341173898
0.0055 0.0315 3.65939935503
0.0065 -0.0315 4.95627329987
0.0065 -0.0305 4.94973114961
0.0065 -0.0295 4.93275353754
0.0065 -0.0285 4.90875427188
0.0065 -0.0275 4.89581975739
0.0065 -0.0265 4.92812713321
0.0065 -0.0255 5.05165502067
0.0065 -0.0245 5.2560816281
0.0065 -0.0235 5.41091330155
0.0065 -0.0225 5.41241512053
0.0065 -0.0215 5.29484082088
0.0065 -0.0205 5.14317459833
0.0065 -0.0195 5.0105687459
0.0065 -0.0185 4.90614417518
0.0065 -0.0175 4.82693454762
0.0065 -0.0165 4.76990665851
0.0065 -0.0155 4.73039867261
0.0065 -0.0145 4.70324004037
0.0065 -0.0135 4.68412358952
0.0065 -0.0125 4.67004195395
0.0065 -0.0115 4.65916299923
0.0065 -0.0105 4.65049314588
0.0065 -0.0095 4.64375355606
0.0065 -0.0085 4.63929435972
0.0065 -0.0075 4.63779232372
0.0065 -0.0065 4.63956775151
0.0065 -0.0055 4.64376919901
0.0065 -0.0045 4.64846262534
0.0065 -0.0035 4.65171658437
0.0065 -0.0025 4.65245549079
0.0065 -0.0015 4.65051466979
0.0065 -0.0005 4.64621413724
0.0065 0.0005 4.63994191625
0.0065 0.0015 4.63191076653
0.0065 0.0025 4.621975633
0.0065 0.0035 4.60934625022
0.0065 0.0045 4.59273869733
0.0065 0.0055 4.57229262378
0.0065 0.0065 4.5510825467
0.0065 0.0075 4.53291299317
0.0065 0.0085 4.51918313626
0.0065 0.0095 4.50954008998
0.0065 0.0105 4.50475208741
0.0065 0.0115 4.50723094988
0.0065 0.0125 4.51751888115
0.0065 0.0135 4.52962918674
0.0065 0.0145 4.53361919244
0.0065 0.0155 4.52491818694
0.0065 0.0165 4.50647647071
0.0065 0.0175 4.47893082171
0.0065 0.0185 4.43429554601
0.0065 0.0195 4.36260452198
0.0065 0.0205 4.26594244921
0.0065 0.0215 4.16027174976
0.0065 0.0225 4.06172919692
0.0065 0.0235 3.97812575696
0.0065 0.0245 3.90866697366
0.0065 0.0255 3.84675262398
0.0065 0.0265 3.787518936
0.0065 0.0275 3.73180810347
0.0065 0.0285 3.68338249441
0.0065 0.0295 3.6460001396
0.0065 0.0305 3.62166599721
0.0065 0.0315 3.61035323459
0.0075 -0.0315 4.94670644343
0.0075 -0.0305 4.93165985228
0.0075 -0.0295 4.9003934174
0.0075 -0.0285 4.86509921107
0.0075 -0.0275 4.84746329192
0.0075 -0.0265 4.86822358138
0.0075 -0.0255 4.94960025501
0.0075 -0.0245 5.09252176497
0.0075 -0.0235 5.2246512981
0.0075 -0.0225 5.26853309718
0.0075 -0.0215 5.21884082011
0.0075 -0.0205 5.11897052201
0.0075 -0.0195 5.01284659499
0.0075 -0.0185 4.91790144247
0.0075 -0.0175 4.83978453052
0.0075 -0.0165 4.77984473156
0.0075 -0.0155 4.73596073479
0.0075 -0.0145 4.70428682931
0.0075 -0.0135 4.6808123133
0.0075 -0.0125 4.66214976708
0.0075 -0.0115 4.64569688342
0.0075 -0.0105 4.62969202344
0.0075 -0.0095 4.61365426117
0.0075 -0.0085 4.59909908733
0.0075 -0.0075 4.58956943396
0.0075 -0.0065 4.58868106185
0.0075 -0.0055 4.59627197755
0.0075 -0.0045 4.60789729998
0.0075 -0.0035 4.61869956563
0.0075 -0.0025 4.6260678021
0.0075 -0.0015 4.62950490199
0.0075 -0.0005 4.62941915001
0.0075 0.0005 4.62632833918
0.0075 0.0015 4.62057880816
0.0075 0.0025 4.61222004678
0.0075 0.0035 4.60071370816
0.0075 0.0045 4.58476698556
0.0075 0.0055 4.56444017599
0.0075 0.0065 4.54314441647
0.0075 0.0075 4.52496712654
0.0075 0.0085 4.51101320003
0.0075 0.0095 4.50072620239
0.0075 0.0105 4.49436332612
0.0075 0.0115 4.49346203649
0.0075 0.0125 4.50001588199
0.0075 0.0135 4.51182032651
0.0075 0.0145 4.51948802739
0.0075 0.0155 4.51452549347
0.0075 0.0165 4.49668264848
0.0075 0.0175 4.4664489667
0.0075 0.0185 4.41675677434
0.0075 0.0195 4.33889707929
0.0075 0.0205 4.2366865817
0.0075 0.0215 4.12715706034
0.0075 0.0225 4.02647263131
0.0075 0.0235 3.94179580166
0.0075 0.0245 3.87131569152
0.0075 0.0255 3.80685183887
0.0075 0.0265 3.74280646773
0.0075 0.0275 3.68217038408
0.0075 0.0285 3.63068283155
0.0075 0.0295 3.59262399124
0.0075 0.0305 3.56993748302
0.0075 0.0315 3.56063638087
0.0085 -0.0315 4.92001165029
0.0085 -0.0305 4.89829938404
0.0085 -0.0295 4.85977039886
0.0085 -0.0285 4.82447805008
0.0085 -0.0275 4.81120075433
0.0085 -0.0265 4.82552511011
0.0085 -0.0255 4.87324268103
0.0085 -0.0245 4.96299542085
0.0085 -0.0235 5.06390415239
0.0085 -0.0225 5.12360396601
0.0085 -0.0215 5.12056787018
0.0085 -0.0205 5.06789018431
0.0085 -0.0195 4.99163922609
0.0085 -0.0185 4.91070620596
0.0085 -0.0175 4.83674678674
0.0085 -0.0165 4.77514351496
0.0085 -0.0155 4.72655340498
0.0085 -0.0145 4.68868522028
0.0085 -0.0135 4.65780868305
0.0085 -0.0125 4.62972957475
0.0085 -0.0115 4.60032464339
0.0085 -0.0105 4.5661528131
0.0085 -0.0095 4.52615475458
0.0085 -0.0085 4.48525654821
0.0085 -0.0075 4.45544183788
0.0085 -0.0065 4.44742833905
0.0085 -0.0055 4.46220582954
0.0085 -0.0045 4.49036061153
0.0085 -0.0035 4.51985986815
0.0085 -0.0025 4.5443552138
0.0085 -0.0015 4.56234622033
0.0085 -0.0005 4.57409086509
0.0085 0.0005 4.58029655029
0.0085 0.0015 4.58169762405
0.0085 0.0025 4.57874780865
0.0085 0.0035 4.57139192324
0.0085 0.0045 4.55927868322
0.0085 0.0055 4.54327225813
0.0085 0.0065 4.52623648383
0.0085 0.0075 4.51109489251
0.0085 0.0085 4.49892541813
0.0085 0.0095 4.49009923531
0.0085 0.0105 4.48475627355
0.0085 0.0115 4.48328689864
0.0085 0.0125 4.48837455298
0.0085 0.0135 4.50131367984
0.0085 0.0145 4.51510730996
0.0085 0.0155 4.51769448736
0.0085 0.0165 4.50193851504
0.0085 0.0175 4.46593000528
0.0085 0.0185 4.40652311626
0.0085 0.0195 4.32059950808
0.0085 0.0205 4.21378366076
0.0085 0.0215 4.10133220222
0.0085 0.0225 3.9981799277
0.0085 0.0235 3.91074725506
0.0085 0.0245 3.83604024936
0.0085 0.0255 3.7664093161
0.0085 0.0265 3.69781792525
0.0085 0.0275 3.63435801676
0.0085 0.0285 3.58136880632
0.0085 0.0295 3.54256278714
0.0085 0.0305 3.52023749666
0.0085 0.0315 3.51198376705
0.0095 -0.0315 4.87939162647
0.0095 -0.0305 4.85684147776
0.0095 -0.0295 4.82168890876
0.0095 -0.0285 4.79470968932
0.0095 -0.0275 4.7867769497
0.0095 -0.0265 4.79567262551
0.0095 -0.0255 4.82195101662
0.0095 -0.0245 4.87274580066
0.0095 -0.0235 4.93878171637
0.0095 -0.0225 4.99213065947
0.0095 -0.0215 5.01016739493
0.0095 -0.0205 4.98846112815
0.0095 -0.0195 4.93710973378
0.0095 -0.0185 4.87047970942
0.0095 -0.0175 4.80160504046
0.0095 -0.0165 4.73869689668
0.0095 -0.0155 4.68477233289
0.0095 -0.0145 4.63882491742
0.0095 -0.0135 4.59707795987
0.0095 -0.0125 4.5540754284
0.0095 -0.0115 4.50375868365
0.0095 -0.0105 4.44109616078
0.0095 -0.0095 4.36523057282
0.0095 -0.0085 4.28612359875
0.0095 -0.0075 4.22715408478
0.0095 -0.0065 4.20582021386
0.0095 -0.0055 4.22280923317
0.0095 -0.0045 4.2671162744
0.0095 -0.0035 4.3212469117
0.0095 -0.0025 4.37267651698
0.0095 -0.0015 4.41603951467
0.0095 -0.0005 4.4495438826
0.0095 0.0005 4.47360985513
0.0095 0.0015 4.4897092545
0.0095 0.0025 4.49932683673
0.0095 0.0035 4.50350747789
0.0095 0.0045 4.50319116273
0.0095 0.0055 4.49967523889
0.0095 0.0065 4.49427984593
0.0095 0.0075 4.48800389212
0.0095 0.0085 4.48188664307
0.0095 0.0095 4.47727331791
0.0095 0.0105 4.4746203574
0.0095 0.0115 4.4741837026
0.0095 0.0125 4.47912913056
0.0095 0.0135 4.49346984608
0.0095 0.0145 4.51331386145
0.0095 0.0155 4.52480624294
0.0095 0.0165 4.51342397779
0.0095 0.0175 4.47221303071
0.0095 0.0185 4.40179734937
0.0095 0.0195 4.30616812956
0.0095 0.0205 4.1929236705
0.0095 0.0215 4.07537370465
0.0095 0.0225 3.96765238021
0.0095 0.0235 3.87582297447
0.0095 0.0245 3.79608925884
0.0095 0.0255 3.72194616544
0.0095 0.0265 3.6515682237
0.0095 0.0275 3.58856076176
0.0095 0.0285 3.53623258362
0.0095 0.0295 3.49745732111
0.0095 0.0305 3.47492857296
0.0095 0.0315 3.46712950152
0.0105 -0.0315 4.83512025272
0.0105 -0.0305 4.81688246095
0.0105 -0.0295 4.79099582208
0.0105 -0.0285 4.77339293552
0.0105 -0.0275 4.76880008349
0.0105 -0.0265 4.77357665099
0.0105 -0.0255 4.78669603035
0.0105 -0.0245 4.81231960806
0.0105 -0.0235 4.84778618313
0.0105 -0.0225 4.88057694604
0.0105 -0.0215 4.89574948495
0.0105 -0.0205 4.88332933294
0.0105 -0.0195 4.84412410269
0.0105 -0.0185 4.78671782322
0.0105 -0.0175 4.72173056256
0.0105 -0.0165 4.65758930045
0.0105 -0.0155 4.59837559946
0.0105 -0.0145 4.54366953085
0.0105 -0.0135 4.48941727878
0.0105 -0.0125 4.42918089038
0.0105 -0.0115 4.35595990654
0.0105 -0.0105 4.26528665929
0.0105 -0.0095 4.15986009401
0.0105 -0.0085 4.05443744565
0.0105 -0.0075 3.97605705502
0.0105 -0.0065 3.93827334181
0.0105 -0.0055 3.93800271212
0.0105 -0.0045 3.97504113185
0.0105 -0.0035 4.04003482831
0.0105 -0.0025 4.11482402487
0.0105 -0.0015 4.18565955593
0.0105 -0.0005 4.24546987314
0.0105 0.0005 4.29300649831
0.0105 0.0015 4.33026862852
0.0105 0.0025 4.36019183192
0.0105 0.0035 4.38537010941
0.0105 0.0045 4.4075519888
0.0105 0.0055 4.42719322202
0.0105 0.0065 4.4432428899
0.0105 0.0075 4.45418958839
0.0105 0.0085 4.46000561511
0.0105 0.0095 4.46237207196
0.0105 0.0105 4.46327698987
0.0105 0.0115 4.46451912458
0.0105 0.0125 4.46956374016
0.0105 0.0135 4.48336937546
0.0105 0.0145 4.50448844586
0.0105 0.0155 4.5201803816
0.0105 0.0165 4.51361912466
0.0105 0.0175 4.47330539627
0.0105 0.0185 4.39743865135
0.0105 0.0195 4.29274711292
0.0105 0.0205 4.17040517003
0.0105 0.0215 4.04510998359
0.0105 0.0225 3.9315741222
0.0105 0.0235 3.8345568885
0.0105 0.0245 3.74994301545
0.0105 0.0255 3.67393491483
0.0105 0.0265 3.60569922949
0.0105 0.0275 3.54619369923
0.0105 0.0285 3.49669613947
0.0105 0.0295 3.4594953521
0.0105 0.0305 3.43695379607
0.0105 0.0315 3.42904992656
0.0115 -0.0315 4.79570349855
0.0115 -0.0305 4.78373481544
0.0115 -0.0295 4.76729405154
0.0115 -0.0285 4.75672135069
0.0115 -0.0275 4.75384458557
0.0115 -0.0265 4.75582859195
0.0115 -0.0255 4.76106382249
0.0115 -0.0245 4.77009603572
0.0115 -0.0235 4.78084045264
0.0115 -0.0225 4.78759036261
0.0115 -0.0215 4.7827681598
0.0115 -0.0205 4.75996295209
0.0115 -0.0195 4.71804284185
0.0115 -0.0185 4.6613996343
0.0115 -0.0175 4.59713810621
0.0115 -0.0165 4.53163633332
0.0115 -0.0155 4.46808479932
0.0115 -0.0145 4.40566831745
0.0115 -0.0135 4.34013661596
0.0115 -0.0125 4.26520811826
0.0115 -0.0115 4.17492204596
0.0115 -0.0105 4.06779500921
0.0115 -0.0095 3.95194061158
0.0115 -0.0085 3.84331101055
0.0115 -0.0075 3.76156986045
0.0115 -0.0065 3.7092416285
0.0115 -0.0055 3.67964679584
0.0115 -0.0045 3.68559679322
0.0115 -0.0035 3.73531522917
0.0115 -0.0025 3.81370034542
0.0115 -0.0015 3.89959570251
0.0115 -0.0005 3.9796889898
0.0115 0.0005 4.04931720392
0.0115 0.0015 4.10963258099
0.0115 0.0025 4.16439269892
0.0115 0.0035 4.21749123844
0.0115 0.0045 4.27098924007
0.0115 0.0055 4.32377326383
0.0115 0.0065 4.37155940083
0.0115 0.0075 4.40885732828
0.0115 0.0085 4.43284249154
0.0115 0.0095 4.44492877341
0.0115 0.0105 4.4499704889
0.0115 0.0115 4.45300484113
0.0115 0.0125 4.45770635559
0.0115 0.0135 4.4679920971
0.0115 0.0145 4.48371513291
0.0115 0.0155 4.49652293959
0.0115 0.0165 4.49396185258
0.0115 0.0175 4.46101737804
0.0115 0.0185 4.38726609836
0.0115 0.0195 4.277196261
0.0115 0.0205 4.14591694888
0.0115 0.0215 4.01225609978
0.0115 0.0225 3.89244767264
0.0115 0.0235 3.78983470076
0.0115 0.0245 3.70086150222
0.0115 0.0255 3.62469553363
0.0115 0.0265 3.56016236073
0.0115 0.0275 3.50600817038
0.0115 0.0285 3.4622107712
0.0115 0.0295 3.42937698842
0.0115 0.0305 3.40860333366
0.0115 0.0315 3.4008443197
0.0125 -0.0315 4.76457821926
0.0125 -0.0305 4.75803632491
0.0125 -0.0295 4.74857530299
0.0125 -0.0285 4.74231475324
0.0125 -0.0275 4.74023899618
0.0125 -0.0265 4.74038675602
0.0125 -0.0255 4.74049363741
0.0125 -0.0245 4.73744687669
0.0125 -0.0235 4.72702834814
0.0125 -0.0225 4.70591063254
0.0125 -0.0215 4.67241090591
0.0125 -0.0205 4.62645468661
0.0125 -0.0195 4.56977191864
0.0125 -0.0185 4.50588007107
0.0125 -0.0175 4.43892059459
0.0125 -0.0165 4.37199885025
0.0125 -0.0155 4.30584685794
0.0125 -0.0145 4.23832595539
0.0125 -0.0135 4.1651839569
0.0125 -0.0125 4.08163810195
0.0125 -0.0115 3.98415739065
0.0125 -0.0105 3.87475741116
0.0125 -0.0095 3.76469333457
0.0125 -0.0085 3.6660866067
0.0125 -0.0075 3.58720695375
0.0125 -0.0065 3.52590822625
0.0125 -0.0055 3.47676574859
0.0125 -0.0045 3.4508985538
0.0125 -0.0035 3.46597967203
0.0125 -0.0025 3.52208508974
0.0125 -0.0015 3.60153569925
0.0125 -0.0005 3.6876005016
0.0125 0.0005 3.77144525082
0.0125 0.0015 3.85129748887
0.0125 0.0025 3.93006600408
0.0125 0.0035 4.01208482284
0.0125 0.0045 4.09980149198
0.0125 0.0055 4.19117213173
0.0125 0.0065 4.27850165758
0.0125 0.0075 4.35046851393
0.0125 0.0085 4.3990092138
0.0125 0.0095 4.42404662424
0.0125 0.0105 4.43406538678
0.0125 0.0115 4.43881590901
0.0125 0.0125 4.44253004684
0.0125 0.0135 4.44728902954
0.0125 0.0145 4.45416099798
0.0125 0.0155 4.46074641723
0.0125 0.0165 4.45983396764
0.0125 0.0175 4.43462832993
0.0125 0.0185 4.36811429362
0.0125 0.0195 4.25984965788
0.0125 0.0205 4.12476226619
0.0125 0.0215 3.9837186648
0.0125 0.0225 3.85440298463
0.0125 0.0235 3.74343946716
0.0125 0.0245 3.65104652634
0.0125 0.0255 3.57629757984
0.0125 0.0265 3.51555799863
0.0125 0.0275 3.46680854656
0.0125 0.0285 3.42989782377
0.0125 0.0295 3.40396568097
0.0125 0.0305 3.3881960268
0.0125 0.0315 3.38216627325
0.0135 -0.0315 4.74160333133
0.0135 -0.0305 4.73843005152
0.0135 -0.0295 4.73296040435
0.0135 -0.0285 4.72901897008
0.0135 -0.0275 4.72720946012
0.0135 -0.0265 4.72600749746
0.0135 -0.0255 4.72212641934
0.0135 -0.0245 4.70852193246
0.0135 -0.0235 4.67774439839
0.0135 -0.0225 4.62744603315
0.0135 -0.0215 4.5612267651
0.0135 -0.0205 4.48614018348
0.0135 -0.0195 4.40882825584
0.0135 -0.0185 4.33368363494
0.0135 -0.0175 4.26245730403
0.0135 -0.0165 4.19456663549
0.0135 -0.0155 4.1275172094
0.0135 -0.0145 4.05767717404
0.0135 -0.0135 3.98115427205
0.0135 -0.0125 3.89501814074
0.0135 -0.0115 3.7984775066
0.0135 -0.0105 3.69627616806
0.0135 -0.0095 3.59904511923
0.0135 -0.0085 3.51340272632
0.0135 -0.0075 3.43899196363
0.0135 -0.0065 3.3750276536
0.0135 -0.0055 3.32029308694
0.0135 -0.0045 3.27621693293
0.0135 -0.0035 3.25506833415
0.0135 -0.0025 3.27210166415
0.0135 -0.0015 3.32614840096
0.0135 -0.0005 3.40311972132
0.0135 0.0005 3.49109537955
0.0135 0.0015 3.58404223362
0.0135 0.0025 3.68186824101
0.0135 0.0035 3.78808352271
0.0135 0.0045 3.90602894777
0.0135 0.0055 4.03445380443
0.0135 0.0065 4.1637607223
0.0135 0.0075 4.27632579665
0.0135 0.0085 4.35618517875
0.0135 0.0095 4.39871743679
0.0135 0.0105 4.41545853618
0.0135 0.0115 4.42229339489
0.0135 0.0125 4.42488143537
0.0135 0.0135 4.42401063857
0.0135 0.0145 4.42267115091
0.0135 0.0155 4.42328108466
0.0135 0.0165 4.4209655604
0.0135 0.0175 4.4000122644
0.0135 0.0185 4.34246437175
0.0135 0.0195 4.24261014532
0.0135 0.0205 4.11054569778
0.0135 0.0215 3.9651658719
0.0135 0.0225 3.8247533099
0.0135 0.0235 3.7021680439
0.0135 0.0245 3.60392335648
0.0135 0.0255 3.52932084834
0.0135 0.0265 3.47222059534
0.0135 0.0275 3.42830826344
0.0135 0.0285 3.39751012576
0.0135 0.0295 3.37937224752
0.0135 0.0305 3.37063215485
0.0135 0.0315 3.3677943863
0.0145 -0.0315 4.72459640724
0.0145 -0.0305 4.72304027896
0.0145 -0.0295 4.71940805991
0.0145 -0.0285 4.71640793142
0.0145 -0.0275 4.71448078528
0.0145 -0.0265 4.71204829295
0.0145 -0.0255 4.70421618416
0.0145 -0.0245 4.67941097042
0.0145 -0.0235 4.6266758369
0.0145 -0.0225 4.54517986304
0.0145 -0.0215 4.44459504863
0.0145 -0.0205 4.33949221194
0.0145 -0.0195 4.24138910464
0.0145 -0.0185 4.15527285633
0.0145 -0.0175 4.08011421693
0.0145 -0.0165 4.01160729151
0.0145 -0.0155 3.94447466407
0.0145 -0.0145 3.87406639918
0.0145 -0.0135 3.79710320363
0.0145 -0.0125 3.71235933004
0.0145 -0.0115 3.62157418227
0.0145 -0.0105 3.53059858132
0.0145 -0.0095 3.44692351444
0.0145 -0.0085 3.373246617
0.0145 -0.0075 3.30544402053
0.0145 -0.0065 3.24336352225
0.0145 -0.0055 3.18798912618
0.0145 -0.0045 3.13569681879
0.0145 -0.0035 3.0903227242
0.0145 -0.0025 3.07033687446
0.0145 -0.0015 3.09136634273
0.0145 -0.0005 3.14992981681
0.0145 0.0005 3.23435279007
0.0145 0.0015 3.33474941047
0.0145 0.0025 3.44614708386
0.0145 0.0035 3.56915372933
0.0145 0.0045 3.70784234696
0.0145 0.0055 3.86395944113
0.0145 0.0065 4.02987119359
0.0145 0.0075 4.18447134818
0.0145 0.0085 4.30168248539
0.0145 0.0095 4.36765328189
0.0145 0.0105 4.39481059278
0.0145 0.0115 4.40528940197
0.0145 0.0125 4.40720720234
0.0145 0.0135 4.40160197556
0.0145 0.0145 4.39390560572
0.0145 0.0155 4.38942681819
0.0145 0.0165 4.38412474929
0.0145 0.0175 4.36495048084
0.0145 0.0185 4.3157006431
0.0145 0.0195 4.22654482001
0.0145 0.0205 4.10107682751
0.0145 0.0215 3.95447659642
0.0145 0.0225 3.80563779549
0.0145 0.0235 3.6716814514
0.0145 0.0245 3.56398557676
0.0145 0.0255 3.48498683428
0.0145 0.0265 3.42925172394
0.0145 0.0275 3.38992328378
0.0145 0.0285 3.36465227717
0.0145 0.0295 3.35298440975
0.0145 0.0305 3.35083635055
0.0145 0.0315 3.35184711314
0.0155 -0.0315 4.71152003365
0.0155 -0.0305 4.71059029812
0.0155 -0.0295 4.70750764286
0.0155 -0.0285 4.70454039579
0.0155 -0.0275 4.70217085298
0.0155 -0.0265 4.69832898822
0.0155 -0.0255 4.68575805746
0.0155 -0.0245 4.64743271415
0.0155 -0.0235 4.56923755196
0.0155 -0.0225 4.45412232847
0.0155 -0.0215 4.31976101434
0.0155 -0.0205 4.18772379896
0.0155 -0.0195 4.07215103945
0.0155 -0.0185 3.97699008973
0.0155 -0.0175 3.89820255364
0.0155 -0.0165 3.82847149979
0.0155 -0.0155 3.7609142077
0.0155 -0.0145 3.69057009052
0.0155 -0.0135 3.61490392792
0.0155 -0.0125 3.53419690803
0.0155 -0.0115 3.45162465337
0.0155 -0.0105 3.37230003304
0.0155 -0.0095 3.30074937506
0.0155 -0.0085 3.23830646432
0.0155 -0.0075 3.18046761562
0.0155 -0.0065 3.12320675887
0.0155 -0.0055 3.06583930089
0.0155 -0.0045 3.00750138675
0.0155 -0.0035 2.95090648488
0.0155 -0.0025 2.90820223192
0.0155 -0.0015 2.90112135574
0.0155 -0.0005 2.94050279388
0.0155 0.0005 3.01896234979
0.0155 0.0015 3.12416342584
0.0155 0.0025 3.24591493059
0.0155 0.0035 3.38002944233
0.0155 0.0045 3.52855052312
0.0155 0.0055 3.69728067234
0.0155 0.0065 3.88601146469
0.0155 0.0075 4.07613186254
0.0155 0.0085 4.23302028335
0.0155 0.0095 4.32961474381
0.0155 0.0105 4.37330991259
0.0155 0.0115 4.38961878203
0.0155 0.0125 4.39108112434
0.0155 0.0135 4.38156232538
0.0155 0.0145 4.36901295265
0.0155 0.0155 4.36023960858
0.0155 0.0165 4.35187903214
0.0155 0.0175 4.33380213844
0.0155 0.0185 4.29155745703
0.0155 0.0195 4.21217942763
0.0155 0.0205 4.09382618715
0.0155 0.0215 3.94800763336
0.0155 0.0225 3.79373516502
0.0155 0.0235 3.65002847158
0.0155 0.0245 3.5314229092
0.0155 0.0255 3.44451953436
0.0155 0.0265 3.38700493569
0.0155 0.0275 3.3517523313
0.0155 0.0285 3.33224802379
0.0155 0.0295 3.32505546101
0.0155 0.0305 3.32686516691
0.0155 0.0315 3.33071350376
0.0165 -0.0315 4.70110637367
0.0165 -0.0305 4.70039805288
0.0165 -0.0295 4.69731679264
0.0165 -0.0285 4.69391454874
0.0165 -0.0275 4.69079790807
0.0165 -0.0265 4.68513125842
0.0165 -0.0255 4.66639041402
0.0165 -0.0245 4.61095624243
0.0165 -0.0235 4.50290252695
0.0165 -0.0225 4.35302402451
0.0165 -0.0215 4.18907642206
0.0165 -0.0205 4.0371361309
0.0165 -0.0195 3.90965915863
0.0165 -0.0185 3.80738042123
0.0165 -0.0175 3.72391641738
0.0165 -0.0165 3.6507678867
0.0165 -0.0155 3.58098485834
0.0165 -0.0145 3.51013417854
0.0165 -0.0135 3.43652460065