% Model:              Benchmark260518.mph
% Version:            COMSOL 6.2.0.339
% Date:               May 21 2026, 10:51
% Dimension:          2
% Nodes:              4096
% Expressions:        1
% Description:        压力
% Length unit:        m
% x                       y                        p (Pa)
5.0E-4                    -0.0315                  3.9684874883204033
5.0E-4                    -0.0305                  3.9920279699821806
5.0E-4                    -0.0295                  4.024092058566605
5.0E-4                    -0.0285                  4.0589359460535235
5.0E-4                    -0.0275                  4.095385946662022
5.0E-4                    -0.0265                  4.133014187439368
5.0E-4                    -0.0255                  4.171551000731097
5.0E-4                    -0.0245                  4.210838596158214
5.0E-4                    -0.0235                  4.250753581647974
5.0E-4                    -0.0225                  4.291212219760307
5.0E-4                    -0.0215                  4.332166121854678
5.0E-4                    -0.0205                  4.373619773062384
5.0E-4                    -0.0195                  4.415618673426263
5.0E-4                    -0.0185                  4.458254580693746
5.0E-4                    -0.0175                  4.501662770666323
5.0E-4                    -0.0165                  4.546053155329854
5.0E-4                    -0.0155                  4.591721863192929
5.0E-4                    -0.0145                  4.6391310366010075
5.0E-4                    -0.0135                  4.688828620830106
5.0E-4                    -0.0125                  4.740193468146609
5.0E-4                    -0.0115                  4.790344688538381
5.0E-4                    -0.0105                  4.836285618185211
5.0E-4                    -0.0095                  4.873656540846425
5.0E-4                    -0.0085                  4.905120350053325
5.0E-4                    -0.0075                  4.9318789839437045
5.0E-4                    -0.0065                  4.9510610028537645
5.0E-4                    -0.0055                  4.967186334239696
5.0E-4                    -0.0045                  4.983086916524895
5.0E-4                    -0.0035                  4.99775051342091
5.0E-4                    -0.0025                  5.009316300466702
5.0E-4                    -0.0015                  5.017072535575561
5.0E-4                    -5.0E-4                  5.020922017900815
5.0E-4                    5.0E-4                   5.020936770470555
5.0E-4                    0.0015                   5.017110561129814
5.0E-4                    0.0025                   5.009359125506866
5.0E-4                    0.0035                   4.9977700183487475
5.0E-4                    0.0045                   4.983051495836172
5.0E-4                    0.0055                   4.967073264279937
5.0E-4                    0.0065                   4.9508583791449725
5.0E-4                    0.0075                   4.931590107888541
5.0E-4                    0.0085                   4.904764929670403
5.0E-4                    0.0095                   4.8732684463308455
5.0E-4                    0.0105                   4.835897542068599
5.0E-4                    0.0115                   4.789982248950038
5.0E-4                    0.0125                   4.739884448205508
5.0E-4                    0.0135                   4.68859683204431
5.0E-4                    0.0145                   4.63899426283912
5.0E-4                    0.0155                   4.591691075183156
5.0E-4                    0.0165                   4.5461390505257535
5.0E-4                    0.0175                   4.501876617902388
5.0E-4                    0.0185                   4.458601994695645
5.0E-4                    0.0195                   4.416106639363894
5.0E-4                    0.0205                   4.3742639711957665
5.0E-4                    0.0215                   4.332976328820283
5.0E-4                    0.0225                   4.292187809326579
5.0E-4                    0.0235                   4.251890324012402
5.0E-4                    0.0245                   4.21212186505193
5.0E-4                    0.0255                   4.17295030596865
5.0E-4                    0.0265                   4.134489056029236
5.0E-4                    0.0275                   4.096908318166619
5.0E-4                    0.0285                   4.060496938427354
5.0E-4                    0.0295                   4.025688019833126
5.0E-4                    0.0305                   3.9936771456850995
5.0E-4                    0.0315                   3.9702121017131233
0.0015                    -0.0315                  3.9448071438999013
0.0015                    -0.0305                  3.9684181116879906
0.0015                    -0.0295                  4.002861908687698
0.0015                    -0.0285                  4.04048058453804
0.0015                    -0.0275                  4.079191039841479
0.0015                    -0.0265                  4.118536691167578
0.0015                    -0.0255                  4.1583654668240255
0.0015                    -0.0245                  4.198589785635555
0.0015                    -0.0235                  4.239135133017145
0.0015                    -0.0225                  4.2799288966543685
0.0015                    -0.0215                  4.32091202718736
0.0015                    -0.0205                  4.362057095364571
0.0015                    -0.0195                  4.403389235397
0.0015                    -0.0185                  4.444996706788934
0.0015                    -0.0175                  4.487047832018332
0.0015                    -0.0165                  4.5298179361816775
0.0015                    -0.0155                  4.573787268831804
0.0015                    -0.0145                  4.619724518366747
0.0015                    -0.0135                  4.668472978640052
0.0015                    -0.0125                  4.719887256655019
0.0015                    -0.0115                  4.771332665345826
0.0015                    -0.0105                  4.819397877616517
0.0015                    -0.0095                  4.858742465080329
0.0015                    -0.0085                  4.885529724859296
0.0015                    -0.0075                  4.905457632153896
0.0015                    -0.0065                  4.925721555142378
0.0015                    -0.0055                  4.94784749452027
0.0015                    -0.0045                  4.970242680205025
0.0015                    -0.0035                  4.990310264338834
0.0015                    -0.0025                  5.00630459707028
0.0015                    -0.0015                  5.0173195320350334
0.0015                    -5.0E-4                  5.022911748814218
0.0015                    5.0E-4                   5.022930821304822
0.0015                    0.0015                   5.017368347965494
0.0015                    0.0025                   5.006358442290725
0.0015                    0.0035                   4.990332118034287
0.0015                    0.0045                   4.970191519797617
0.0015                    0.0055                   4.94769305644634
0.0015                    0.0065                   4.925457569127847
0.0015                    0.0075                   4.905105245850561
0.0015                    0.0085                   4.885125438229481
0.0015                    0.0095                   4.858300039832801
0.0015                    0.0105                   4.818924260537399
0.0015                    0.0115                   4.770860137214112
0.0015                    0.0125                   4.719453834355314
0.0015                    0.0135                   4.668111870180595
0.0015                    0.0145                   4.619461158898838
0.0015                    0.0155                   4.573639074404497
0.0015                    0.0165                   4.529797884487807
0.0015                    0.0175                   4.487165402783134
0.0015                    0.0185                   4.4452594588373975
0.0015                    0.0195                   4.403806799960765
0.0015                    0.0205                   4.362639484254537
0.0015                    0.0215                   4.321665043856698
0.0015                    0.0225                   4.280852489253532
0.0015                    0.0235                   4.240221608047508
0.0015                    0.0245                   4.199821260625711
0.0015                    0.0255                   4.159714247140526
0.0015                    0.0265                   4.119974315704452
0.0015                    0.0275                   4.080700263848745
0.0015                    0.0285                   4.042055855853458
0.0015                    0.0295                   4.00451237789869
0.0015                    0.0305                   3.9701642167088154
0.0015                    0.0315                   3.9466433266523455
0.0025                    -0.0315                  3.912436853534941
0.0025                    -0.0305                  3.933807556342866
0.0025                    -0.0295                  3.9683548164811624
0.0025                    -0.0285                  4.008250599483274
0.0025                    -0.0275                  4.049733611936103
0.0025                    -0.0265                  4.091566605845205
0.0025                    -0.0255                  4.133416373240803
0.0025                    -0.0245                  4.175178211101419
0.0025                    -0.0235                  4.216786261560431
0.0025                    -0.0225                  4.258162679588145
0.0025                    -0.0215                  4.299214472627977
0.0025                    -0.0205                  4.339857169583841
0.0025                    -0.0195                  4.380057482186746
0.0025                    -0.0185                  4.419882683040427
0.0025                    -0.0175                  4.459539948393957
0.0025                    -0.0165                  4.499420060635217
0.0025                    -0.0155                  4.54016468353297
0.0025                    -0.0145                  4.582724867302465
0.0025                    -0.0135                  4.628217033924455
0.0025                    -0.0125                  4.677052278603626
0.0025                    -0.0115                  4.727460488727881
0.0025                    -0.0105                  4.776487686281317
0.0025                    -0.0095                  4.818275375657335
0.0025                    -0.0085                  4.848245105135495
0.0025                    -0.0075                  4.870241962480545
0.0025                    -0.0065                  4.8929485533382024
0.0025                    -0.0055                  4.920082821730767
0.0025                    -0.0045                  4.94851750956737
0.0025                    -0.0035                  4.974982694287503
0.0025                    -0.0025                  4.99706895079999
0.0025                    -0.0015                  5.012722407191026
0.0025                    -5.0E-4                  5.020751024548708
0.0025                    5.0E-4                   5.020771524421928
0.0025                    0.0015                   5.012773047917775
0.0025                    0.0025                   4.9971188897971075
0.0025                    0.0035                   4.974987165429541
0.0025                    0.0045                   4.948429565286966
0.0025                    0.0055                   4.919869524210169
0.0025                    0.0065                   4.892609120695947
0.0025                    0.0075                   4.86981131530239
0.0025                    0.0085                   4.847753114876354
0.0025                    0.0095                   4.81771538886562
0.0025                    0.0105                   4.775858797373175
0.0025                    0.0115                   4.7267969102359615
0.0025                    0.0125                   4.676402479835714
0.0025                    0.0135                   4.627628248973328
0.0025                    0.0145                   4.582235796311104
0.0025                    0.0155                   4.539802357095956
0.0025                    0.0165                   4.4992016434065345
0.0025                    0.0175                   4.459476871493314
0.0025                    0.0185                   4.419984461081913
0.0025                    0.0195                   4.3803320657971145
0.0025                    0.0205                   4.340310076252138
0.0025                    0.0215                   4.299848431827643
0.0025                    0.0225                   4.2589755987687585
0.0025                    0.0235                   4.217769097143762
0.0025                    0.0245                   4.176315547081362
0.0025                    0.0255                   4.134690528491626
0.0025                    0.0265                   4.092963550002469
0.0025                    0.0275                   4.051246661046587
0.0025                    0.0285                   4.009883697349483
0.0025                    0.0295                   3.9701171136518605
0.0025                    0.0305                   3.9356945612944556
0.0025                    0.0315                   3.9144089143060325
0.0035                    -0.0315                  3.877259132386976
0.0035                    -0.0305                  3.895957239828107
0.0035                    -0.0295                  3.9284311518883683
0.0035                    -0.0285                  3.9684281945022435
0.0035                    -0.0275                  4.011537423989994
0.0035                    -0.0265                  4.055491910401346
0.0035                    -0.0255                  4.099357488980893
0.0035                    -0.0245                  4.142780164816314
0.0035                    -0.0235                  4.185591767135799
0.0035                    -0.0225                  4.227656725775659
0.0035                    -0.0215                  4.268822226408696
0.0035                    -0.0205                  4.308923057642543
0.0035                    -0.0195                  4.34783042647587
0.0035                    -0.0185                  4.385536760259141
0.0035                    -0.0175                  4.422247920424834
0.0035                    -0.0165                  4.458431659137825
0.0035                    -0.0155                  4.4947945720818705
0.0035                    -0.0145                  4.532223955325062
0.0035                    -0.0135                  4.571692206147073
0.0035                    -0.0125                  4.614106047746792
0.0035                    -0.0115                  4.659550667156227
0.0035                    -0.0105                  4.707079970328104
0.0035                    -0.0095                  4.751702870496119
0.0035                    -0.0085                  4.787217963217461
0.0035                    -0.0075                  4.816149048551587
0.0035                    -0.0065                  4.845700962456345
0.0035                    -0.0055                  4.87831178647242
0.0035                    -0.0045                  4.912934536963227
0.0035                    -0.0035                  4.947623366188365
0.0035                    -0.0025                  4.9783884467246065
0.0035                    -0.0015                  5.000602338142149
0.0035                    -5.0E-4                  5.011891614066044
0.0035                    5.0E-4                   5.011906444666533
0.0035                    0.0015                   5.000633156120664
0.0035                    0.0025                   4.978397193037045
0.0035                    0.0035                   4.947560221246015
0.0035                    0.0045                   4.912757009432527
0.0035                    0.0055                   4.877994317997032
0.0035                    0.0065                   4.845242684676871
0.0035                    0.0075                   4.815576967040412
0.0035                    0.0085                   4.786561485527074
0.0035                    0.0095                   4.750957556046732
0.0035                    0.0105                   4.70623666860149
0.0035                    0.0115                   4.658639953017799
0.0035                    0.0125                   4.613184395941186
0.0035                    0.0135                   4.570819465781484
0.0035                    0.0145                   4.531450191764069
0.0035                    0.0155                   4.49415572710297
0.0035                    0.0165                   4.457951585289182
0.0035                    0.0175                   4.4219422813376985
0.0035                    0.0185                   4.385415909003508
0.0035                    0.0195                   4.347900686779286
0.0035                    0.0205                   4.309187718633183
0.0035                    0.0215                   4.269281758041906
0.0035                    0.0225                   4.2283080994667674
0.0035                    0.0235                   4.18642840071842
0.0035                    0.0245                   4.143793704376853
0.0035                    0.0255                   4.100540855620991
0.0035                    0.0265                   4.056841718243167
0.0035                    0.0275                   4.013055793323982
0.0035                    0.0285                   3.970121011251753
0.0035                    0.0295                   3.9302967675980334
0.0035                    0.0305                   3.897966825466154
0.0035                    0.0315                   3.879349290146986
0.0045                    -0.0315                  3.8405328676455177
0.0045                    -0.0305                  3.857032563315564
0.0045                    -0.0295                  3.88688253441315
0.0045                    -0.0285                  3.925390620741208
0.0045                    -0.0275                  3.968520038544786
0.0045                    -0.0265                  4.01351515367001
0.0045                    -0.0255                  4.058797712956739
0.0045                    -0.0245                  4.10357611392208
0.0045                    -0.0235                  4.147446730508299
0.0045                    -0.0225                  4.1901466922123465
0.0045                    -0.0215                  4.231436349100681
0.0045                    -0.0205                  4.271060846925582
0.0045                    -0.0195                  4.30877368187432
0.0045                    -0.0185                  4.344424829624326
0.0045                    -0.0175                  4.3780976980483794
0.0045                    -0.0165                  4.410219378802399
0.0045                    -0.0155                  4.4415199911504635
0.0045                    -0.0145                  4.472832666402537
0.0045                    -0.0135                  4.505016130776001
0.0045                    -0.0125                  4.539139613992843
0.0045                    -0.0115                  4.577254173144095
0.0045                    -0.0105                  4.620800737153127
0.0045                    -0.0095                  4.666585781680953
0.0045                    -0.0085                  4.708055808402238
0.0045                    -0.0075                  4.7449647625925815
0.0045                    -0.0065                  4.781295030425301
0.0045                    -0.0055                  4.81973248474729
0.0045                    -0.0045                  4.862104620334154
0.0045                    -0.0035                  4.906483811682909
0.0045                    -0.0025                  4.9473532488855145
0.0045                    -0.0015                  4.97770667485184
0.0045                    -5.0E-4                  4.993270825652486
0.0045                    5.0E-4                   4.993269035541336
0.0045                    0.0015                   4.977685509526429
0.0045                    0.0025                   4.94726883154056
0.0045                    0.0035                   4.906286282819537
0.0045                    0.0045                   4.861764887452959
0.0045                    0.0055                   4.81924245370041
0.0045                    0.0065                   4.780660109480971
0.0045                    0.0075                   4.744199618955033
0.0045                    0.0085                   4.707180545338265
0.0045                    0.0095                   4.665602457175079
0.0045                    0.0105                   4.619703052787187
0.0045                    0.0115                   4.576070408715262
0.0045                    0.0125                   4.537928139995445
0.0045                    0.0135                   4.503840929631696
0.0045                    0.0145                   4.471749857854852
0.0045                    0.0155                   4.440573847337012
0.0045                    0.0165                   4.409441390317956
0.0045                    0.0175                   4.377508443894417
0.0045                    0.0185                   4.344036540360307
0.0045                    0.0195                   4.308592890082096
0.0045                    0.0205                   4.2710904546034145
0.0045                    0.0215                   4.231676853329857
0.0045                    0.0225                   4.19059704001065
0.0045                    0.0235                   4.148105321572172
0.0045                    0.0245                   4.104442090166707
0.0045                    0.0255                   4.059872041945408
0.0045                    0.0265                   4.014801190879446
0.0045                    0.0275                   3.970022503588201
0.0045                    0.0285                   3.927110681483623
0.0045                    0.0295                   3.8888072236056668
0.0045                    0.0305                   3.85911487705207
0.0045                    0.0315                   3.8426881282109395
0.0055                    -0.0315                  3.8026897837225704
0.0055                    -0.0305                  3.8175032472461115
0.0055                    -0.0295                  3.844931268307864
0.0055                    -0.0285                  3.881340439249532
0.0055                    -0.0275                  3.9233196995765836
0.0055                    -0.0265                  3.968164168083529
0.0055                    -0.0255                  4.013950704771098
0.0055                    -0.0245                  4.059472242637126
0.0055                    -0.0235                  4.104017949060922
0.0055                    -0.0225                  4.147138653075906
0.0055                    -0.0215                  4.188484101581298
0.0055                    -0.0205                  4.227716116937547
0.0055                    -0.0195                  4.264482492723757
0.0055                    -0.0185                  4.298456872540285
0.0055                    -0.0175                  4.329468236597165
0.0055                    -0.0165                  4.357708679747698
0.0055                    -0.0155                  4.383898908887209
0.0055                    -0.0145                  4.409167410417091
0.0055                    -0.0135                  4.434740153140068
0.0055                    -0.0125                  4.462561401352152
0.0055                    -0.0115                  4.4950354009781694
0.0055                    -0.0105                  4.533880688072212
0.0055                    -0.0095                  4.577007213985628
0.0055                    -0.0085                  4.619926925767919
0.0055                    -0.0075                  4.661021177523354
0.0055                    -0.0065                  4.7017079849144245
0.0055                    -0.0055                  4.746591788198147
0.0055                    -0.0045                  4.797493726624503
0.0055                    -0.0035                  4.850360362411742
0.0055                    -0.0025                  4.899334208012136
0.0055                    -0.0015                  4.936845426220616
0.0055                    -5.0E-4                  4.956795584649401
0.0055                    5.0E-4                   4.956761185864892
0.0055                    0.0015                   4.936728676389574
0.0055                    0.0025                   4.899098871241176
0.0055                    0.0035                   4.849971118184895
0.0055                    0.0045                   4.796935701512595
0.0055                    0.0055                   4.745868235627358
0.0055                    0.0065                   4.700837861624972
0.0055                    0.0075                   4.660022177539983
0.0055                    0.0085                   4.618806208962247
0.0055                    0.0095                   4.575769328927382
0.0055                    0.0105                   4.532529235945738
0.0055                    0.0115                   4.493593302591883
0.0055                    0.0125                   4.461077184704121
0.0055                    0.0135                   4.433273110519052
0.0055                    0.0145                   4.40777803733701
0.0055                    0.0155                   4.38263903490925
0.0055                    0.0165                   4.356617512262797
0.0055                    0.0175                   4.328571920832784
0.0055                    0.0185                   4.297771024771606
0.0055                    0.0195                   4.26401592115865
0.0055                    0.0205                   4.227473974975105
0.0055                    0.0215                   4.188470051293507
0.0055                    0.0225                   4.147356348007748
0.0055                    0.0235                   4.104472036864
0.0055                    0.0245                   4.060168715068395
0.0055                    0.0255                   4.014896431933016
0.0055                    0.0265                   3.9693653130313753
0.0055                    0.0275                   3.9247784543941586
0.0055                    0.0285                   3.8830498318506717
0.0055                    0.0295                   3.846866153376997
0.0055                    0.0305                   3.819598630957299
0.0055                    0.0315                   3.8048434857847275
0.0065                    -0.0315                  3.7639820988512303
0.0065                    -0.0305                  3.7774866846068162
0.0065                    -0.0295                  3.8028549175344026
0.0065                    -0.0285                  3.8371190107197415
0.0065                    -0.0275                  3.877383405085083
0.0065                    -0.0265                  3.921197230768458
0.0065                    -0.0255                  3.9665898799435073
0.0065                    -0.0245                  4.0121159385783915
0.0065                    -0.0235                  4.056799654390783
0.0065                    -0.0225                  4.099993466860359
0.0065                    -0.0215                  4.141226442215019
0.0065                    -0.0205                  4.1800908885887385
0.0065                    -0.0195                  4.216171842484279
0.0065                    -0.0185                  4.249015408808412
0.0065                    -0.0175                  4.278175958267876
0.0065                    -0.0165                  4.303460314855702
0.0065                    -0.0155                  4.3254018245803145
0.0065                    -0.0145                  4.345635110941556
0.0065                    -0.0135                  4.366660116630177
0.0065                    -0.0125                  4.391920505473916
0.0065                    -0.0115                  4.422318682329923
0.0065                    -0.0105                  4.45701902758819
0.0065                    -0.0095                  4.494307622290966
0.0065                    -0.0085                  4.533066226491778
0.0065                    -0.0075                  4.572167733614268
0.0065                    -0.0065                  4.6130741822385755
0.0065                    -0.0055                  4.66212332447083
0.0065                    -0.0045                  4.71909058114242
0.0065                    -0.0035                  4.777676121030899
0.0065                    -0.0025                  4.831512231956767
0.0065                    -0.0015                  4.87338839175435
0.0065                    -5.0E-4                  4.896300164652917
0.0065                    5.0E-4                   4.8962198225764295
0.0065                    0.0015                   4.873140909944508
0.0065                    0.0025                   4.8310825996700055
0.0065                    0.0035                   4.777055534440361
0.0065                    0.0045                   4.718279763215351
0.0065                    0.0055                   4.661132158815584
0.0065                    0.0065                   4.611933508617097
0.0065                    0.0075                   4.570910218107613
0.0065                    0.0085                   4.531698791406341
0.0065                    0.0095                   4.4928337422003235
0.0065                    0.0105                   4.455446458111139
0.0065                    0.0115                   4.4206583351561655
0.0065                    0.0125                   4.390201096806247
0.0065                    0.0135                   4.364931823780411