% Model:              Benchmark260518.mph
% Version:            COMSOL 6.2.0.339
% Date:               May 22 2026, 05:49
% Dimension:          2
% Nodes:              4096
% Expressions:        1
% Description:        压力
% Length unit:        m
% x                       y                        p (Pa)
5.0E-4                    -0.0315                  3.5649622971509007
5.0E-4                    -0.0305                  3.5945938120193732
5.0E-4                    -0.0295                  3.6349012577502586
5.0E-4                    -0.0285                  3.6788472413533215
5.0E-4                    -0.0275                  3.725121462484923
5.0E-4                    -0.0265                  3.773569387382675
5.0E-4                    -0.0255                  3.8244318032787517
5.0E-4                    -0.0245                  3.878287308192565
5.0E-4                    -0.0235                  3.9358279446321616
5.0E-4                    -0.0225                  3.997856918887541
5.0E-4                    -0.0215                  4.06496918002159
5.0E-4                    -0.0205                  4.135767956464987
5.0E-4                    -0.0195                  4.205880190233994
5.0E-4                    -0.0185                  4.270522733606036
5.0E-4                    -0.0175                  4.321636179617987
5.0E-4                    -0.0165                  4.3537255482369295
5.0E-4                    -0.0155                  4.369579569956715
5.0E-4                    -0.0145                  4.374237459896608
5.0E-4                    -0.0135                  4.375188476503403
5.0E-4                    -0.0125                  4.381523991726427
5.0E-4                    -0.0115                  4.3996531204912355
5.0E-4                    -0.0105                  4.43294002570707
5.0E-4                    -0.0095                  4.481471413190505
5.0E-4                    -0.0085                  4.538003363547972
5.0E-4                    -0.0075                  4.586237492260507
5.0E-4                    -0.0065                  4.609519905667419
5.0E-4                    -0.0055                  4.605472503744531
5.0E-4                    -0.0045                  4.586388122804103
5.0E-4                    -0.0035                  4.566877247256093
5.0E-4                    -0.0025                  4.555346637075447
5.0E-4                    -0.0015                  4.551495762141829
5.0E-4                    -5.0E-4                  4.564485522046272
5.0E-4                    5.0E-4                   4.633283085321061
5.0E-4                    0.0015                   4.76194692406642
5.0E-4                    0.0025                   4.88709693556275
5.0E-4                    0.0035                   4.970080799183335
5.0E-4                    0.0045                   5.018609756526752
5.0E-4                    0.0055                   5.0457740003737355
5.0E-4                    0.0065                   5.058867148875726
5.0E-4                    0.0075                   5.056898080309638
5.0E-4                    0.0085                   5.039164838974231
5.0E-4                    0.0095                   5.013351647950864
5.0E-4                    0.0105                   4.987414022310164
5.0E-4                    0.0115                   4.957561946415371
5.0E-4                    0.0125                   4.926171998128419
5.0E-4                    0.0135                   4.900688078485226
5.0E-4                    0.0145                   4.875630528089996
5.0E-4                    0.0155                   4.828241084507778
5.0E-4                    0.0165                   4.756838985176467
5.0E-4                    0.0175                   4.710326336120589
5.0E-4                    0.0185                   4.689796670988802
5.0E-4                    0.0195                   4.656734534475862
5.0E-4                    0.0205                   4.603007832252298
5.0E-4                    0.0215                   4.531508249344987
5.0E-4                    0.0225                   4.449614912753349
5.0E-4                    0.0235                   4.363508545776162
5.0E-4                    0.0245                   4.278733604843422
5.0E-4                    0.0255                   4.197128995192967
5.0E-4                    0.0265                   4.118873941575879
5.0E-4                    0.0275                   4.044007554294106
5.0E-4                    0.0285                   3.9726005921184386
5.0E-4                    0.0295                   3.904993725493189
5.0E-4                    0.0305                   3.843053299681209
5.0E-4                    0.0315                   3.797680451484238
0.0015                    -0.0315                  3.534929797141592
0.0015                    -0.0305                  3.564224195451268
0.0015                    -0.0295                  3.606548840515056
0.0015                    -0.0285                  3.6523899370058026
0.0015                    -0.0275                  3.699264486432838
0.0015                    -0.0265                  3.7469551463644435
0.0015                    -0.0255                  3.7960194598834454
0.0015                    -0.0245                  3.84756044439662
0.0015                    -0.0235                  3.9031754983335425
0.0015                    -0.0225                  3.9645765993653588
0.0015                    -0.0215                  4.032811652115595
0.0015                    -0.0205                  4.106732191093143
0.0015                    -0.0195                  4.181485432474217
0.0015                    -0.0185                  4.25109780728493
0.0015                    -0.0175                  4.307349802488529
0.0015                    -0.0165                  4.344175647370387
0.0015                    -0.0155                  4.361969868530608
0.0015                    -0.0145                  4.365464517314535
0.0015                    -0.0135                  4.364432434474644
0.0015                    -0.0125                  4.3695403138929105
0.0015                    -0.0115                  4.386588552836037
0.0015                    -0.0105                  4.416584074028407
0.0015                    -0.0095                  4.459042810046934
0.0015                    -0.0085                  4.511108182495577
0.0015                    -0.0075                  4.562048710138875
0.0015                    -0.0065                  4.593311336124286
0.0015                    -0.0055                  4.595062655725391
0.0015                    -0.0045                  4.578308512880583
0.0015                    -0.0035                  4.56203576918678
0.0015                    -0.0025                  4.55434562202807
0.0015                    -0.0015                  4.553223991921207
0.0015                    -5.0E-4                  4.550819729408042
0.0015                    5.0E-4                   4.615410705562269
0.0015                    0.0015                   4.75295175735493
0.0015                    0.0025                   4.871743253139666
0.0015                    0.0035                   4.946299750896433
0.0015                    0.0045                   4.984885237998837
0.0015                    0.0055                   5.004989827117125
0.0015                    0.0065                   5.016615158394971
0.0015                    0.0075                   5.0218309181388525
0.0015                    0.0085                   5.01553536399155
0.0015                    0.0095                   4.9920880886049455
0.0015                    0.0105                   4.954129867348014
0.0015                    0.0115                   4.911151043209936
0.0015                    0.0125                   4.87464847372371
0.0015                    0.0135                   4.846007386030281
0.0015                    0.0145                   4.815827140629629
0.0015                    0.0155                   4.770909975551504
0.0015                    0.0165                   4.727983226499645
0.0015                    0.0175                   4.704717297812917
0.0015                    0.0185                   4.68222593606638
0.0015                    0.0195                   4.646218447813667
0.0015                    0.0205                   4.589569634893646
0.0015                    0.0215                   4.513111408034382
0.0015                    0.0225                   4.42487496650665
0.0015                    0.0235                   4.33270545797574
0.0015                    0.0245                   4.2436673746605065
0.0015                    0.0255                   4.160043231436015
0.0015                    0.0265                   4.0812724518052
0.0015                    0.0275                   4.005970666472598
0.0015                    0.0285                   3.9329701633645175
0.0015                    0.0295                   3.8620928078065764
0.0015                    0.0305                   3.796779766823837
0.0015                    0.0315                   3.7518182237544395
0.0025                    -0.0315                  3.4937445183226483
0.0025                    -0.0305                  3.5196055833850943
0.0025                    -0.0295                  3.5605406515506193
0.0025                    -0.0285                  3.606717978295517
0.0025                    -0.0275                  3.6535032594554946
0.0025                    -0.0265                  3.6997015824572492
0.0025                    -0.0255                  3.7458569261158043
0.0025                    -0.0245                  3.793621257006844
0.0025                    -0.0235                  3.8455784594403646
0.0025                    -0.0225                  3.904741957908204
0.0025                    -0.0215                  3.9730478584920212
0.0025                    -0.0205                  4.049258745864975
0.0025                    -0.0195                  4.128411674401013
0.0025                    -0.0185                  4.202445806772337
0.0025                    -0.0175                  4.263842950013687
0.0025                    -0.0165                  4.307127436234227
0.0025                    -0.0155                  4.328550965749442
0.0025                    -0.0145                  4.33344961766233
0.0025                    -0.0135                  4.335889000529487
0.0025                    -0.0125                  4.346625497192015
0.0025                    -0.0115                  4.367967545318372
0.0025                    -0.0105                  4.397670970715328
0.0025                    -0.0095                  4.433951011220786
0.0025                    -0.0085                  4.477723615932013
0.0025                    -0.0075                  4.527882940536793
0.0025                    -0.0065                  4.567746279331258
0.0025                    -0.0055                  4.57658681570652
0.0025                    -0.0045                  4.5627680915593105
0.0025                    -0.0035                  4.551522282973191
0.0025                    -0.0025                  4.551288359570042
0.0025                    -0.0015                  4.555456691967428
0.0025                    -5.0E-4                  4.575266833999656
0.0025                    5.0E-4                   4.656155260037857
0.0025                    0.0015                   4.773902212455753
0.0025                    0.0025                   4.868296943039886
0.0025                    0.0035                   4.927826554314975
0.0025                    0.0045                   4.957526181032101
0.0025                    0.0055                   4.973443532195189
0.0025                    0.0065                   4.983817342877419
0.0025                    0.0075                   4.989571438066063
0.0025                    0.0085                   4.985206965049267
0.0025                    0.0095                   4.962999155171458
0.0025                    0.0105                   4.92306511242181
0.0025                    0.0115                   4.877526212626271
0.0025                    0.0125                   4.83716788498427
0.0025                    0.0135                   4.802378645258065
0.0025                    0.0145                   4.76801932874439
0.0025                    0.0155                   4.730581621603383
0.0025                    0.0165                   4.696715857626394
0.0025                    0.0175                   4.672738235042878
0.0025                    0.0185                   4.646960045749144
0.0025                    0.0195                   4.605876088739176
0.0025                    0.0205                   4.543411298387852
0.0025                    0.0215                   4.46025228612785
0.0025                    0.0225                   4.364703024243365
0.0025                    0.0235                   4.266766393971695
0.0025                    0.0245                   4.174767696498177
0.0025                    0.0255                   4.0908144092825625
0.0025                    0.0265                   4.012977945695271
0.0025                    0.0275                   3.9382423398431277
0.0025                    0.0285                   3.8645003755203486
0.0025                    0.0295                   3.792458760538646
0.0025                    0.0305                   3.728841649915242
0.0025                    0.0315                   3.689073875628917
0.0035                    -0.0315                  3.4486883488556668
0.0035                    -0.0305                  3.4704906347998605
0.0035                    -0.0295                  3.507200764114913
0.0035                    -0.0285                  3.5508747442576443
0.0035                    -0.0275                  3.5960742134973005
0.0035                    -0.0265                  3.640330686599999
0.0035                    -0.0255                  3.6835474289630747
0.0035                    -0.0245                  3.727447806667793
0.0035                    -0.0235                  3.775044687186472
0.0035                    -0.0225                  3.8301008359777096
0.0035                    -0.0215                  3.8956318174435105
0.0035                    -0.0205                  3.9710054291095784
0.0035                    -0.0195                  4.052299409897536
0.0035                    -0.0185                  4.129912005922618
0.0035                    -0.0175                  4.194756017554901
0.0035                    -0.0165                  4.243738574624544
0.0035                    -0.0155                  4.273760065253838
0.0035                    -0.0145                  4.289883967543565
0.0035                    -0.0135                  4.305264959719361
0.0035                    -0.0125                  4.327357833870069
0.0035                    -0.0115                  4.356492110102544
0.0035                    -0.0105                  4.390710913524662
0.0035                    -0.0095                  4.42805022874386
0.0035                    -0.0085                  4.468659016515954
0.0035                    -0.0075                  4.515583863219425
0.0035                    -0.0065                  4.557865741008977
0.0035                    -0.0055                  4.568630121174575
0.0035                    -0.0045                  4.552934677036865
0.0035                    -0.0035                  4.542960790560286
0.0035                    -0.0025                  4.548423863617428
0.0035                    -0.0015                  4.564150569483287
0.0035                    -5.0E-4                  4.609630653841368
0.0035                    5.0E-4                   4.699274515999976
0.0035                    0.0015                   4.796755022320294
0.0035                    0.0025                   4.868826215369242
0.0035                    0.0035                   4.911611448741277
0.0035                    0.0045                   4.9334030769838355
0.0035                    0.0055                   4.946782790486129
0.0035                    0.0065                   4.956621712634183
0.0035                    0.0075                   4.961630058754772
0.0035                    0.0085                   4.955300303770796
0.0035                    0.0095                   4.931114042339221
0.0035                    0.0105                   4.890395613750062
0.0035                    0.0115                   4.84263143324771
0.0035                    0.0125                   4.79680992292593
0.0035                    0.0135                   4.755290931974327
0.0035                    0.0145                   4.715185304590125
0.0035                    0.0155                   4.67479855843997
0.0035                    0.0165                   4.637847695499998
0.0035                    0.0175                   4.607301392715738
0.0035                    0.0185                   4.5752748725198265
0.0035                    0.0195                   4.527753008437406
0.0035                    0.0205                   4.456051253710672
0.0035                    0.0215                   4.364522380063589
0.0035                    0.0225                   4.264795214090729
0.0035                    0.0235                   4.167162508700644
0.0035                    0.0245                   4.07855368792376
0.0035                    0.0255                   3.999142275403443
0.0035                    0.0265                   3.9253607663642134
0.0035                    0.0275                   3.8533472450383948
0.0035                    0.0285                   3.7814920296460106
0.0035                    0.0295                   3.7124993194544937
0.0035                    0.0305                   3.654723895905806
0.0035                    0.0315                   3.6208812114390243
0.0045                    -0.0315                  3.4014850586137344
0.0045                    -0.0305                  3.4197274135538955
0.0045                    -0.0295                  3.451632843587962
0.0045                    -0.0285                  3.491261749379159
0.0045                    -0.0275                  3.533787923252672
0.0045                    -0.0265                  3.5762091806393186
0.0045                    -0.0255                  3.6175691624813795
0.0045                    -0.0245                  3.658957786635104
0.0045                    -0.0235                  3.703310450293059
0.0045                    -0.0225                  3.7539550564294943
0.0045                    -0.0215                  3.813960535817569
0.0045                    -0.0205                  3.884393227670965
0.0045                    -0.0195                  3.964247177404635
0.0045                    -0.0185                  4.044328524612013
0.0045                    -0.0175                  4.114076880901748
0.0045                    -0.0165                  4.171712330560093
0.0045                    -0.0155                  4.215701759684423
0.0045                    -0.0145                  4.249395789379168
0.0045                    -0.0135                  4.280821569887751
0.0045                    -0.0125                  4.314876375715601
0.0045                    -0.0115                  4.3549029701135185
0.0045                    -0.0105                  4.401722813767105
0.0045                    -0.0095                  4.45234492841403
0.0045                    -0.0085                  4.503568439544773
0.0045                    -0.0075                  4.554355291440695
0.0045                    -0.0065                  4.596263867428625
0.0045                    -0.0055                  4.603306467935546
0.0045                    -0.0045                  4.57889554305513
0.0045                    -0.0035                  4.562007377772429
0.0045                    -0.0025                  4.568535750664813
0.0045                    -0.0015                  4.5999317990045645
0.0045                    -5.0E-4                  4.664960336852156
0.0045                    5.0E-4                   4.747110217530515
0.0045                    0.0015                   4.818319370039083
0.0045                    0.0025                   4.8678139948042025
0.0045                    0.0035                   4.895329139201253
0.0045                    0.0045                   4.911001466186986
0.0045                    0.0055                   4.922659408960596
0.0045                    0.0065                   4.931621570158143
0.0045                    0.0075                   4.934201469319858
0.0045                    0.0085                   4.923000504487263
0.0045                    0.0095                   4.893472106064372
0.0045                    0.0105                   4.848939026829762
0.0045                    0.0115                   4.797452600826789
0.0045                    0.0125                   4.746349901344953
0.0045                    0.0135                   4.698565625624861
0.0045                    0.0145                   4.652788332692935
0.0045                    0.0155                   4.606757715146858
0.0045                    0.0165                   4.5614076361382665
0.0045                    0.0175                   4.5182530650074995
0.0045                    0.0185                   4.472589730668991
0.0045                    0.0195                   4.413326208585459
0.0045                    0.0205                   4.330015427928425
0.0045                    0.0215                   4.230781494698354
0.0045                    0.0225                   4.132480887032124
0.0045                    0.0235                   4.043224255059417
0.0045                    0.0245                   3.965397112923203
0.0045                    0.0255                   3.8956538676439796
0.0045                    0.0265                   3.828894253969891
0.0045                    0.0275                   3.7615407929504423
0.0045                    0.0285                   3.6937407697269915
0.0045                    0.0295                   3.6299952451588178
0.0045                    0.0305                   3.5785761569049366
0.0045                    0.0315                   3.549500736466913
0.0055                    -0.0315                  3.3526798967047577
0.0055                    -0.0305                  3.368007803394719
0.0055                    -0.0295                  3.395585549775534
0.0055                    -0.0285                  3.4312094640906166
0.0055                    -0.0275                  3.471145683817606
0.0055                    -0.0265                  3.5125906155670004
0.0055                    -0.0255                  3.5540101075381205
0.0055                    -0.0245                  3.5954845921388117
0.0055                    -0.0235                  3.6386980910204265
0.0055                    -0.0225                  3.686090043031544
0.0055                    -0.0215                  3.7411951081069166
0.0055                    -0.0205                  3.805817903256064
0.0055                    -0.0195                  3.879667489123722
0.0055                    -0.0185                  3.958270802875556
0.0055                    -0.0175                  4.0340771760915395
0.0055                    -0.0165                  4.101795463915822
0.0055                    -0.0155                  4.158986057871219
0.0055                    -0.0145                  4.208935574392542
0.0055                    -0.0135                  4.25772257881067
0.0055                    -0.0125                  4.3112653915545565
0.0055                    -0.0115                  4.376446170784249
0.0055                    -0.0105                  4.453894672651102
0.0055                    -0.0095                  4.533449881509929
0.0055                    -0.0085                  4.604537798158554
0.0055                    -0.0075                  4.663261310073553
0.0055                    -0.0065                  4.704313042589765
0.0055                    -0.0055                  4.704785467629739
0.0055                    -0.0045                  4.667759938960908
0.0055                    -0.0035                  4.637127375833787
0.0055                    -0.0025                  4.639017243071931
0.0055                    -0.0015                  4.675343929370967
0.0055                    -5.0E-4                  4.73339937905779
0.0055                    5.0E-4                   4.791316079740521
0.0055                    0.0015                   4.835849687023872
0.0055                    0.0025                   4.863602703904186
0.0055                    0.0035                   4.879019258469236
0.0055                    0.0045                   4.890114685774957
0.0055                    0.0055                   4.899720998426154
0.0055                    0.0065                   4.905713649817155
0.0055                    0.0075                   4.901814374897521
0.0055                    0.0085                   4.881035431054801
0.0055                    0.0095                   4.842317443834579
0.0055                    0.0105                   4.791328258169101
0.0055                    0.0115                   4.73555275997244
0.0055                    0.0125                   4.680359920185794
0.0055                    0.0135                   4.627777809094302
0.0055                    0.0145                   4.576682207029605
0.0055                    0.0155                   4.5239771896024905
0.0055                    0.0165                   4.46970545533677
0.0055                    0.0175                   4.413972134791644
0.0055                    0.0185                   4.350464769996769
0.0055                    0.0195                   4.273114982179468
0.0055                    0.0205                   4.17838054714691
0.0055                    0.0215                   4.076886485223087
0.0055                    0.0225                   3.986397046412052
0.0055                    0.0235                   3.9112683673156363
0.0055                    0.0245                   3.8481128458711904
0.0055                    0.0255                   3.7901957062642238
0.0055                    0.0265                   3.731109094981982
0.0055                    0.0275                   3.6686855287520412
0.0055                    0.0285                   3.605383066692695
0.0055                    0.0295                   3.5469478497454694
0.0055                    0.0305                   3.501047175927593
0.0055                    0.0315                   3.475686675618357
0.0065                    -0.0315                  3.3025433346535533
0.0065                    -0.0305                  3.3153904985677944
0.0065                    -0.0295                  3.3394265978161015
0.0065                    -0.0285                  3.372015915041605
0.0065                    -0.0275                  3.410497224956402
0.0065                    -0.0265                  3.4524385124320216
0.0065                    -0.0255                  3.4959585117420358
0.0065                    -0.0245                  3.5400492005235034
0.0065                    -0.0235                  3.5846370264147165
0.0065                    -0.0225                  3.631317014422189
0.0065                    -0.0215                  3.6839016729613476
0.0065                    -0.0205                  3.744246827587953
0.0065                    -0.0195                  3.8115994315334936
0.0065                    -0.0185                  3.8855769732631344
0.0065                    -0.0175                  3.961906159661284
0.0065                    -0.0165                  4.033824492074487
0.0065                    -0.0155                  4.100035306142841
0.0065                    -0.0145                  4.166254946896197
0.0065                    -0.0135                  4.241844364904779
0.0065                    -0.0125                  4.334375779292971
0.0065                    -0.0115                  4.44645038880628
0.0065                    -0.0105                  4.569369189274985
0.0065                    -0.0095                  4.682556853654717
0.0065                    -0.0085                  4.768761119049043
0.0065                    -0.0075                  4.828737003819181
0.0065                    -0.0065                  4.863446979797782
0.0065                    -0.0055                  4.852988863754334
0.0065                    -0.0045                  4.803637184034368
0.0065                    -0.0035                  4.759094141888585
0.0065                    -0.0025                  4.747664031121959
0.0065                    -0.0015                  4.767514594734443
0.0065                    -5.0E-4                  4.7993808528982616
0.0065                    5.0E-4                   4.828457736852668
0.0065                    0.0015                   4.847966753739494
0.0065                    0.0025                   4.857700798349543
0.0065                    0.0035                   4.864297323475721
0.0065                    0.0045                   4.870941002507802
0.0065                    0.0055                   4.875966021809244
0.0065                    0.0065                   4.873691157364544
0.0065                    0.0075                   4.8562592830332525
0.0065                    0.0085                   4.8201629657159355
0.0065                    0.0095                   4.769604112669955
0.0065                    0.0105                   4.7119631214644695
0.0065                    0.0115                   4.653076114800009
0.0065                    0.0125                   4.595710091888749