% Model:              Benchmark260518.mph
% Version:            COMSOL 6.2.0.339
% Date:               May 19 2026, 22:39
% Dimension:          2
% Nodes:              4096
% Expressions:        1
% Description:        压力
% Length unit:        m
% x                       y                        p (Pa)
% mirrored_by_python_y_to_minus_y, coord_match_decimals=12
0.0005 -0.0315 4.63108021784
0.0005 -0.0305 4.6571922818
0.0005 -0.0295 4.69306214489
0.0005 -0.0285 4.731853907
0.0005 -0.0275 4.77041921573
0.0005 -0.0265 4.80727486827
0.0005 -0.0255 4.84081347827
0.0005 -0.0245 4.87722249491
0.0005 -0.0235 4.91016812454
0.0005 -0.0225 4.9269398567
0.0005 -0.0215 4.93776513629
0.0005 -0.0205 4.95168419192
0.0005 -0.0195 4.96695528373
0.0005 -0.0185 4.97946115319
0.0005 -0.0175 4.98904193528
0.0005 -0.0165 4.99704435553
0.0005 -0.0155 5.0016071993
0.0005 -0.0145 5.00045361292
0.0005 -0.0135 4.99356020893
0.0005 -0.0125 4.98273008094
0.0005 -0.0115 4.96799932267
0.0005 -0.0105 4.94612062366
0.0005 -0.0095 4.90761449991
0.0005 -0.0085 4.84955619664
0.0005 -0.0075 4.80308878287
0.0005 -0.0065 4.7939238572
0.0005 -0.0055 4.8011528669
0.0005 -0.0045 4.80459548724
0.0005 -0.0035 4.80327446428
0.0005 -0.0025 4.79612197599
0.0005 -0.0015 4.78037617879
0.0005 -0.0005 4.75262617159
0.0005 0.0005 4.71418882465
0.0005 0.0015 4.66973561354
0.0005 0.0025 4.62355434784
0.0005 0.0035 4.57879124416
0.0005 0.0045 4.53613256731
0.0005 0.0055 4.49531493283
0.0005 0.0065 4.45600124944
0.0005 0.0075 4.41784055452
0.0005 0.0085 4.38055276622
0.0005 0.0095 4.34391879787
0.0005 0.0105 4.30777775345
0.0005 0.0115 4.27201628695
0.0005 0.0125 4.23655990119
0.0005 0.0135 4.2013701006
0.0005 0.0145 4.16643451173
0.0005 0.0155 4.13175677068
0.0005 0.0165 4.09735321812
0.0005 0.0175 4.06325178437
0.0005 0.0185 4.0294808372
0.0005 0.0195 3.99605759934
0.0005 0.0205 3.96299244107
0.0005 0.0215 3.93029734305
0.0005 0.0225 3.8979928568
0.0005 0.0235 3.86610617456
0.0005 0.0245 3.83466701804
0.0005 0.0255 3.80372104126
0.0005 0.0265 3.77335118308
0.0005 0.0275 3.74367779656
0.0005 0.0285 3.71492084617
0.0005 0.0295 3.68742834895
0.0005 0.0305 3.66216240736
0.0005 0.0315 3.64363425732
0.0015 -0.0315 4.6051874572
0.0015 -0.0305 4.63187019058
0.0015 -0.0295 4.67065133407
0.0015 -0.0285 4.71207369553
0.0015 -0.0275 4.75178910183
0.0015 -0.0265 4.78809039814
0.0015 -0.0255 4.81917536888
0.0015 -0.0245 4.84157332528
0.0015 -0.0235 4.85683041533
0.0015 -0.0225 4.86867816657
0.0015 -0.0215 4.88044741458
0.0015 -0.0205 4.89501890535
0.0015 -0.0195 4.91344517244
0.0015 -0.0185 4.93461471978
0.0015 -0.0175 4.95505069859
0.0015 -0.0165 4.97089567016
0.0015 -0.0155 4.97802154334
0.0015 -0.0145 4.97642711522
0.0015 -0.0135 4.96982101753
0.0015 -0.0125 4.96067836176
0.0015 -0.0115 4.94861541048
0.0015 -0.0105 4.93012254542
0.0015 -0.0095 4.89734157029
0.0015 -0.0085 4.84404836589
0.0015 -0.0075 4.80629429326
0.0015 -0.0065 4.80156734374
0.0015 -0.0055 4.8046665357
0.0015 -0.0045 4.80713340783
0.0015 -0.0035 4.80502872196
0.0015 -0.0025 4.79672341824
0.0015 -0.0015 4.77909110037
0.0015 -0.0005 4.74732641565
0.0015 0.0005 4.70315570846
0.0015 0.0015 4.65367248267
0.0015 0.0025 4.60470138419
0.0015 0.0035 4.55939489557
0.0015 0.0045 4.51779481803
0.0015 0.0055 4.47886764389
0.0015 0.0065 4.441608709
0.0015 0.0075 4.40533605535
0.0015 0.0085 4.36962060777
0.0015 0.0095 4.33420265767
0.0015 0.0105 4.29893201964
0.0015 0.0115 4.2637346419
0.0015 0.0125 4.22859290356
0.0015 0.0135 4.19352990012
0.0015 0.0145 4.15859337299
0.0015 0.0155 4.12384151802
0.0015 0.0165 4.08933239589
0.0015 0.0175 4.0551150832
0.0015 0.0185 4.02122105913
0.0015 0.0195 3.98766188525
0.0015 0.0205 3.95443417751
0.0015 0.0215 3.92152877912
0.0015 0.0225 3.88893672902
0.0015 0.0235 3.85665011727
0.0015 0.0245 3.82466440416
0.0015 0.0255 3.79298566433
0.0015 0.0265 3.76163569669
0.0015 0.0275 3.73066756015
0.0015 0.0285 3.70020167328
0.0015 0.0295 3.67061699892
0.0015 0.0305 3.64356730289
0.0015 0.0315 3.62502393047
0.0025 -0.0315 4.56950543421
0.0025 -0.0305 4.59452666361
0.0025 -0.0295 4.63359916715
0.0025 -0.0285 4.67570383386
0.0025 -0.0275 4.71454962561
0.0025 -0.0265 4.7478701485
0.0025 -0.0255 4.773820006
0.0025 -0.0245 4.79095057565
0.0025 -0.0235 4.80194244878
0.0025 -0.0225 4.81214315032
0.0025 -0.0215 4.82520294913
0.0025 -0.0205 4.84185736403
0.0025 -0.0195 4.86281509844
0.0025 -0.0185 4.88892564601
0.0025 -0.0175 4.91742901197
0.0025 -0.0165 4.94142991452
0.0025 -0.0155 4.95508355784
0.0025 -0.0145 4.957843492
0.0025 -0.0135 4.95327870253
0.0025 -0.0125 4.94489198211
0.0025 -0.0115 4.93376581126
0.0025 -0.0105 4.91802113225
0.0025 -0.0095 4.89372940468
0.0025 -0.0085 4.85929658819
0.0025 -0.0075 4.82679328981
0.0025 -0.0065 4.81194815361
0.0025 -0.0055 4.81126453421
0.0025 -0.0045 4.81157614061
0.0025 -0.0035 4.80524826992
0.0025 -0.0025 4.79027416953
0.0025 -0.0015 4.76387725966
0.0025 -0.0005 4.72281469825
0.0025 0.0005 4.67095037111
0.0025 0.0015 4.6167394364
0.0025 0.0025 4.56664466625
0.0025 0.0035 4.52277528198
0.0025 0.0045 4.48412755752
0.0025 0.0055 4.44878277692
0.0025 0.0065 4.41512030629
0.0025 0.0075 4.38207080252
0.0025 0.0085 4.34901537699
0.0025 0.0095 4.3156340633
0.0025 0.0105 4.28180001238
0.0025 0.0115 4.24751504315
0.0025 0.0125 4.21286669383
0.0025 0.0135 4.17799277509
0.0025 0.0145 4.14305018361
0.0025 0.0155 4.10818803566
0.0025 0.0165 4.07352666767
0.0025 0.0175 4.03914454857
0.0025 0.0185 4.00507564531
0.0025 0.0195 3.97131531684
0.0025 0.0205 3.93783128186
0.0025 0.0215 3.90457539012
0.0025 0.0225 3.87149281603
0.0025 0.0235 3.83852865601
0.0025 0.0245 3.80563290517
0.0025 0.0255 3.77276460743
0.0025 0.0265 3.73990485064
0.0025 0.0275 3.70709676752
0.0025 0.0285 3.67459039962
0.0025 0.0295 3.64335748161
0.0025 0.0305 3.61631722966
0.0025 0.0315 3.5995372973
0.0035 -0.0315 4.52977842287
0.0035 -0.0305 4.55263003502
0.0035 -0.0295 4.58920470421
0.0035 -0.0285 4.6284383718
0.0035 -0.0275 4.66309527936
0.0035 -0.0265 4.69133331371
0.0035 -0.0255 4.7130499909
0.0035 -0.0245 4.72854755452
0.0035 -0.0235 4.74067416458
0.0035 -0.0225 4.7521766674
0.0035 -0.0215 4.76561257144
0.0035 -0.0205 4.78412568014
0.0035 -0.0195 4.80894880931
0.0035 -0.0185 4.84004671133
0.0035 -0.0175 4.8749493072
0.0035 -0.0165 4.90704705381
0.0035 -0.0155 4.92950670474
0.0035 -0.0145 4.93919990532
0.0035 -0.0135 4.93795807355
0.0035 -0.0125 4.93018711453
0.0035 -0.0115 4.91893116668
0.0035 -0.0105 4.90433704412
0.0035 -0.0095 4.88473538067
0.0035 -0.0085 4.85854233618
0.0035 -0.0075 4.83112982642
0.0035 -0.0065 4.81381652353
0.0035 -0.0055 4.80915965479
0.0035 -0.0045 4.80655232348
0.0035 -0.0035 4.79339384345
0.0035 -0.0025 4.76549864502
0.0035 -0.0015 4.72304902022
0.0035 -0.0005 4.66950745467
0.0035 0.0005 4.61243110728
0.0035 0.0015 4.55877663901
0.0035 0.0025 4.51255737523
0.0035 0.0035 4.47365685048
0.0035 0.0045 4.44005028021
0.0035 0.0055 4.40950891555
0.0035 0.0065 4.38023120534
0.0035 0.0075 4.35096890047
0.0035 0.0085 4.32097448408
0.0035 0.0095 4.28988800388
0.0035 0.0105 4.25762842732
0.0035 0.0115 4.22430699189
0.0035 0.0125 4.19015486784
0.0035 0.0135 4.15546007756
0.0035 0.0145 4.12051296625
0.0035 0.0155 4.08556249069
0.0035 0.0165 4.05078746355
0.0035 0.0175 4.01628598375
0.0035 0.0185 3.98208147398
0.0035 0.0195 3.94813921045
0.0035 0.0205 3.9143862001
0.0035 0.0215 3.88072921171
0.0035 0.0225 3.84706924751
0.0035 0.0235 3.81331267392
0.0035 0.0245 3.779380944
0.0035 0.0255 3.74522702447
0.0035 0.0265 3.71087685736
0.0035 0.0275 3.67654283854
0.0035 0.0285 3.64291910884
0.0035 0.0295 3.61174710605
0.0035 0.0305 3.58640896837
0.0035 0.0315 3.57173324973
0.0045 -0.0315 4.48682410697
0.0045 -0.0305 4.50785072074
0.0045 -0.0295 4.54134595733
0.0045 -0.0285 4.57623460592
0.0045 -0.0275 4.60547302432
0.0045 -0.0265 4.62841742746
0.0045 -0.0255 4.64719484373
0.0045 -0.0245 4.66301492747
0.0045 -0.0235 4.67713445498
0.0045 -0.0225 4.69038936782
0.0045 -0.0215 4.70452897616
0.0045 -0.0205 4.7238455397
0.0045 -0.0195 4.75084843054
0.0045 -0.0185 4.78557590717
0.0045 -0.0175 4.82554503014
0.0045 -0.0165 4.86468555987
0.0045 -0.0155 4.89602137317
0.0045 -0.0145 4.91458118236
0.0045 -0.0135 4.91958832998
0.0045 -0.0125 4.91441564004
0.0045 -0.0115 4.90331369622
0.0045 -0.0105 4.88827551176
0.0045 -0.0095 4.86920948871
0.0045 -0.0085 4.84532573548
0.0045 -0.0075 4.81859118608
0.0045 -0.0065 4.79641901851
0.0045 -0.0055 4.78431761168
0.0045 -0.0045 4.77502341066
0.0045 -0.0035 4.75305541036
0.0045 -0.0025 4.7103677714
0.0045 -0.0015 4.65156576495
0.0045 -0.0005 4.58936302608
0.0045 0.0005 4.53347504436
0.0045 0.0015 4.48671930215
0.0045 0.0025 4.44886089207
0.0045 0.0035 4.41749439955
0.0045 0.0045 4.390231786
0.0045 0.0055 4.3650456762
0.0045 0.0065 4.34027460364
0.0045 0.0075 4.31469646271
0.0045 0.0085 4.28755099625
0.0045 0.0095 4.25850335986
0.0045 0.0105 4.22756630357
0.0045 0.0115 4.19499994949
0.0045 0.0125 4.16120826311
0.0045 0.0135 4.12664334743
0.0045 0.0145 4.09172438495
0.0045 0.0155 4.05677970544
0.0045 0.0165 4.0220183316
0.0045 0.0175 3.98753014478
0.0045 0.0185 3.95330646752
0.0045 0.0195 3.9192698431
0.0045 0.0205 3.8853035087
0.0045 0.0215 3.85127580082
0.0045 0.0225 3.81705914749
0.0045 0.0235 3.78254660884
0.0045 0.0245 3.74767302837
0.0045 0.0255 3.71245461021
0.0045 0.0265 3.67707459514
0.0045 0.0275 3.6420621884
0.0045 0.0285 3.60858475576
0.0045 0.0295 3.57872878102
0.0045 0.0305 3.55554951472
0.0045 0.0315 3.54265779721
0.0055 -0.0315 4.44072271148
0.0055 -0.0305 4.46030489684
0.0055 -0.0295 4.49123824326
0.0055 -0.0285 4.52279389513
0.0055 -0.0275 4.54849463895
0.0055 -0.0265 4.56773521214
0.0055 -0.0255 4.58326106165
0.0055 -0.0245 4.59749289033
0.0055 -0.0235 4.61171422809
0.0055 -0.0225 4.62657445045
0.0055 -0.0215 4.64241134028
0.0055 -0.0205 4.66176967087
0.0055 -0.0195 4.68836888464
0.0055 -0.0185 4.72424077104
0.0055 -0.0175 4.76723253537
0.0055 -0.0165 4.8114391423
0.0055 -0.0155 4.85026878318
0.0055 -0.0145 4.87818466431
0.0055 -0.0135 4.89229398106
0.0055 -0.0125 4.89338172457
0.0055 -0.0115 4.88487248467
0.0055 -0.0105 4.86964532879
0.0055 -0.0095 4.84905479291
0.0055 -0.0085 4.82357331528
0.0055 -0.0075 4.79363300522
0.0055 -0.0065 4.76285165396
0.0055 -0.0055 4.73687678059
0.0055 -0.0045 4.71331689817
0.0055 -0.0035 4.67876539764
0.0055 -0.0025 4.62453129615
0.0055 -0.0015 4.55820720704
0.0055 -0.0005 4.49708266096
0.0055 0.0005 4.44924321392
0.0055 0.0015 4.4122890355
0.0055 0.0025 4.38347222248
0.0055 0.0035 4.35972782903
0.0055 0.0045 4.33874433214
0.0055 0.0055 4.31864031018
0.0055 0.0065 4.29787839992
0.0055 0.0075 4.27532313581
0.0055 0.0085 4.25030332169
0.0055 0.0095 4.22261245523
0.0055 0.0105 4.19243542221
0.0055 0.0115 4.16022896419
0.0055 0.0125 4.12658778083
0.0055 0.0135 4.09211539464
0.0055 0.0145 4.05732122168
0.0055 0.0155 4.02256082666
0.0055 0.0165 3.98802245751
0.0055 0.0175 3.95374900747
0.0055 0.0185 3.91967790734
0.0055 0.0195 3.88568341932
0.0055 0.0205 3.85161257247
0.0055 0.0215 3.81731284546
0.0055 0.0225 3.78265472005
0.0055 0.0235 3.7475558428
0.0055 0.0245 3.71201724906
0.0055 0.0255 3.67618768104
0.0055 0.0265 3.64047646457
0.0055 0.0275 3.60571655473
0.0055 0.0285 3.57331455956
0.0055 0.0295 3.54528124736
0.0055 0.0305 3.52415123442
0.0055 0.0315 3.51267454819
0.0065 -0.0315 4.39158477439
0.0065 -0.0305 4.40993282577
0.0065 -0.0295 4.43888450867
0.0065 -0.0285 4.46847747769
0.0065 -0.0275 4.49252051382
0.0065 -0.0265 4.5094216677
0.0065 -0.0255 4.52133833759
0.0065 -0.0245 4.53169450684
0.0065 -0.0235 4.54308289926
0.0065 -0.0225 4.55732724307
0.0065 -0.0215 4.57420067663
0.0065 -0.0205 4.59386574079
0.0065 -0.0195 4.61983471786
0.0065 -0.0185 4.65537831784
0.0065 -0.0175 4.69901512701
0.0065 -0.0165 4.74565518549
0.0065 -0.0155 4.78949955383
0.0065 -0.0145 4.82530504112
0.0065 -0.0135 4.84916850422
0.0065 -0.0125 4.85937905862
0.0065 -0.0115 4.85698437818
0.0065 -0.0105 4.84425629339
0.0065 -0.0095 4.82317657501
0.0065 -0.0085 4.79493899109
0.0065 -0.0075 4.76003126762
0.0065 -0.0065 4.71936013811
0.0065 -0.0055 4.67639663041
0.0065 -0.0045 4.63429073046
0.0065 -0.0035 4.58647711468
0.0065 -0.0025 4.52774768123
0.0065 -0.0015 4.46657913937
0.0065 -0.0005 4.41494992855
0.0065 0.0005 4.37600422408
0.0065 0.0015 4.34636211761
0.0065 0.0025 4.32361196979
0.0065 0.0035 4.30536829509
0.0065 0.0045 4.28919148888
0.0065 0.0055 4.27298401361
0.0065 0.0065 4.25507586771
0.0065 0.0075 4.23434967362
0.0065 0.0085 4.21029570547
0.0065 0.0095 4.18295171191
0.0065 0.0105 4.15276582893
0.0065 0.0115 4.12043949901
0.0065 0.0125 4.08675414259
0.0065 0.0135 4.05241280419
0.0065 0.0145 4.01793530985
0.0065 0.0155 3.98362255085
0.0065 0.0165 3.94957814436
0.0065 0.0175 3.91576062855
0.0065 0.0185 3.88204098981
0.0065 0.0195 3.84825111202
0.0065 0.0205 3.81421965027
0.0065 0.0215 3.77979903042
0.0065 0.0225 3.74489069482
0.0065 0.0235 3.70947714451
0.0065 0.0245 3.67367048309
0.0065 0.0255 3.63778641109
0.0065 0.0265 3.60244080441
0.0065 0.0275 3.5686360851
0.0065 0.0285 3.53778430329
0.0065 0.0295 3.51165694659
0.0065 0.0305 3.49233795505
0.0065 0.0315 3.48200654818
0.0075 -0.0315 4.33956399523
0.0075 -0.0305 4.35672854246
0.0075 -0.0295 4.38389706793
0.0075 -0.0285 4.41172200705
0.0075 -0.0275 4.43394288952
0.0075 -0.0265 4.44847697234
0.0075 -0.0255 4.45719905628
0.0075 -0.0245 4.46361869188
0.0075 -0.0235 4.47085580441
0.0075 -0.0225 4.48169883129
0.0075 -0.0215 4.49715736145
0.0075 -0.0205 4.51715112323
0.0075 -0.0195 4.54352354229
0.0075 -0.0185 4.57839460664
0.0075 -0.0175 4.62073932452
0.0075 -0.0165 4.66697934534
0.0075 -0.0155 4.71256571845
0.0075 -0.0145 4.75305190962
0.0075 -0.0135 4.78449277866
0.0075 -0.0125 4.80387230412
0.0075 -0.0115 4.80982869581
0.0075 -0.0105 4.80271503277
0.0075 -0.0095 4.78378970465
0.0075 -0.0085 4.75407084391
0.0075 -0.0075 4.71394844419
0.0075 -0.0065 4.66320914043
0.0075 -0.0055 4.60610675143
0.0075 -0.0045 4.55101968833
0.0075 -0.0035 4.49752293321
0.0075 -0.0025 4.44309640928
0.0075 -0.0015 4.39401919186
0.0075 -0.0005 4.35355514287
0.0075 0.0005 4.32051697064
0.0075 0.0015 4.29434430271
0.0075 0.0025 4.27405566596
0.0075 0.0035 4.25825989921
0.0075 0.0045 4.24448324173
0.0075 0.0055 4.23016086041
0.0075 0.0065 4.21327479899
0.0075 0.0075 4.19266874815
0.0075 0.0085 4.16806782206
0.0075 0.0095 4.13985409776
0.0075 0.0105 4.10882707926
0.0075 0.0115 4.07595781286
0.0075 0.0125 4.04215979142
0.0075 0.0135 4.0081261098
0.0075 0.0145 3.97426542014
0.0075 0.0155 3.94072647653
0.0075 0.0165 3.90747050808
0.0075 0.0175 3.87435067866
0.0075 0.0185 3.8411759101
0.0075 0.0195 3.80775409477
0.0075 0.0205 3.7739206349
0.0075 0.0215 3.73956186309
0.0075 0.0225 3.70464189592
0.0075 0.0235 3.66923932569
0.0075 0.0245 3.63359732809
0.0075 0.0255 3.59818351891
0.0075 0.0265 3.56374179982
0.0075 0.0275 3.53130897483
0.0075 0.0285 3.5021858956
0.0075 0.0295 3.47789264641
0.0075 0.0305 3.46016689592
0.0075 0.0315 3.45079076971
0.0085 -0.0315 4.28486078474
0.0085 -0.0305 4.30072920044
0.0085 -0.0295 4.32582606641
0.0085 -0.0285 4.35127506866
0.0085 -0.0275 4.37092538434
0.0085 -0.0265 4.38278303621
0.0085 -0.0255 4.38883990762
0.0085 -0.0245 4.39242965229
0.0085 -0.0235 4.39626408087
0.0085 -0.0225 4.40307501609
0.0085 -0.0215 4.41526509419
0.0085 -0.0205 4.43402888278
0.0085 -0.0195 4.45998762147
0.0085 -0.0185 4.49330270044
0.0085 -0.0175 4.53269362636
0.0085 -0.0165 4.57579267769
0.0085 -0.0155 4.61952237152
0.0085 -0.0145 4.66054369546
0.0085 -0.0135 4.6954792158
0.0085 -0.0125 4.72114384748
0.0085 -0.0115 4.73483793221
0.0085 -0.0105 4.73477301397
0.0085 -0.0095 4.72015870449
0.0085 -0.0085 4.69073805857
0.0085 -0.0075 4.64667217059
0.0085 -0.0065 4.58914252186
0.0085 -0.0055 4.52650718486
0.0085 -0.0045 4.46936619986
0.0085 -0.0035 4.41904684722
0.0085 -0.0025 4.37425975748
0.0085 -0.0015 4.33709729054
0.0085 -0.0005 4.30618498056
0.0085 0.0005 4.27876065104
0.0085 0.0015 4.25528397768
0.0085 0.0025 4.2359539977
0.0085 0.0035 4.22018662165
0.0085 0.0045 4.20621965241
0.0085 0.0055 4.19127473409
0.0085 0.0065 4.1730552136
0.0085 0.0075 4.15048287461
0.0085 0.0085 4.12360141568
0.0085 0.0095 4.09326928308
0.0085 0.0105 4.06070627171
0.0085 0.0115 4.02710272251
0.0085 0.0125 3.99335777438
0.0085 0.0135 3.95997823645
0.0085 0.0145 3.92711816171
0.0085 0.0155 3.89469142204
0.0085 0.0165 3.86248905353
0.0085 0.0175 3.83026614729
0.0085 0.0185 3.79779261893
0.0085 0.0195 3.76487927385
0.0085 0.0205 3.731394927
0.0085 0.0215 3.69728580553
0.0085 0.0225 3.66260231437
0.0085 0.0235 3.62753359584
0.0085 0.0245 3.59244564423
0.0085 0.0255 3.55791244934
0.0085 0.0265 3.52472589649
0.0085 0.0275 3.49387763179
0.0085 0.0285 3.46652453841
0.0085 0.0295 3.44396605191
0.0085 0.0305 3.42767009767
0.0085 0.0315 3.41912270071
0.0095 -0.0315 4.22768543786
0.0095 -0.0305 4.24202491496
0.0095 -0.0295 4.26456298133
0.0095 -0.0285 4.28704294167
0.0095 -0.0275 4.30376019821
0.0095 -0.0265 4.31306623704
0.0095 -0.0255 4.31708818479
0.0095 -0.0245 4.31892818622
0.0095 -0.0235 4.32070172655
0.0095 -0.0225 4.32451325123
0.0095 -0.0215 4.33307998099
0.0095 -0.0205 4.34861203356
0.0095 -0.0195 4.37163844513
0.0095 -0.0185 4.40120026113
0.0095 -0.0175 4.43552436399
0.0095 -0.0165 4.47283026029
0.0095 -0.0155 4.5112382263
0.0095 -0.0145 4.54860169593
0.0095 -0.0135 4.582447637
0.0095 -0.0125 4.60999354374
0.0095 -0.0115 4.62827950585
0.0095 -0.0105 4.63433482575
0.0095 -0.0095 4.6253402169
0.0095 -0.0085 4.59939337773
0.0095 -0.0075 4.5571250952
0.0095 -0.0065 4.50213519357
0.0095 -0.0055 4.44402081419
0.0095 -0.0045 4.39211453018
0.0095 -0.0035 4.34894335754
0.0095 -0.0025 4.31509918267
0.0095 -0.0015 4.2889253471
0.0095 -0.0005 4.26649175532
0.0095 0.0005 4.24506319461
0.0095 0.0015 4.22486911178
0.0095 0.0025 4.20677479386
0.0095 0.0035 4.19028027407
0.0095 0.0045 4.17399127786
0.0095 0.0055 4.15589791886
0.0095 0.0065 4.13394054123
0.0095 0.0075 4.107178265
0.0095 0.0085 4.07630902939
0.0095 0.0095 4.04286431176
0.0095 0.0105 4.00847266415
0.0095 0.0115 3.97434824388
0.0095 0.0125 3.94111205563
0.0095 0.0135 3.90886979296
0.0095 0.0145 3.87740542669
0.0095 0.0155 3.84636829916
0.0095 0.0165 3.81539959007
0.0095 0.0175 3.78419350524
0.0095 0.0185 3.7525155259
0.0095 0.0195 3.72020657762
0.0095 0.0205 3.6871911147
0.0095 0.0215 3.65349423994
0.0095 0.0225 3.61926540588
0.0095 0.0235 3.58480279344
0.0095 0.0245 3.5505706532
0.0095 0.0255 3.51720187728
0.0095 0.0265 3.48548261115
0.0095 0.0275 3.45632481865
0.0095 0.0285 3.43074110426
0.0095 0.0295 3.40984061187
0.0095 0.0305 3.39486935975
0.0095 0.0315 3.38707304258
0.0105 -0.0315 4.16825588538
0.0105 -0.0305 4.18085911875
0.0105 -0.0295 4.20050925827
0.0105 -0.0285 4.21979337469
0.0105 -0.0275 4.23365858114
0.0105 -0.0265 4.24082157819
0.0105 -0.0255 4.24341537318
0.0105 -0.0245 4.24424121736
0.0105 -0.0235 4.24489909612
0.0105 -0.0225 4.24678757449
0.0105 -0.0215 4.25212473862
0.0105 -0.0205 4.26317547625
0.0105 -0.0195 4.2806657827
0.0105 -0.0185 4.30359229918
0.0105 -0.0175 4.33019330293
0.0105 -0.0165 4.35906208453
0.0105 -0.0155 4.389132021
0.0105 -0.0145 4.41927211993
0.0105 -0.0135 4.44797915144
0.0105 -0.0125 4.47322355989
0.0105 -0.0115 4.49238909939
0.0105 -0.0105 4.5023237912
0.0105 -0.0095 4.49977189371
0.0105 -0.0085 4.48251370262
0.0105 -0.0075 4.45105934998
0.0105 -0.0065 4.40911636242
0.0105 -0.0055 4.36349354092
0.0105 -0.0045 4.32160279557
0.0105 -0.0035 4.28852692101
0.0105 -0.0025 4.26551108991
0.0105 -0.0015 4.24884343712
0.0105 -0.0005 4.23324773103
0.0105 0.0005 4.21659235897
0.0105 0.0015 4.19938822686
0.0105 0.0025 4.18238027032
0.0105 0.0035 4.16506284306
0.0105 0.0045 4.14539083428
0.0105 0.0055 4.12209559508
0.0105 0.0065 4.09415662019
0.0105 0.0075 4.06123621121
0.0105 0.0085 4.02514716191
0.0105 0.0095 3.98827014576
0.0105 0.0105 3.95244037667
0.0105 0.0115 3.91850149961
0.0105 0.0125 3.88646184697
0.0105 0.0135 3.85586154921
0.0105 0.0145 3.82609060027
0.0105 0.0155 3.79658466481
0.0105 0.0165 3.76690341503
0.0105 0.0175 3.73673276241
0.0105 0.0185 3.70586566156
0.0105 0.0195 3.67419298745
0.0105 0.0205 3.64171041979
0.0105 0.0215 3.60853463657
0.0105 0.0225 3.57491909075
0.0105 0.0235 3.54126136942
0.0105 0.0245 3.50809755739
0.0105 0.0255 3.47608357479
0.0105 0.0265 3.44596873859
0.0105 0.0275 3.41857077453
0.0105 0.0285 3.39476269944
0.0105 0.0295 3.37548249374
0.0105 0.0305 3.36178154157
0.0105 0.0315 3.35469738015
0.0115 -0.0315 4.10683133839
0.0115 -0.0305 4.11766770165
0.0115 -0.0295 4.1344307062
0.0115 -0.0285 4.15064473545
0.0115 -0.0275 4.16195560644
0.0115 -0.0265 4.16738315403
0.0115 -0.0255 4.16895077146
0.0115 -0.0245 4.16910645861
0.0115 -0.0235 4.1690423757
0.0115 -0.0225 4.16954494978
0.0115 -0.0215 4.17191425321
0.0115 -0.0205 4.1777444393
0.0115 -0.0195 4.18773710539
0.0115 -0.0185 4.20137321081
0.0115 -0.0175 4.21760064851
0.0115 -0.0165 4.23562703716
0.0115 -0.0155 4.25500701
0.0115 -0.0145 4.27534675899
0.0115 -0.0135 4.29600147838
0.0115 -0.0125 4.31586090211
0.0115 -0.0115 4.33320329842
0.0115 -0.0105 4.34572054841
0.0115 -0.0095 4.35094633873
0.0115 -0.0085 4.3471144097
0.0115 -0.0075 4.3339768023
0.0115 -0.0065 4.31318787755
0.0115 -0.0055 4.28735065852
0.0115 -0.0045 4.26169095936
0.0115 -0.0035 4.24167712591
0.0115 -0.0025 4.2284605524
0.0115 -0.0015 4.2190940884
0.0115 -0.0005 4.20778308582
0.0115 0.0005 4.19279914509
0.0115 0.0015 4.17642942848
0.0115 0.0025 4.15912814064
0.0115 0.0035 4.13980777589
0.0115 0.0045 4.11620579633
0.0115 0.0055 4.08643720541
0.0115 0.0065 4.05062819236
0.0115 0.0075 4.0104466667
0.0115 0.0085 3.96901711067
0.0115 0.0095 3.92952610769
0.0115 0.0105 3.89347369693
0.0115 0.0115 3.86080674257
0.0115 0.0125 3.83068527111
0.0115 0.0135 3.80207947991
0.0115 0.0145 3.77409441409
0.0115 0.0155 3.74607982728
0.0115 0.0165 3.71760062742
0.0115 0.0175 3.68837584029
0.0115 0.0185 3.65824318325
0.0115 0.0195 3.62715512047
0.0115 0.0205 3.59519177977
0.0115 0.0215 3.56257333681
0.0115 0.0225 3.52966050933
0.0115 0.0235 3.49693973012
0.0115 0.0245 3.46499613646
0.0115 0.0255 3.43448168763
0.0115 0.0265 3.40608703092
0.0115 0.0275 3.38052448727
0.0115 0.0285 3.3585273433
0.0115 0.0295 3.34087068223
0.0115 0.0305 3.32842376671
0.0115 0.0315 3.32203164538
0.0125 -0.0315 4.04369425124
0.0125 -0.0305 4.05300078381
0.0125 -0.0295 4.06724090431
0.0125 -0.0285 4.08076033686
0.0125 -0.0275 4.08983536225
0.0125 -0.0265 4.09375617667
0.0125 -0.0255 4.09441615367
0.0125 -0.0245 4.09389563267
0.0125 -0.0235 4.09306850795
0.0125 -0.0225 4.09217603569
0.0125 -0.0215 4.09135717937
0.0125 -0.0205 4.09115019596
0.0125 -0.0195 4.09207926136
0.0125 -0.0185 4.0943751634
0.0125 -0.0175 4.09819599282
0.0125 -0.0165 4.10367239029
0.0125 -0.0155 4.11092814851
0.0125 -0.0145 4.12007373323
0.0125 -0.0135 4.13116063234
0.0125 -0.0125 4.14408755223
0.0125 -0.0115 4.15847244474
0.0125 -0.0105 4.17359193726
0.0125 -0.0095 4.18841942858
0.0125 -0.0085 4.20168915323
0.0125 -0.0075 4.21203583602
0.0125 -0.0065 4.21803394898
0.0125 -0.0055 4.21847506707
0.0125 -0.0045 4.21431013021
0.0125 -0.0035 4.20847759113
0.0125 -0.0025 4.20419965459
0.0125 -0.0015 4.20059694193
0.0125 -0.0005 4.19118415337
0.0125 0.0005 4.17406556753
0.0125 0.0015 4.15434544851
0.0125 0.0025 4.13409080304
0.0125 0.0035 4.11104066131
0.0125 0.0045 4.08241904857
0.0125 0.0055 4.04482152938
0.0125 0.0065 3.99985488752
0.0125 0.0075 3.9527390208
0.0125 0.0085 3.90762168309
0.0125 0.0095 3.86766297979
0.0125 0.0105 3.83317579018
0.0125 0.0115 3.80288105732
0.0125 0.0125 3.77513977886
0.0125 0.0135 3.74856086524
0.0125 0.0145 3.7221979092
0.0125 0.0155 3.69545934676
0.0125 0.0165 3.66796922922
0.0125 0.0175 3.63949008152
0.0125 0.0185 3.60990805853
0.0125 0.0195 3.5792501774
0.0125 0.0205 3.54770148649
0.0125 0.0215 3.51560324989
0.0125 0.0225 3.48342829937
0.0125 0.0235 3.45174058091
0.0125 0.0245 3.42115089423
0.0125 0.0255 3.39228011209
0.0125 0.0265 3.36573709531
0.0125 0.0275 3.34211391484
0.0125 0.0285 3.32199816857
0.0125 0.0295 3.30600301979
0.0125 0.0305 3.29482024843
0.0125 0.0315 3.28911435248
0.0135 -0.0315 3.97908543814
0.0135 -0.0305 3.98738371446
0.0135 -0.0295 3.99983205316
0.0135 -0.0285 4.01124457828
0.0135 -0.0275 4.01835880447
0.0135 -0.0265 4.02076775905
0.0135 -0.0255 4.02033472786
0.0135 -0.0245 4.0187908442
0.0135 -0.0235 4.01675747192
0.0135 -0.0225 4.0139361481
0.0135 -0.0215 4.00908607434
0.0135 -0.0205 4.00160764363
0.0135 -0.0195 3.99201939819
0.0135 -0.0185 3.98158747583
0.0135 -0.0175 3.97194267485
0.0135 -0.0165 3.96422728595
0.0135 -0.0155 3.95906970263
0.0135 -0.0145 3.95695155548
0.0135 -0.0135 3.95850479716
0.0135 -0.0125 3.96463006581
0.0135 -0.0115 3.97645822736
0.0135 -0.0105 3.99507992397
0.0135 -0.0095 4.02105880645
0.0135 -0.0085 4.05366720296
0.0135 -0.0075 4.09018023064
0.0135 -0.0065 4.12608929932
0.0135 -0.0055 4.15608029922
0.0135 -0.0045 4.17535948051
0.0135 -0.0035 4.18457631709
0.0135 -0.0025 4.18938104808
0.0135 -0.0015 4.19047832938
0.0135 -0.0005 4.18127886615
0.0135 0.0005 4.15915159304
0.0135 0.0015 4.13155362072
0.0135 0.0025 4.10447317476
0.0135 0.0035 4.07553188603
0.0135 0.0045 4.03956196587
0.0135 0.0055 3.99283568746
0.0135 0.0065 3.93959335155
0.0135 0.0075 3.88803288807
0.0135 0.0085 3.8427013734
0.0135 0.0095 3.80508628361
0.0135 0.0105 3.77377852855
0.0135 0.0115 3.74644812473
0.0135 0.0125 3.72100656667
0.0135 0.0135 3.6961100735
0.0135 0.0145 3.67099386066
0.0135 0.0155 3.64518536239
0.0135 0.0165 3.61835680228
0.0135 0.0175 3.59029843965
0.0135 0.0185 3.56095371958
0.0135 0.0195 3.53045563749
0.0135 0.0205 3.49913099413
0.0135 0.0215 3.46746646284
0.0135 0.0225 3.43604884712
0.0135 0.0235 3.40549989519
0.0135 0.0245 3.37642342519
0.0135 0.0255 3.34937430868
0.0135 0.0265 3.32485065299
0.0135 0.0275 3.30330529856
0.0135 0.0285 3.28517135744
0.0135 0.0295 3.27089915353
0.0135 0.0305 3.26100934509
0.0135 0.0315 3.25600008756
0.0145 -0.0315 3.91313684568
0.0145 -0.0305 3.92115550852
0.0145 -0.0295 3.9328958928
0.0145 -0.0285 3.94308036835
0.0145 -0.0275 3.94856060214
0.0145 -0.0265 3.94926706365
0.0145 -0.0255 3.94723135308
0.0145 -0.0245 3.94387168195
0.0145 -0.0235 3.9396448722
0.0145 -0.0225 3.9337312684
0.0145 -0.0215 3.92332753167
0.0145 -0.0205 3.90693252704
0.0145 -0.0195 3.88556039856
0.0145 -0.0185 3.86177836504
0.0145 -0.0175 3.83865947638
0.0145 -0.0165 3.81821091644
0.0145 -0.0155 3.80152017851
0.0145 -0.0145 3.7894465463
0.0145 -0.0135 3.78314917193
0.0145 -0.0125 3.78437452945
0.0145 -0.0115 3.79549729287
0.0145 -0.0105 3.81919094187
0.0145 -0.0095 3.85735432972
0.0145 -0.0085 3.90979579628
0.0145 -0.0075 3.97262076732
0.0145 -0.0065 4.03783156959
0.0145 -0.0055 4.09550567705
0.0145 -0.0045 4.13765872095
0.0145 -0.0035 4.16347276469
0.0145 -0.0025 4.17758161145
0.0145 -0.0015 4.18154448704
0.0145 -0.0005 4.17052317818
0.0145 0.0005 4.14195015204
0.0145 0.0015 4.10413943598
0.0145 0.0025 4.06667917723
0.0145 0.0035 4.02865258145
0.0145 0.0045 3.98320998109
0.0145 0.0055 3.92844651569
0.0145 0.0065 3.87133188887
0.0145 0.0075 3.82037865865
0.0145 0.0085 3.77861701049
0.0145 0.0095 3.7452254498
0.0145 0.0105 3.71763780722
0.0145 0.0115 3.69287594937
0.0145 0.0125 3.66906397276
0.0145 0.0135 3.64525835556
0.0145 0.0145 3.62090783341
0.0145 0.0155 3.5955905112
0.0145 0.0165 3.56896470827
0.0145 0.0175 3.54084291153
0.0145 0.0185 3.51127087715
0.0145 0.0195 3.48055258179
0.0145 0.0205 3.4492097373
0.0145 0.0215 3.41789529602
0.0145 0.0225 3.38729550726
0.0145 0.0235 3.35805045203
0.0145 0.0245 3.33070798958
0.0145 0.0255 3.30571180659
0.0145 0.0265 3.28341579503
0.0145 0.0275 3.26411427452
0.0145 0.0285 3.24807927028
0.0145 0.0295 3.23560166166
0.0145 0.0305 3.22704101154
0.0145 0.0315 3.22274040129
0.0155 -0.0315 3.84584358994
0.0155 -0.0305 3.85432400217
0.0155 -0.0295 3.86664816634
0.0155 -0.0285 3.87689227596
0.0155 -0.0275 3.88137513585
0.0155 -0.0265 3.88016081763
0.0155 -0.0255 3.87564504518
0.0155 -0.0245 3.8690122942
0.0155 -0.0235 3.86081966254
0.0155 -0.0225 3.8498942435
0.0155 -0.0215 3.83185877974
0.0155 -0.0205 3.80492463103
0.0155 -0.0195 3.77116824067
0.0155 -0.0185 3.73431768094
0.0155 -0.0175 3.69850624705
0.0155 -0.0165 3.66651824587
0.0155 -0.0155 3.64009274784
0.0155 -0.0145 3.62064001291
0.0155 -0.0135 3.60980195296
0.0155 -0.0125 3.60983654334
0.0155 -0.0115 3.62373093383
0.0155 -0.0105 3.65482426583
0.0155 -0.0095 3.70583223507
0.0155 -0.0085 3.77618306791
0.0155 -0.0075 3.86100463765
0.0155 -0.0065 3.95063423213
0.0155 -0.0055 4.03237808539
0.0155 -0.0045 4.0964196573
0.0155 -0.0035 4.13902573174
0.0155 -0.0025 4.16134794143
0.0155 -0.0015 4.16511449928
0.0155 -0.0005 4.14903882878
0.0155 0.0005 4.11291511734
0.0155 0.0015 4.06532801233
0.0155 0.0025 4.01707515652
0.0155 0.0035 3.96889993583
0.0155 0.0045 3.91591115662
0.0155 0.0055 3.85811601981
0.0155 0.0065 3.80242956016
0.0155 0.0075 3.75631489902
0.0155 0.0085 3.72033200981
0.0155 0.0095 3.69127605074
0.0155 0.0105 3.66624001541
0.0155 0.0115 3.64276302861
0.0155 0.0125 3.61967315106
0.0155 0.0135 3.59634581131
0.0155 0.0145 3.57225740322
0.0155 0.0155 3.54687352932
0.0155 0.0165 3.51979682352
0.0155 0.0175 3.49092315434
0.0155 0.0185 3.46050823085
0.0155 0.0195 3.42912591578
0.0155 0.0205 3.39754423662
0.0155 0.0215 3.3665767066
0.0155 0.0225 3.33696044109
0.0155 0.0235 3.30928600982
0.0155 0.0245 3.28397920755
0.0155 0.0255 3.26132127597
0.0155 0.0265 3.24149027983
0.0155 0.0275 3.22460876336
0.0155 0.0285 3.21078860306
0.0155 0.0295 3.20017122156
0.0155 0.0305 3.1929685117
0.0155 0.0315 3.18938394344
0.0165 -0.0315 3.77712040344
0.0165 -0.0305 3.78656649583
0.0165 -0.0295 3.80055055056
0.0165 -0.0285 3.81237535203
0.0165 -0.0275 3.81706532437
0.0165 -0.0265 3.81392193276
0.0165 -0.0255 3.80554234933
0.0165 -0.0245 3.79340378345
0.0165 -0.0235 3.77879493571
0.0165 -0.0225 3.76042931717
0.0165 -0.0215 3.73271121495
0.0165 -0.0205 3.69449829704
0.0165 -0.0195 3.64893900435
0.0165 -0.0185 3.59993905061
0.0165 -0.0175 3.55234683302
0.0165 -0.0165 3.51012168995
0.0165 -0.0155 3.47622793358
0.0165 -0.0145 3.45291794354
0.0165 -0.0135 3.44221833536