% Model:              Benchmark260518.mph
% Version:            COMSOL 6.2.0.339
% Date:               May 19 2026, 18:56
% Dimension:          2
% Nodes:              4096
% Expressions:        1
% Description:        压力
% Length unit:        m
% x                       y                        p (Pa)
5.0E-4                    -0.0315                  3.5192234370911013
5.0E-4                    -0.0305                  3.545347253159249
5.0E-4                    -0.0295                  3.581038939027
5.0E-4                    -0.0285                  3.620006051653627
5.0E-4                    -0.0275                  3.6606337223272902
5.0E-4                    -0.0265                  3.7024100135327123
5.0E-4                    -0.0255                  3.7450696968895283
5.0E-4                    -0.0245                  3.7884312320123374
5.0E-4                    -0.0235                  3.8324094131387754
5.0E-4                    -0.0225                  3.876930926484171
5.0E-4                    -0.0215                  3.921935369909321
5.0E-4                    -0.0205                  3.967387722363364
5.0E-4                    -0.0195                  4.01324679804439
5.0E-4                    -0.0185                  4.059490542502364
5.0E-4                    -0.0175                  4.106130730694403
5.0E-4                    -0.0165                  4.153224757225761
5.0E-4                    -0.0155                  4.200917537396799
5.0E-4                    -0.0145                  4.24948849501419
5.0E-4                    -0.0135                  4.299415893600307
5.0E-4                    -0.0125                  4.351368012288804
5.0E-4                    -0.0115                  4.4062635672866275
5.0E-4                    -0.0105                  4.464881655201862
5.0E-4                    -0.0095                  4.526142381286524
5.0E-4                    -0.0085                  4.585999732333494
5.0E-4                    -0.0075                  4.639043953875003
5.0E-4                    -0.0065                  4.677851121144101
5.0E-4                    -0.0055                  4.6993293040231805
5.0E-4                    -0.0045                  4.708191641313853
5.0E-4                    -0.0035                  4.7091382236941035
5.0E-4                    -0.0025                  4.704953228104625
5.0E-4                    -0.0015                  4.697835694468196
5.0E-4                    -5.0E-4                  4.690452092942894
5.0E-4                    5.0E-4                   4.685721385334747
5.0E-4                    0.0015                   4.684791207112113
5.0E-4                    0.0025                   4.685149476038334
5.0E-4                    0.0035                   4.681104714117206
5.0E-4                    0.0045                   4.667424004642214
5.0E-4                    0.0055                   4.6434504911397045
5.0E-4                    0.0065                   4.614367877659635
5.0E-4                    0.0075                   4.588497258296377
5.0E-4                    0.0085                   4.571097635552043
5.0E-4                    0.0095                   4.5592042546050475
5.0E-4                    0.0105                   4.543743179300914
5.0E-4                    0.0115                   4.51453337356724
5.0E-4                    0.0125                   4.464082569223827
5.0E-4                    0.0135                   4.392416220542245
5.0E-4                    0.0145                   4.306336767348335
5.0E-4                    0.0155                   4.215427994757706
5.0E-4                    0.0165                   4.130810415480799
5.0E-4                    0.0175                   4.06344852343991
5.0E-4                    0.0185                   4.021026447898718
5.0E-4                    0.0195                   4.0009794670209535
5.0E-4                    0.0205                   3.9985656961230926
5.0E-4                    0.0215                   4.020634846927994
5.0E-4                    0.0225                   4.159291392443282
5.0E-4                    0.0235                   4.5044046638695665
5.0E-4                    0.0245                   4.837328397101413
5.0E-4                    0.0255                   4.956288540388417
5.0E-4                    0.0265                   4.974491983618382
5.0E-4                    0.0275                   4.984951831160787
5.0E-4                    0.0285                   4.9905932560334945
5.0E-4                    0.0295                   4.9944991980369515
5.0E-4                    0.0305                   4.998030984455173
5.0E-4                    0.0315                   5.000827072723337
0.0015                    -0.0315                  3.493018984684703
0.0015                    -0.0305                  3.5193274377298014
0.0015                    -0.0295                  3.557658689085011
0.0015                    -0.0285                  3.599715620197602
0.0015                    -0.0275                  3.643052041879031
0.0015                    -0.0265                  3.6869780218885424
0.0015                    -0.0255                  3.731302108986606
0.0015                    -0.0245                  3.7759619857268087
0.0015                    -0.0235                  3.820943621844274
0.0015                    -0.0225                  3.8662539128896625
0.0015                    -0.0215                  3.911886704358101
0.0015                    -0.0205                  3.9578163048251307
0.0015                    -0.0195                  4.003994778794566
0.0015                    -0.0185                  4.050353706430921
0.0015                    -0.0175                  4.0968212197888665
0.0015                    -0.0165                  4.1433452797418955
0.0015                    -0.0155                  4.189935406568025
0.0015                    -0.0145                  4.236743759762423
0.0015                    -0.0135                  4.284212270024985
0.0015                    -0.0125                  4.333297087548733
0.0015                    -0.0115                  4.385533822661764
0.0015                    -0.0105                  4.442685983590074
0.0015                    -0.0095                  4.505160240070583
0.0015                    -0.0085                  4.569434580809852
0.0015                    -0.0075                  4.629153766097694
0.0015                    -0.0065                  4.6737235655285465
0.0015                    -0.0055                  4.698717619851673
0.0015                    -0.0045                  4.709664403079984
0.0015                    -0.0035                  4.710928494469435
0.0015                    -0.0025                  4.705281368463744
0.0015                    -0.0015                  4.6948690535038455
0.0015                    -5.0E-4                  4.682875167543246
0.0015                    5.0E-4                   4.673349303999814
0.0015                    0.0015                   4.668680865930379
0.0015                    0.0025                   4.667387631318936
0.0015                    0.0035                   4.664235029553155
0.0015                    0.0045                   4.653467277148232
0.0015                    0.0055                   4.632979080412931
0.0015                    0.0065                   4.606611970144578
0.0015                    0.0075                   4.582420278980799
0.0015                    0.0085                   4.56577514527359
0.0015                    0.0095                   4.554452541236029
0.0015                    0.0105                   4.540132921791656
0.0015                    0.0115                   4.514227063872664
0.0015                    0.0125                   4.469420366884722
0.0015                    0.0135                   4.400172183594796
0.0015                    0.0145                   4.309232860468754
0.0015                    0.0155                   4.2096246019837755
0.0015                    0.0165                   4.1197799922446565
0.0015                    0.0175                   4.054952364138883
0.0015                    0.0185                   4.018567409426294
0.0015                    0.0195                   4.001001246751388
0.0015                    0.0205                   3.9903875201895467
0.0015                    0.0215                   3.9717131723557695
0.0015                    0.0225                   4.126233092218793
0.0015                    0.0235                   4.532173893020298
0.0015                    0.0245                   4.871760306026851
0.0015                    0.0255                   4.976185820458777
0.0015                    0.0265                   4.982858649392874
0.0015                    0.0275                   4.990098644428407
0.0015                    0.0285                   4.994703140737664
0.0015                    0.0295                   4.998091741105821
0.0015                    0.0305                   5.00148083608396
0.0015                    0.0315                   5.004330062706127
0.0025                    -0.0315                  3.4568679134893205
0.0025                    -0.0305                  3.481127368151873
0.0025                    -0.0295                  3.5199424554642853
0.0025                    -0.0285                  3.5648265069477114
0.0025                    -0.0275                  3.61160566660471
0.0025                    -0.0265                  3.658751575070787
0.0025                    -0.0255                  3.705793429918018
0.0025                    -0.0245                  3.7526483396465524
0.0025                    -0.0235                  3.799367298117106
0.0025                    -0.0225                  3.846039946689804
0.0025                    -0.0215                  3.8927411600646296
0.0025                    -0.0205                  3.939488830353992
0.0025                    -0.0195                  3.9862291147486766
0.0025                    -0.0185                  4.032836681044178
0.0025                    -0.0175                  4.079124848953578
0.0025                    -0.0165                  4.12487285101899
0.0025                    -0.0155                  4.169883225969188
0.0025                    -0.0145                  4.214096870892705
0.0025                    -0.0135                  4.257819843543546
0.0025                    -0.0125                  4.302098908625091
0.0025                    -0.0115                  4.349048908266436
0.0025                    -0.0105                  4.401499482374378
0.0025                    -0.0095                  4.461648109774542
0.0025                    -0.0085                  4.528127719155927
0.0025                    -0.0075                  4.594805737281439
0.0025                    -0.0065                  4.65021975172982
0.0025                    -0.0055                  4.686857763050297
0.0025                    -0.0045                  4.704357811226364
0.0025                    -0.0035                  4.703610862597765
0.0025                    -0.0025                  4.688364013164753
0.0025                    -0.0015                  4.664900709959111
0.0025                    -5.0E-4                  4.640409971199748
0.0025                    5.0E-4                   4.620851118498115
0.0025                    0.0015                   4.609521166295989
0.0025                    0.0025                   4.605991740429092
0.0025                    0.0035                   4.606190438696705
0.0025                    0.0045                   4.604446681493815
0.0025                    0.0055                   4.596728761651572
0.0025                    0.0065                   4.5836659031797256
0.0025                    0.0075                   4.569633515984613
0.0025                    0.0085                   4.55779844017113
0.0025                    0.0095                   4.5465476940036895
0.0025                    0.0105                   4.530322704681858
0.0025                    0.0115                   4.504162587429322
0.0025                    0.0125                   4.462474816590243
0.0025                    0.0135                   4.397230016232614
0.0025                    0.0145                   4.305881998376805
0.0025                    0.0155                   4.202490546314175
0.0025                    0.0165                   4.113052424209416
0.0025                    0.0175                   4.055078303936556
0.0025                    0.0185                   4.024449643626365
0.0025                    0.0195                   4.0063537886651215
0.0025                    0.0205                   3.9930705839242755
0.0025                    0.0215                   3.9934286597796
0.0025                    0.0225                   4.212865248538087
0.0025                    0.0235                   4.637782509895071
0.0025                    0.0245                   4.926789391917978
0.0025                    0.0255                   5.000132857211893
0.0025                    0.0265                   4.998735525357869
0.0025                    0.0275                   5.0026431107686795
0.0025                    0.0285                   5.004455439449495
0.0025                    0.0295                   5.005880843993536
0.0025                    0.0305                   5.007882947157823
0.0025                    0.0315                   5.0098002410292635
0.0035                    -0.0315                  3.4167542496508956
0.0035                    -0.0305                  3.438724769815741
0.0035                    -0.0295                  3.4760237551784208
0.0035                    -0.0285                  3.5217943598216244
0.0035                    -0.0275                  3.57117002729367
0.0035                    -0.0265                  3.6214879193352374
0.0035                    -0.0255                  3.6715913741898962
0.0035                    -0.0245                  3.7210910450693553
0.0035                    -0.0235                  3.769954837730976
0.0035                    -0.0225                  3.8183012962210467
0.0035                    -0.0215                  3.8662823688244403
0.0035                    -0.0205                  3.9139969858080197
0.0035                    -0.0195                  3.9614297037171924
0.0035                    -0.0185                  4.008430508952699
0.0035                    -0.0175                  4.054724639861375
0.0035                    -0.0165                  4.099935688040933
0.0035                    -0.0155                  4.143644812363513
0.0035                    -0.0145                  4.18553256068955
0.0035                    -0.0135                  4.225625342520328
0.0035                    -0.0125                  4.264672429492373
0.0035                    -0.0115                  4.304676548432912
0.0035                    -0.0105                  4.3491083742083285
0.0035                    -0.0095                  4.401357315698817
0.0035                    -0.0085                  4.463277799395618
0.0035                    -0.0075                  4.532429186497609
0.0035                    -0.0065                  4.599226570794125
0.0035                    -0.0055                  4.649821768821177
0.0035                    -0.0045                  4.671369202490292
0.0035                    -0.0035                  4.660651658174459
0.0035                    -0.0025                  4.627068323034749
0.0035                    -0.0015                  4.58457376932456
0.0035                    -5.0E-4                  4.544372693291098
0.0035                    5.0E-4                   4.513380139014137
0.0035                    0.0015                   4.495162000616666
0.0035                    0.0025                   4.489921172414189
0.0035                    0.0035                   4.495307258641277
0.0035                    0.0045                   4.506951543311694
0.0035                    0.0055                   4.519433679437257
0.0035                    0.0065                   4.529290245184221
0.0035                    0.0075                   4.535742622725699
0.0035                    0.0085                   4.538739406155044
0.0035                    0.0095                   4.534769221448465
0.0035                    0.0105                   4.519190948348189
0.0035                    0.0115                   4.489097120794183
0.0035                    0.0125                   4.443352608821392
0.0035                    0.0135                   4.3778914877793165
0.0035                    0.0145                   4.289776437166682
0.0035                    0.0155                   4.193529953948712
0.0035                    0.0165                   4.114244851944748
0.0035                    0.0175                   4.06489349231463
0.0035                    0.0185                   4.038130221200504
0.0035                    0.0195                   4.019318509079951
0.0035                    0.0205                   4.007085013837841
0.0035                    0.0215                   4.055816572691345
0.0035                    0.0225                   4.338589019408869
0.0035                    0.0235                   4.7528834330645005
0.0035                    0.0245                   4.987638570685174
0.0035                    0.0255                   5.031080278224138
0.0035                    0.0265                   5.022776258838054
0.0035                    0.0275                   5.021238813686461
0.0035                    0.0285                   5.019057132293866
0.0035                    0.0295                   5.01733807276767
0.0035                    0.0305                   5.016539405512815
0.0035                    0.0315                   5.016480212963175
0.0045                    -0.0315                  3.3742234787057908
0.0045                    -0.0305                  3.3943683510195735
0.0045                    -0.0295                  3.429763360422772
0.0045                    -0.0285                  3.475048891885139
0.0045                    -0.0275                  3.525727138960195
0.0045                    -0.0265                  3.5785358278888055
0.0045                    -0.0255                  3.63153155717586
0.0045                    -0.0245                  3.6837730456336826
0.0045                    -0.0235                  3.734940852100462
0.0045                    -0.0225                  3.78506533828541
0.0045                    -0.0215                  3.8343414171716788
0.0045                    -0.0205                  3.882986329026265
0.0045                    -0.0195                  3.931112860384336
0.0045                    -0.0185                  3.97863908075356
0.0045                    -0.0175                  4.0252715071945655
0.0045                    -0.0165                  4.070535278366826
0.0045                    -0.0155                  4.11381003032859
0.0045                    -0.0145                  4.154445804804437
0.0045                    -0.0135                  4.192035813764303
0.0045                    -0.0125                  4.226819572455308
0.0045                    -0.0115                  4.260221110125304
0.0045                    -0.0105                  4.295377351828202
0.0045                    -0.0095                  4.336391525475223
0.0045                    -0.0085                  4.388362064868082
0.0045                    -0.0075                  4.453067810208352
0.0045                    -0.0065                  4.522073999583829
0.0045                    -0.0055                  4.5757390111315575
0.0045                    -0.0045                  4.592155700183536
0.0045                    -0.0035                  4.567736752101605
0.0045                    -0.0025                  4.518247288342007
0.0045                    -0.0015                  4.461907926718533
0.0045                    -5.0E-4                  4.411584804428001
0.0045                    5.0E-4                   4.374453366192677
0.0045                    0.0015                   4.353581143547383
0.0045                    0.0025                   4.3485313516595445
0.0045                    0.0035                   4.35750343977356
0.0045                    0.0045                   4.378021805315571
0.0045                    0.0055                   4.406637535613088
0.0045                    0.0065                   4.4392784630975415
0.0045                    0.0075                   4.4702625014880555
0.0045                    0.0085                   4.493956606887903
0.0045                    0.0095                   4.505364746073427
0.0045                    0.0105                   4.498779287631976
0.0045                    0.0115                   4.470248743672219
0.0045                    0.0125                   4.41933085084122
0.0045                    0.0135                   4.349028487928828
0.0045                    0.0145                   4.265049483374204
0.0045                    0.0155                   4.182003961485885
0.0045                    0.0165                   4.118237958460636
0.0045                    0.0175                   4.079796889981279
0.0045                    0.0185                   4.056299839032865
0.0045                    0.0195                   4.039448429096827
0.0045                    0.0205                   4.035829519229174
0.0045                    0.0215                   4.170558802404193
0.0045                    0.0225                   4.513802096336674
0.0045                    0.0235                   4.866566009800713
0.0045                    0.0245                   5.035879072083055
0.0045                    0.0255                   5.057225635049095
0.0045                    0.0265                   5.047347814328112
0.0045                    0.0275                   5.040862408429047
0.0045                    0.0285                   5.035103797542652
0.0045                    0.0295                   5.030176487518309
0.0045                    0.0305                   5.026067838613583
0.0045                    0.0315                   5.023610895655435
0.0055                    -0.0315                  3.3299444867446093
0.0055                    -0.0305                  3.348703018824076
0.0055                    -0.0295                  3.3824055499937575
0.0055                    -0.0285                  3.4267592152312716
0.0055                    -0.0275                  3.4778675408596764
0.0055                    -0.0265                  3.5324175255547
0.0055                    -0.0255                  3.5879241986474715
0.0055                    -0.0245                  3.6428164430388295
0.0055                    -0.0235                  3.696312091538954
0.0055                    -0.0225                  3.7482076373323614
0.0055                    -0.0215                  3.7986723644580933
0.0055                    -0.0205                  3.848061918026266
0.0055                    -0.0195                  3.8967387072538244
0.0055                    -0.0185                  3.944870316382125
0.0055                    -0.0175                  3.9922788403432232
0.0055                    -0.0165                  4.038433459317439
0.0055                    -0.0155                  4.08251602509536
0.0055                    -0.0145                  4.123458461750532
0.0055                    -0.0135                  4.160231267127211
0.0055                    -0.0125                  4.192473189516997
0.0055                    -0.0115                  4.221211442737464
0.0055                    -0.0105                  4.249162575609647
0.0055                    -0.0095                  4.280536184159331
0.0055                    -0.0085                  4.321421181530353
0.0055                    -0.0075                  4.3743353232366715
0.0055                    -0.0065                  4.431833296165353
0.0055                    -0.0055                  4.473700056535372
0.0055                    -0.0045                  4.478179619766395
0.0055                    -0.0035                  4.443833004660643
0.0055                    -0.0025                  4.387534880717075
0.0055                    -0.0015                  4.328761004118107
0.0055                    -5.0E-4                  4.2817778233376025
0.0055                    5.0E-4                   4.25199897992027
0.0055                    0.0015                   4.237927699976403
0.0055                    0.0025                   4.236440233281652
0.0055                    0.0035                   4.2455533192052215
0.0055                    0.0045                   4.265077759535508
0.0055                    0.0055                   4.295446667730756
0.0055                    0.0065                   4.336289646664202
0.0055                    0.0075                   4.38339748436358
0.0055                    0.0085                   4.427330243477579
0.0055                    0.0095                   4.456511951211343
0.0055                    0.0105                   4.461672308047575
0.0055                    0.0115                   4.439121897732865
0.0055                    0.0125                   4.388546900695794
0.0055                    0.0135                   4.31739044986917
0.0055                    0.0145                   4.239294038309866
0.0055                    0.0155                   4.170840027485626
0.0055                    0.0165                   4.1244182968699565
0.0055                    0.0175                   4.097319887210329
0.0055                    0.0185                   4.0818115875177385
0.0055                    0.0195                   4.069308598563395
0.0055                    0.0205                   4.115461425501074
0.0055                    0.0215                   4.348644711895366
0.0055                    0.0225                   4.704919861186685
0.0055                    0.0235                   4.968809469808752
0.0055                    0.0245                   5.063384441743644
0.0055                    0.0255                   5.069332275967941
0.0055                    0.0265                   5.065014837598678
0.0055                    0.0275                   5.057587614680243
0.0055                    0.0285                   5.049855101645093
0.0055                    0.0295                   5.042193428232418
0.0055                    0.0305                   5.035030197130439
0.0055                    0.0315                   5.030277334860681
0.0065                    -0.0315                  3.28429762760416
0.0065                    -0.0305                  3.301974526014092
0.0065                    -0.0295                  3.3342652283404113
0.0065                    -0.0285                  3.377671369484927
0.0065                    -0.0275                  3.428857870273123
0.0065                    -0.0265                  3.48469020282377
0.0065                    -0.0255                  3.5424122299796954
0.0065                    -0.0245                  3.599887198831439
0.0065                    -0.0235                  3.655759286158609
0.0065                    -0.0225                  3.7094447550229375
0.0065                    -0.0215                  3.760995849334363
0.0065                    -0.0205                  3.810905846833627
0.0065                    -0.0195                  3.8598853133318136
0.0065                    -0.0185                  3.9085934106734204
0.0065                    -0.0175                  3.957243006427563
0.0065                    -0.0165                  4.005314220320516
0.0065                    -0.0155                  4.051606600499456
0.0065                    -0.0145                  4.094507431057586
0.0065                    -0.0135                  4.132200217546293
0.0065                    -0.0125                  4.163628046610933
0.0065                    -0.0115                  4.1898309726009035
0.0065                    -0.0105                  4.21376434364935
0.0065                    -0.0095                  4.2392752551338075
0.0065                    -0.0085                  4.270318749790848
0.0065                    -0.0075                  4.307837561039974
0.0065                    -0.0065                  4.346692526545395
0.0065                    -0.0055                  4.370064848588377
0.0065                    -0.0045                  4.360722786067972
0.0065                    -0.0035                  4.321208780349885
0.0065                    -0.0025                  4.270146919257591
0.0065                    -0.0015                  4.226386008710585
0.0065                    -5.0E-4                  4.198960941871825
0.0065                    5.0E-4                   4.186537663387629
0.0065                    0.0015                   4.183385282166203
0.0065                    0.0025                   4.185883195700587
0.0065                    0.0035                   4.1933344568693425
0.0065                    0.0045                   4.207040970787867
0.0065                    0.0055                   4.2291511423465185
0.0065                    0.0065                   4.262444185360263
0.0065                    0.0075                   4.3080362122474
0.0065                    0.0085                   4.360241902495829
0.0065                    0.0095                   4.405169181507104
0.0065                    0.0105                   4.424975976704663
0.0065                    0.0115                   4.408369061291598
0.0065                    0.0125                   4.35742083137649