% Model:              Benchmark260518.mph
% Version:            COMSOL 6.2.0.339
% Date:               May 19 2026, 16:06
% Dimension:          2
% Nodes:              4096
% Expressions:        1
% Description:        压力
% Length unit:        m
% x                       y                        p (Pa)
5.0E-4                    -0.0315                  8.272039820467949
5.0E-4                    -0.0305                  8.320287150601024
5.0E-4                    -0.0295                  8.385845388881508
5.0E-4                    -0.0285                  8.457078687915708
5.0E-4                    -0.0275                  8.53134523287588
5.0E-4                    -0.0265                  8.607830040073676
5.0E-4                    -0.0255                  8.686011275138435
5.0E-4                    -0.0245                  8.765638269237224
5.0E-4                    -0.0235                  8.846685636311932
5.0E-4                    -0.0225                  8.929263451105774
5.0E-4                    -0.0215                  9.013678389228255
5.0E-4                    -0.0205                  9.100482673233385
5.0E-4                    -0.0195                  9.190419588727023
5.0E-4                    -0.0185                  9.284548971651219
5.0E-4                    -0.0175                  9.38379440142272
5.0E-4                    -0.0165                  9.485908898942323
5.0E-4                    -0.0155                  9.583558127556353
5.0E-4                    -0.0145                  9.666888812161725
5.0E-4                    -0.0135                  9.723415793504422
5.0E-4                    -0.0125                  9.749986990506999
5.0E-4                    -0.0115                  9.755511058098291
5.0E-4                    -0.0105                  9.749101821364691
5.0E-4                    -0.0095                  9.736599412348049
5.0E-4                    -0.0085                  9.717993888599715
5.0E-4                    -0.0075                  9.694577169530056
5.0E-4                    -0.0065                  9.675703217188795
5.0E-4                    -0.0055                  9.670565500308964
5.0E-4                    -0.0045                  9.674090169785723
5.0E-4                    -0.0035                  9.662565327795736
5.0E-4                    -0.0025                  9.606772677273314
5.0E-4                    -0.0015                  9.49589922758437
5.0E-4                    -5.0E-4                  9.3528209197542
5.0E-4                    5.0E-4                   9.209516786757684
5.0E-4                    0.0015                   9.096750615659136
5.0E-4                    0.0025                   9.033394416538584
5.0E-4                    0.0035                   8.992186954378107
5.0E-4                    0.0045                   8.918097665911391
5.0E-4                    0.0055                   8.759755829920712
5.0E-4                    0.0065                   8.48240616874149
5.0E-4                    0.0075                   8.072468171216439
5.0E-4                    0.0085                   7.53396821008775
5.0E-4                    0.0095                   6.883396556049895
5.0E-4                    0.0105                   6.1446453651096595
5.0E-4                    0.0115                   5.344896248647593
5.0E-4                    0.0125                   4.510601310610039
5.0E-4                    0.0135                   3.6659624095905397
5.0E-4                    0.0145                   2.835254270578666
5.0E-4                    0.0155                   2.0476384663859113
5.0E-4                    0.0165                   1.34524851860173
5.0E-4                    0.0175                   0.7971595095957096
5.0E-4                    0.0185                   0.4624046333632791
5.0E-4                    0.0195                   0.3109157200333519
5.0E-4                    0.0205                   0.2749374148543649
5.0E-4                    0.0215                   0.28786532528048225
5.0E-4                    0.0225                   0.8514590901267339
5.0E-4                    0.0235                   2.6197436735571618
5.0E-4                    0.0245                   4.557502691880146
5.0E-4                    0.0255                   5.3771135117768125
5.0E-4                    0.0265                   5.483336393412888
5.0E-4                    0.0275                   5.502372764191308
5.0E-4                    0.0285                   5.516989744571747
5.0E-4                    0.0295                   5.536007931778291
5.0E-4                    0.0305                   5.562267494509406
5.0E-4                    0.0315                   5.587368668585398
0.0015                    -0.0315                  8.223383967114929
0.0015                    -0.0305                  8.271982081149735
0.0015                    -0.0295                  8.342519041276546
0.0015                    -0.0285                  8.419565980364217
0.0015                    -0.0275                  8.498714253561005
0.0015                    -0.0265                  8.578818486207073
0.0015                    -0.0255                  8.659488027496238
0.0015                    -0.0245                  8.740509082167998
0.0015                    -0.0235                  8.821816140025462
0.0015                    -0.0225                  8.903517335972593
0.0015                    -0.0215                  8.98599745905044
0.0015                    -0.0205                  9.070094680372874
0.0015                    -0.0195                  9.15732447592871
0.0015                    -0.0185                  9.249859349126401
0.0015                    -0.0175                  9.34989993918729
0.0015                    -0.0165                  9.457268766874234
0.0015                    -0.0155                  9.564837506989754
0.0015                    -0.0145                  9.660812167049272
0.0015                    -0.0135                  9.726847911235392
0.0015                    -0.0125                  9.757414111938445
0.0015                    -0.0115                  9.763554320988781
0.0015                    -0.0105                  9.754379227969327
0.0015                    -0.0095                  9.73488886666376
0.0015                    -0.0085                  9.702497709400692
0.0015                    -0.0075                  9.658572590470232
0.0015                    -0.0065                  9.616551768845781
0.0015                    -0.0055                  9.591358133974103
0.0015                    -0.0045                  9.582924902332524
0.0015                    -0.0035                  9.570814126703766
0.0015                    -0.0025                  9.52580985421612
0.0015                    -0.0015                  9.431899513500959
0.0015                    -5.0E-4                  9.303276316696095
0.0015                    5.0E-4                   9.168289315971322
0.0015                    0.0015                   9.062733074910033
0.0015                    0.0025                   9.007714547376475
0.0015                    0.0035                   8.978784156772239
0.0015                    0.0045                   8.926813063879287
0.0015                    0.0055                   8.812872597898904
0.0015                    0.0065                   8.610481467838781
0.0015                    0.0075                   8.287396260398125
0.0015                    0.0085                   7.817767503134695
0.0015                    0.0095                   7.197650632339362
0.0015                    0.0105                   6.444067592823779
0.0015                    0.0115                   5.586994924088806
0.0015                    0.0125                   4.662299030141899
0.0015                    0.0135                   3.7089575372928314
0.0015                    0.0145                   2.771730841344697
0.0015                    0.0155                   1.9060038289759447
0.0015                    0.0165                   1.178694639220935
0.0015                    0.0175                   0.6644899748552363
0.0015                    0.0185                   0.3895853427664519
0.0015                    0.0195                   0.2791519786484245
0.0015                    0.0205                   0.2488666208745205
0.0015                    0.0215                   0.16540161775793688
0.0015                    0.0225                   0.6910634607363451
0.0015                    0.0235                   2.5728820596449493
0.0015                    0.0245                   4.620146765947695
0.0015                    0.0255                   5.441971223098425
0.0015                    0.0265                   5.495851720678032
0.0015                    0.0275                   5.508024672628607
0.0015                    0.0285                   5.5222761439741515
0.0015                    0.0295                   5.544879968422189
0.0015                    0.0305                   5.58137807493849
0.0015                    0.0315                   5.617552529373286
0.0025                    -0.0315                  8.156247781320934
0.0025                    -0.0305                  8.200981722085524
0.0025                    -0.0295                  8.272368553037513
0.0025                    -0.0285                  8.354635198573813
0.0025                    -0.0275                  8.440016445169054
0.0025                    -0.0265                  8.525609278993228
0.0025                    -0.0255                  8.610378890312552
0.0025                    -0.0245                  8.69387771511888
0.0025                    -0.0235                  8.775874634334315
0.0025                    -0.0225                  8.8563680637625
0.0025                    -0.0215                  8.935770321580925
0.0025                    -0.0205                  9.015233451482729
0.0025                    -0.0195                  9.096999315459463
0.0025                    -0.0185                  9.18451073268782
0.0025                    -0.0175                  9.281492620059666
0.0025                    -0.0165                  9.389874801978996
0.0025                    -0.0155                  9.506366807973137
0.0025                    -0.0145                  9.618789952505521
0.0025                    -0.0135                  9.708473640906437
0.0025                    -0.0125                  9.760854910604793
0.0025                    -0.0115                  9.76998550166444
0.0025                    -0.0105                  9.736672660879433
0.0025                    -0.0095                  9.66703483509914
0.0025                    -0.0085                  9.572053361807505
0.0025                    -0.0075                  9.46912954812851
0.0025                    -0.0065                  9.379423518309125
0.0025                    -0.0055                  9.319619059152348
0.0025                    -0.0045                  9.292626304511531
0.0025                    -0.0035                  9.284615528041847
0.0025                    -0.0025                  9.271531435510301
0.0025                    -0.0015                  9.232635994619198
0.0025                    -5.0E-4                  9.163593098281707
0.0025                    5.0E-4                   9.08153369006818
0.0025                    0.0015                   9.015611592709305
0.0025                    0.0025                   8.978367251443512
0.0025                    0.0035                   8.949282772853241
0.0025                    0.0045                   8.904260316632673
0.0025                    0.0055                   8.828548688076513
0.0025                    0.0065                   8.704799683493151
0.0025                    0.0075                   8.49907834995828
0.0025                    0.0085                   8.154760255130647
0.0025                    0.0095                   7.623009454533266
0.0025                    0.0105                   6.890072254595251
0.0025                    0.0115                   5.978438960266518
0.0025                    0.0125                   4.935879894951846
0.0025                    0.0135                   3.8279373695168175
0.0025                    0.0145                   2.738426284440865
0.0025                    0.0155                   1.7695534701745856
0.0025                    0.0165                   1.0238004228823894
0.0025                    0.0175                   0.5617947535455832
0.0025                    0.0185                   0.345361262056687
0.0025                    0.0195                   0.25914042888941946
0.0025                    0.0205                   0.2204168148439283
0.0025                    0.0215                   0.19520793983137194
0.0025                    0.0225                   0.9483770651441725
0.0025                    0.0235                   2.8549908352746103
0.0025                    0.0245                   4.717720807816912
0.0025                    0.0255                   5.471303822924167
0.0025                    0.0265                   5.510368054772093
0.0025                    0.0275                   5.524021474549725
0.0025                    0.0285                   5.539759265548873
0.0025                    0.0295                   5.570463442213407
0.0025                    0.0305                   5.621618086311475
0.0025                    0.0315                   5.670446301577999
0.0035                    -0.0315                  8.081811125916019
0.0035                    -0.0305                  8.12225113075419
0.0035                    -0.0295                  8.190777094107345
0.0035                    -0.0285                  8.274606806862804
0.0035                    -0.0275                  8.364594855817717
0.0035                    -0.0265                  8.455570948184588
0.0035                    -0.0255                  8.545019776006441
0.0035                    -0.0245                  8.63170756978641
0.0035                    -0.0235                  8.714986361531096
0.0035                    -0.0225                  8.794605607691404
0.0035                    -0.0215                  8.870835864009422
0.0035                    -0.0205                  8.944822007729954
0.0035                    -0.0195                  9.019008041716324
0.0035                    -0.0185                  9.097272517231971
0.0035                    -0.0175                  9.184586251935002
0.0035                    -0.0165                  9.28494126632244
0.0035                    -0.0155                  9.399834457279539
0.0035                    -0.0145                  9.524861284124201
0.0035                    -0.0135                  9.644267313935565
0.0035                    -0.0125                  9.718558282868612
0.0035                    -0.0115                  9.706931887873015
0.0035                    -0.0105                  9.605572586440301
0.0035                    -0.0095                  9.44177422834933
0.0035                    -0.0085                  9.252150529164718
0.0035                    -0.0075                  9.07024134717279
0.0035                    -0.0065                  8.922536194824271
0.0035                    -0.0055                  8.824554205485143
0.0035                    -0.0045                  8.779639806527772
0.0035                    -0.0035                  8.779561861469464
0.0035                    -0.0025                  8.807947528257653
0.0035                    -0.0015                  8.845293256595632
0.0035                    -5.0E-4                  8.875990837213505
0.0035                    5.0E-4                   8.896156989591468
0.0035                    0.0015                   8.912788062660145
0.0035                    0.0025                   8.926609544427865
0.0035                    0.0035                   8.916311321815497
0.0035                    0.0045                   8.870600965719646
0.0035                    0.0055                   8.804557311519062
0.0035                    0.0065                   8.722437763468347
0.0035                    0.0075                   8.600955468646708
0.0035                    0.0085                   8.38402655811976
0.0035                    0.0095                   7.9864189010877515
0.0035                    0.0105                   7.337690299537914
0.0035                    0.0115                   6.425132076783499
0.0035                    0.0125                   5.29711888744298
0.0035                    0.0135                   4.048292037484584
0.0035                    0.0145                   2.8099888735756196
0.0035                    0.0155                   1.737119879776812
0.0035                    0.0165                   0.9627305502161814
0.0035                    0.0175                   0.5272243616584548
0.0035                    0.0185                   0.34149971559228975
0.0035                    0.0195                   0.2654881375995592
0.0035                    0.0205                   0.19508819638145045
0.0035                    0.0215                   0.1250741573520167
0.0035                    0.0225                   1.0544822257724067
0.0035                    0.0235                   3.0976115452126223
0.0035                    0.0245                   4.839911087801386
0.0035                    0.0255                   5.510233228605913
0.0035                    0.0265                   5.536642455747468
0.0035                    0.0275                   5.554974224439581
0.0035                    0.0285                   5.576555398158906
0.0035                    0.0295                   5.619869882656159
0.0035                    0.0305                   5.687493004942291
0.0035                    0.0315                   5.747568468604257
0.0045                    -0.0315                  8.002977959569533
0.0045                    -0.0305                  8.040086388614192
0.0045                    -0.0295                  8.105163919725172
0.0045                    -0.0285                  8.1881180098215
0.0045                    -0.0275                  8.280377231428552
0.0045                    -0.0265                  8.375531972921502
0.0045                    -0.0255                  8.46945040336534
0.0045                    -0.0245                  8.559698196819848
0.0045                    -0.0235                  8.644898046566196
0.0045                    -0.0225                  8.724376983739967
0.0045                    -0.0215                  8.798085241457711
0.0045                    -0.0205                  8.866773487095926
0.0045                    -0.0195                  8.932459194005709
0.0045                    -0.0185                  8.998884455738374
0.0045                    -0.0175                  9.071339151719734
0.0045                    -0.0165                  9.156767927239994
0.0045                    -0.0155                  9.259932907898536
0.0045                    -0.0145                  9.384109188272532
0.0045                    -0.0135                  9.507688514241067
0.0045                    -0.0125                  9.56395061881662
0.0045                    -0.0115                  9.493501619999222
0.0045                    -0.0105                  9.301426356198563
0.0045                    -0.0095                  9.041604671428983
0.0045                    -0.0085                  8.768421937592363
0.0045                    -0.0075                  8.521373303463406
0.0045                    -0.0065                  8.327905539530681
0.0045                    -0.0055                  8.201935951407851
0.0045                    -0.0045                  8.14579616369422
0.0045                    -0.0035                  8.153019673507803
0.0045                    -0.0025                  8.213062493071149
0.0045                    -0.0015                  8.312210610366224
0.0045                    -5.0E-4                  8.43430245851106
0.0045                    5.0E-4                   8.563649669731642
0.0045                    0.0015                   8.68584194294024
0.0045                    0.0025                   8.784234511154379
0.0045                    0.0035                   8.835877385277753
0.0045                    0.0045                   8.824076037772649
0.0045                    0.0055                   8.765376450638463
0.0045                    0.0065                   8.693763563695466
0.0045                    0.0075                   8.610692615264023
0.0045                    0.0085                   8.477087721955206
0.0045                    0.0095                   8.209724179508664
0.0045                    0.0105                   7.693493331303316
0.0045                    0.0115                   6.852831014843881
0.0045                    0.0125                   5.708046282003934
0.0045                    0.0135                   4.370547547196475
0.0045                    0.0145                   3.0133010436547467
0.0045                    0.0155                   1.8364630230396923
0.0045                    0.0165                   1.0025273093685296
0.0045                    0.0175                   0.5502444773216174
0.0045                    0.0185                   0.3678481157900262
0.0045                    0.0195                   0.29828861202939616
0.0045                    0.0205                   0.22185923268588154
0.0045                    0.0215                   0.10519110850308701
0.0045                    0.0225                   1.2041664707688402
0.0045                    0.0235                   3.4087215115576694
0.0045                    0.0245                   5.009680554015041
0.0045                    0.0255                   5.569014190946542
0.0045                    0.0265                   5.585094368146432
0.0045                    0.0275                   5.612056165742206
0.0045                    0.0285                   5.642752095919
0.0045                    0.0295                   5.700275512670602
0.0045                    0.0305                   5.782800514764474
0.0045                    0.0315                   5.851156633461581
0.0055                    -0.0315                  7.920958624398675
0.0055                    -0.0305                  7.9557629161255985
0.0055                    -0.0295                  8.018085217521627
0.0055                    -0.0285                  8.099632835729142
0.0055                    -0.0275                  8.192782045209416
0.0055                    -0.0265                  8.290899213014132
0.0055                    -0.0255                  8.388766751547397
0.0055                    -0.0245                  8.482724541498712
0.0055                    -0.0235                  8.570456256320817
0.0055                    -0.0225                  8.650670105019692
0.0055                    -0.0215                  8.722866801875167
0.0055                    -0.0205                  8.78725827949222
0.0055                    -0.0195                  8.845132154237152
0.0055                    -0.0185                  8.899748154536876
0.0055                    -0.0175                  8.9572616197462
0.0055                    -0.0165                  9.025584869339223
0.0055                    -0.0155                  9.112974304895495
0.0055                    -0.0145                  9.216868439532773
0.0055                    -0.0135                  9.29872306438972
0.0055                    -0.0125                  9.287572608173488
0.0055                    -0.0115                  9.13491903004934
0.0055                    -0.0105                  8.861343166587051
0.0055                    -0.0095                  8.531269483209552
0.0055                    -0.0085                  8.2063601962564
0.0055                    -0.0075                  7.93182604629586
0.0055                    -0.0065                  7.733149439988199
0.0055                    -0.0055                  7.61538525839714
0.0055                    -0.0045                  7.5691463492383795
0.0055                    -0.0035                  7.581761335268828
0.0055                    -0.0025                  7.6466628168250494
0.0055                    -0.0015                  7.761869693198321
0.0055                    -5.0E-4                  7.92476680351209
0.0055                    5.0E-4                   8.124639882653902
0.0055                    0.0015                   8.33677467727638
0.0055                    0.0025                   8.527346366939513
0.0055                    0.0035                   8.663453251337287
0.0055                    0.0045                   8.723421235432946
0.0055                    0.0055                   8.708031615130093
0.0055                    0.0065                   8.645690702548151
0.0055                    0.0075                   8.5711436073394
0.0055                    0.0085                   8.476188501380573
0.0055                    0.0095                   8.29767997505199
0.0055                    0.0105                   7.919022029035834
0.0055                    0.0115                   7.20774975230004
0.0055                    0.0125                   6.124258594011843
0.0055                    0.0135                   4.767557470480204
0.0055                    0.0145                   3.3353012618602333
0.0055                    0.0155                   2.0608008326846683
0.0055                    0.0165                   1.138101313258952
0.0055                    0.0175                   0.6284483763002351
0.0055                    0.0185                   0.4219132313135646
0.0055                    0.0195                   0.3542062124913403
0.0055                    0.0205                   0.3113527166167045
0.0055                    0.0215                   0.24353180870200022
0.0055                    0.0225                   1.492670965708967
0.0055                    0.0235                   3.8020840136232863
0.0055                    0.0245                   5.25543708225295
0.0055                    0.0255                   5.673053449519547
0.0055                    0.0265                   5.678432856684894
0.0055                    0.0275                   5.7159862494854154
0.0055                    0.0285                   5.754672442879435
0.0055                    0.0295                   5.81996821849534
0.0055                    0.0305                   5.9090357794578825
0.0055                    0.0315                   5.98081957967801
0.0065                    -0.0315                  7.836371707878857
0.0065                    -0.0305                  7.869817484471485
0.0065                    -0.0295                  7.930444712976731
0.0065                    -0.0285                  8.011089715805154
0.0065                    -0.0275                  8.10490626167047
0.0065                    -0.0265                  8.205430617168807
0.0065                    -0.0255                  8.306921179416362
0.0065                    -0.0245                  8.404764314214916
0.0065                    -0.0235                  8.495673173316064
0.0065                    -0.0225                  8.577588258541773
0.0065                    -0.0215                  8.64942440086142
0.0065                    -0.0205                  8.710942592001398
0.0065                    -0.0195                  8.762883103213456
0.0065                    -0.0185                  8.808603683972315
0.0065                    -0.0175                  8.855014496936732
0.0065                    -0.0165                  8.908922383923468
0.0065                    -0.0155                  8.976429226014858
0.0065                    -0.0145                  9.040879211493166
0.0065                    -0.0135                  9.050525447715012
0.0065                    -0.0125                  8.947143836338817
0.0065                    -0.0115                  8.708534247734793
0.0065                    -0.0105                  8.373105241288961
0.0065                    -0.0095                  8.010694347611246
0.0065                    -0.0085                  7.69015795032379
0.0065                    -0.0075                  7.458667749689122
0.0065                    -0.0065                  7.322449282049742
0.0065                    -0.0055                  7.258112685315281
0.0065                    -0.0045                  7.239130129311563
0.0065                    -0.0035                  7.251259046492294
0.0065                    -0.0025                  7.293630834679067
0.0065                    -0.0015                  7.374397907351644
0.0065                    -5.0E-4                  7.505784596409046
0.0065                    5.0E-4                   7.696775089086632
0.0065                    0.0015                   7.9382234462062
0.0065                    0.0025                   8.191859224682862
0.0065                    0.0035                   8.40727164445168
0.0065                    0.0045                   8.548281080216292
0.0065                    0.0055                   8.602533517374578
0.0065                    0.0065                   8.581038629113365
0.0065                    0.0075                   8.510866245766968
0.0065                    0.0085                   8.42180755104873
0.0065                    0.0095                   8.291051302134722
0.0065                    0.0105                   8.018371113917642
0.0065                    0.0115                   7.455993568813145
0.0065                    0.0125                   6.496232120926471
0.0065                    0.0135                   5.18950407943921