% Model:              Benchmark260518.mph
% Version:            COMSOL 6.2.0.339
% Date:               May 21 2026, 13:06
% Dimension:          2
% Nodes:              4096
% Expressions:        1
% Description:        压力
% Length unit:        m
% x                       y                        p (Pa)
5.0E-4                    -0.0315                  4.154894012133133
5.0E-4                    -0.0305                  4.17767649611419
5.0E-4                    -0.0295                  4.208644444043729
5.0E-4                    -0.0285                  4.242233560541065
5.0E-4                    -0.0275                  4.277216445718802
5.0E-4                    -0.0265                  4.313123924162806
5.0E-4                    -0.0255                  4.3496455707049
5.0E-4                    -0.0245                  4.386564266847579
5.0E-4                    -0.0235                  4.423686491346253
5.0E-4                    -0.0225                  4.460849238178358
5.0E-4                    -0.0215                  4.497893037032616
5.0E-4                    -0.0205                  4.534663465982029
5.0E-4                    -0.0195                  4.571072612623931
5.0E-4                    -0.0185                  4.607152955473334
5.0E-4                    -0.0175                  4.642567152631794
5.0E-4                    -0.0165                  4.675833666665265
5.0E-4                    -0.0155                  4.70460605143527
5.0E-4                    -0.0145                  4.726451108471511
5.0E-4                    -0.0135                  4.739934332509926
5.0E-4                    -0.0125                  4.7464085693957845
5.0E-4                    -0.0115                  4.748630719474072
5.0E-4                    -0.0105                  4.74829512893499
5.0E-4                    -0.0095                  4.746371083474693
5.0E-4                    -0.0085                  4.743522418202256
5.0E-4                    -0.0075                  4.740098622535424
5.0E-4                    -0.0065                  4.7359754400804634
5.0E-4                    -0.0055                  4.730360517367889
5.0E-4                    -0.0045                  4.722189697986002
5.0E-4                    -0.0035                  4.710939488324945
5.0E-4                    -0.0025                  4.696329889211752
5.0E-4                    -0.0015                  4.680056015100979
5.0E-4                    -5.0E-4                  4.695734972320111
5.0E-4                    5.0E-4                   4.779368825149321
5.0E-4                    0.0015                   4.883300185219038
5.0E-4                    0.0025                   4.949416413115655
5.0E-4                    0.0035                   4.983096198586871
5.0E-4                    0.0045                   5.001176018743111
5.0E-4                    0.0055                   5.011573345871383
5.0E-4                    0.0065                   5.017112749784435
5.0E-4                    0.0075                   5.017293626968387
5.0E-4                    0.0085                   5.010998978492351
5.0E-4                    0.0095                   4.999928525009865
5.0E-4                    0.0105                   4.98553176344962
5.0E-4                    0.0115                   4.9686812477807
5.0E-4                    0.0125                   4.951860252235161
5.0E-4                    0.0135                   4.936837537106776
5.0E-4                    0.0145                   4.9229730368466935
5.0E-4                    0.0155                   4.901044836570457
5.0E-4                    0.0165                   4.8685166005982214
5.0E-4                    0.0175                   4.841933979252521
5.0E-4                    0.0185                   4.819477477647242
5.0E-4                    0.0195                   4.786290143759489
5.0E-4                    0.0205                   4.743312873306118
5.0E-4                    0.0215                   4.694487158668408
5.0E-4                    0.0225                   4.643145765829352
5.0E-4                    0.0235                   4.5923543121845976
5.0E-4                    0.0245                   4.543064140264823
5.0E-4                    0.0255                   4.495210250081904
5.0E-4                    0.0265                   4.448735107106696
5.0E-4                    0.0275                   4.40365562020051
5.0E-4                    0.0285                   4.36015162747737
5.0E-4                    0.0295                   4.318631633858267
5.0E-4                    0.0305                   4.28046421686806
5.0E-4                    0.0315                   4.252451333058849
0.0015                    -0.0315                  4.132044064938954
0.0015                    -0.0305                  4.155266210110611
0.0015                    -0.0295                  4.18908929573578
0.0015                    -0.0285                  4.226043980269814
0.0015                    -0.0275                  4.263997546212367
0.0015                    -0.0265                  4.30241338177972
0.0015                    -0.0255                  4.341106225538504
0.0015                    -0.0245                  4.37997601088206
0.0015                    -0.0235                  4.4189302553088945
0.0015                    -0.0225                  4.457850091401457
0.0015                    -0.0215                  4.496587103096026
0.0015                    -0.0205                  4.534993023182313
0.0015                    -0.0195                  4.572966661117873
0.0015                    -0.0185                  4.610325129918581
0.0015                    -0.0175                  4.646324262761142
0.0015                    -0.0165                  4.679236709976974
0.0015                    -0.0155                  4.706949909810987
0.0015                    -0.0145                  4.727297920626354
0.0015                    -0.0135                  4.739753505402805
0.0015                    -0.0125                  4.746391615029477
0.0015                    -0.0115                  4.74914807968505
0.0015                    -0.0105                  4.74891871928929
0.0015                    -0.0095                  4.746504188636219
0.0015                    -0.0085                  4.742744829986211
0.0015                    -0.0075                  4.738430972152237
0.0015                    -0.0065                  4.733971334780495
0.0015                    -0.0055                  4.728961444909414
0.0015                    -0.0045                  4.7224935665192875
0.0015                    -0.0035                  4.714335970904219
0.0015                    -0.0025                  4.706180466600388
0.0015                    -0.0015                  4.704910268365596
0.0015                    -5.0E-4                  4.7248944625031495
0.0015                    5.0E-4                   4.802245826237224
0.0015                    0.0015                   4.897363960468541
0.0015                    0.0025                   4.94986977703421
0.0015                    0.0035                   4.975109513381597
0.0015                    0.0045                   4.987630383902652
0.0015                    0.0055                   4.995188994983626
0.0015                    0.0065                   5.000365314580424
0.0015                    0.0075                   5.002373392423409
0.0015                    0.0085                   4.997407425018002
0.0015                    0.0095                   4.9822421337358715
0.0015                    0.0105                   4.959000561759802
0.0015                    0.0115                   4.934609790260808
0.0015                    0.0125                   4.914163983403106
0.0015                    0.0135                   4.897363761698138
0.0015                    0.0145                   4.882467994259712
0.0015                    0.0155                   4.865556723237047
0.0015                    0.0165                   4.849735789450964
0.0015                    0.0175                   4.833985970649621
0.0015                    0.0185                   4.810636163565717
0.0015                    0.0195                   4.776855052475168
0.0015                    0.0205                   4.732613386626824
0.0015                    0.0215                   4.681895531028662
0.0015                    0.0225                   4.628547873677952
0.0015                    0.0235                   4.576153832310269
0.0015                    0.0245                   4.525812019347617
0.0015                    0.0255                   4.477248125143744
0.0015                    0.0265                   4.429910417847882
0.0015                    0.0275                   4.383424126057823
0.0015                    0.0285                   4.337696245886178
0.0015                    0.0295                   4.293166995865845
0.0015                    0.0305                   4.2523047083920655
0.0015                    0.0315                   4.224229068558471
0.0025                    -0.0315                  4.100572296086971
0.0025                    -0.0305                  4.1224259852977925
0.0025                    -0.0295                  4.1575127984453655
0.0025                    -0.0285                  4.198051366701337
0.0025                    -0.0275                  4.240215784728274
0.0025                    -0.0265                  4.282660251003984
0.0025                    -0.0255                  4.325026780818197
0.0025                    -0.0245                  4.367266376478915
0.0025                    -0.0235                  4.409387693148438
0.0025                    -0.0225                  4.451340809556166
0.0025                    -0.0215                  4.492972019853808
0.0025                    -0.0205                  4.534025971885603
0.0025                    -0.0195                  4.574109404996493
0.0025                    -0.0185                  4.612526904934823
0.0025                    -0.0175                  4.64807226934025
0.0025                    -0.0165                  4.678982006280625
0.0025                    -0.0155                  4.703956257437234
0.0025                    -0.0145                  4.722240690325659
0.0025                    -0.0135                  4.734833963246377
0.0025                    -0.0125                  4.743454051847729
0.0025                    -0.0115                  4.747511524012385
0.0025                    -0.0105                  4.746125262264241
0.0025                    -0.0095                  4.740234892915924
0.0025                    -0.0085                  4.732502728064183
0.0025                    -0.0075                  4.725928769469553
0.0025                    -0.0065                  4.722318739826326
0.0025                    -0.0055                  4.7221783598506075
0.0025                    -0.0045                  4.725081352686185
0.0025                    -0.0035                  4.731085191541479
0.0025                    -0.0025                  4.742646628410046
0.0025                    -0.0015                  4.766608334897828
0.0025                    -5.0E-4                  4.813281582969605
0.0025                    5.0E-4                   4.875262704349752
0.0025                    0.0015                   4.926537237816168
0.0025                    0.0025                   4.95577657639561
0.0025                    0.0035                   4.9699861735893105
0.0025                    0.0045                   4.977640375813826
0.0025                    0.0055                   4.983171133497791
0.0025                    0.0065                   4.987409723475398
0.0025                    0.0075                   4.98834696269185
0.0025                    0.0085                   4.981079356470662
0.0025                    0.0095                   4.961670891526917
0.0025                    0.0105                   4.933558551965444
0.0025                    0.0115                   4.904879801540235
0.0025                    0.0125                   4.881208421599086
0.0025                    0.0135                   4.862580824001119
0.0025                    0.0145                   4.846950305609686
0.0025                    0.0155                   4.833794036403102
0.0025                    0.0165                   4.821882470656657
0.0025                    0.0175                   4.806196431657023
0.0025                    0.0185                   4.782248675337892
0.0025                    0.0195                   4.747624363986919
0.0025                    0.0205                   4.702693249201716
0.0025                    0.0215                   4.65113351062068
0.0025                    0.0225                   4.59702731263036
0.0025                    0.0235                   4.544072980163092
0.0025                    0.0245                   4.493308952438525
0.0025                    0.0255                   4.444148833780131
0.0025                    0.0265                   4.395659367862385
0.0025                    0.0275                   4.347213644601948
0.0025                    0.0285                   4.298841511880552
0.0025                    0.0295                   4.251936637622826
0.0025                    0.0305                   4.2110347918764095
0.0025                    0.0315                   4.1855762183302705
0.0035                    -0.0315                  4.0658722636938
0.0035                    -0.0305                  4.086213206021403
0.0035                    -0.0295                  4.121001550565058
0.0035                    -0.0285                  4.163694230581566
0.0035                    -0.0275                  4.209686159454339
0.0035                    -0.0265                  4.256520565552716
0.0035                    -0.0255                  4.303211210199947
0.0035                    -0.0245                  4.34950692221833
0.0035                    -0.0235                  4.395420634410987
0.0035                    -0.0225                  4.440951775036067
0.0035                    -0.0215                  4.4859094090968075
0.0035                    -0.0205                  4.529786069361819
0.0035                    -0.0195                  4.571662951057002
0.0035                    -0.0185                  4.610183151741896
0.0035                    -0.0175                  4.643701882267043
0.0035                    -0.0165                  4.6711850302718005
0.0035                    -0.0155                  4.692775367445797
0.0035                    -0.0145                  4.709632270872568
0.0035                    -0.0135                  4.7235414481785485
0.0035                    -0.0125                  4.733952839247992
0.0035                    -0.0115                  4.736738203558874
0.0035                    -0.0105                  4.729587127392189
0.0035                    -0.0095                  4.715707899532703
0.0035                    -0.0085                  4.701358349117501
0.0035                    -0.0075                  4.692492228194075
0.0035                    -0.0065                  4.6930405798664525
0.0035                    -0.0055                  4.7048872118402185
0.0035                    -0.0045                  4.727557045325707
0.0035                    -0.0035                  4.759275564108781
0.0035                    -0.0025                  4.798387160140225
0.0035                    -0.0015                  4.8429586976085215
0.0035                    -5.0E-4                  4.888580619319385
0.0035                    5.0E-4                   4.926435536703794
0.0035                    0.0015                   4.9491655083585275
0.0035                    0.0025                   4.959384380920019
0.0035                    0.0035                   4.964476757940897
0.0035                    0.0045                   4.968408788205145
0.0035                    0.0055                   4.972139292918521
0.0035                    0.0065                   4.974690854996629
0.0035                    0.0075                   4.972609175713894
0.0035                    0.0085                   4.9602242707183795
0.0035                    0.0095                   4.935368873198726
0.0035                    0.0105                   4.9032631495874055
0.0035                    0.0115                   4.871813693370855
0.0035                    0.0125                   4.8455586619668924
0.0035                    0.0135                   4.824647343106728
0.0035                    0.0145                   4.807017569150339
0.0035                    0.0155                   4.790631554080672
0.0035                    0.0165                   4.774712947340324
0.0035                    0.0175                   4.7566628914165285
0.0035                    0.0185                   4.731207448532006
0.0035                    0.0195                   4.694878196096086
0.0035                    0.0205                   4.649911746796985
0.0035                    0.0215                   4.60036897780736
0.0035                    0.0225                   4.549149658230624
0.0035                    0.0235                   4.498742916558317
0.0035                    0.0245                   4.4494844905217095
0.0035                    0.0255                   4.400615150838279
0.0035                    0.0265                   4.351307016650518
0.0035                    0.0275                   4.301297242335419
0.0035                    0.0285                   4.251439588123128
0.0035                    0.0295                   4.204487808027711
0.0035                    0.0305                   4.165902802917373
0.0035                    0.0315                   4.1434454463363295
0.0045                    -0.0315                  4.029145910284865
0.0045                    -0.0305                  4.048463393609342
0.0045                    -0.0295                  4.0827145457406475
0.0045                    -0.0285                  4.126547747887672
0.0045                    -0.0275                  4.175482613730433
0.0045                    -0.0265                  4.226359543249275
0.0045                    -0.0255                  4.277390783142614
0.0045                    -0.0245                  4.327834945045318
0.0045                    -0.0235                  4.377532537382626
0.0045                    -0.0225                  4.426475390144469
0.0045                    -0.0215                  4.474437408791426
0.0045                    -0.0205                  4.520670295456613
0.0045                    -0.0195                  4.563709921598983
0.0045                    -0.0185                  4.6015406622609945
0.0045                    -0.0175                  4.632366032280659
0.0045                    -0.0165                  4.656297474504794
0.0045                    -0.0155                  4.674876916757112
0.0045                    -0.0145                  4.690619668132097
0.0045                    -0.0135                  4.704887225873735
0.0045                    -0.0125                  4.713655847108464
0.0045                    -0.0115                  4.710260978549265
0.0045                    -0.0105                  4.693913165987221
0.0045                    -0.0095                  4.671393622417524
0.0045                    -0.0085                  4.6525883352931245
0.0045                    -0.0075                  4.645973780325073
0.0045                    -0.0065                  4.655552822117661
0.0045                    -0.0055                  4.682549020319358
0.0045                    -0.0045                  4.726041866411636
0.0045                    -0.0035                  4.781677321750921
0.0045                    -0.0025                  4.84115897283972
0.0045                    -0.0015                  4.894069023831972
0.0045                    -5.0E-4                  4.932194034934485
0.0045                    5.0E-4                   4.952424624866235
0.0045                    0.0015                   4.9580323881685295
0.0045                    0.0025                   4.95728943921093
0.0045                    0.0035                   4.956693731456627
0.0045                    0.0045                   4.957638618835367
0.0045                    0.0055                   4.958831655519286
0.0045                    0.0065                   4.9573231879202755
0.0045                    0.0075                   4.948069889415544
0.0045                    0.0085                   4.92717933015368
0.0045                    0.0095                   4.8963545902342585
0.0045                    0.0105                   4.861861557046565
0.0045                    0.0115                   4.830212219657501
0.0045                    0.0125                   4.803770031574987
0.0045                    0.0135                   4.781382532530357
0.0045                    0.0145                   4.760362554551912
0.0045                    0.0155                   4.738354234933572
0.0045                    0.0165                   4.715057557582132
0.0045                    0.0175                   4.690412955875519
0.0045                    0.0185                   4.660588131524738
0.0045                    0.0195                   4.621883338818932
0.0045                    0.0205                   4.578123085755759
0.0045                    0.0215                   4.533658983890616
0.0045                    0.0225                   4.489092365499783
0.0045                    0.0235                   4.4442983200659505
0.0045                    0.0245                   4.39852289307222
0.0045                    0.0255                   4.351034123131978
0.0045                    0.0265                   4.301621545796954
0.0045                    0.0275                   4.250973788179043
0.0045                    0.0285                   4.201063570793449
0.0045                    0.0295                   4.155497582917892
0.0045                    0.0305                   4.119532911251881
0.0045                    0.0315                   4.099345556026776
0.0055                    -0.0315                  3.9906781380148284
0.0055                    -0.0305                  4.009404321035971
0.0055                    -0.0295                  4.043332665258587
0.0055                    -0.0285                  4.088002143412378
0.0055                    -0.0275                  4.139291868777987
0.0055                    -0.0265                  4.1937509592535225
0.0055                    -0.0255                  4.248882466632325
0.0055                    -0.0245                  4.303253967525159
0.0055                    -0.0235                  4.35630478124088
0.0055                    -0.0225                  4.407930748265777
0.0055                    -0.0215                  4.457961104969508
0.0055                    -0.0205                  4.505637403847711
0.0055                    -0.0195                  4.549242105160625
0.0055                    -0.0185                  4.586265051998402
0.0055                    -0.0175                  4.6150658485866085
0.0055                    -0.0165                  4.636360088713361
0.0055                    -0.0155                  4.65265464997913
0.0055                    -0.0145                  4.667009421651498
0.0055                    -0.0135                  4.679140971689422
0.0055                    -0.0125                  4.682481893656082
0.0055                    -0.0115                  4.67108254906263
0.0055                    -0.0105                  4.64769365125097
0.0055                    -0.0095                  4.622964818568959
0.0055                    -0.0085                  4.608509005273911
0.0055                    -0.0075                  4.610290640680633
0.0055                    -0.0065                  4.629438039414726
0.0055                    -0.0055                  4.666796846969292
0.0055                    -0.0045                  4.722212304419967
0.0055                    -0.0035                  4.789835963437099
0.0055                    -0.0025                  4.85700771638661
0.0055                    -0.0015                  4.9100865026696
0.0055                    -5.0E-4                  4.942213587448689
0.0055                    5.0E-4                   4.954675852995974
0.0055                    0.0015                   4.953705761794877
0.0055                    0.0025                   4.947636158570878
0.0055                    0.0035                   4.942467061687106
0.0055                    0.0045                   4.939023991208409
0.0055                    0.0055                   4.934343220652702
0.0055                    0.0065                   4.92321531389529
0.0055                    0.0075                   4.9016375857555055
0.0055                    0.0085                   4.870992711740307
0.0055                    0.0095                   4.836562989635885
0.0055                    0.0105                   4.803621847983614
0.0055                    0.0115                   4.775392475252067
0.0055                    0.0125                   4.751645583941613
0.0055                    0.0135                   4.729127281439228
0.0055                    0.0145                   4.704152692193849
0.0055                    0.0155                   4.6759456029356805
0.0055                    0.0165                   4.64574338938634
0.0055                    0.0175                   4.613994200024684
0.0055                    0.0185                   4.578716623391739
0.0055                    0.0195                   4.5384299253273
0.0055                    0.0205                   4.497627611312665
0.0055                    0.0215                   4.459953377167908
0.0055                    0.0225                   4.4235473359075375
0.0055                    0.0235                   4.385643680510685
0.0055                    0.0245                   4.34432365315863
0.0055                    0.0255                   4.2989437159469865
0.0055                    0.0265                   4.250157871878182
0.0055                    0.0275                   4.1997406979192125
0.0055                    0.0285                   4.150561139413289
0.0055                    0.0295                   4.106538059096114
0.0055                    0.0305                   4.072519002152973
0.0055                    0.0315                   4.053755481661844
0.0065                    -0.0315                  3.9505455330080848
0.0065                    -0.0305                  3.9688845710088376
0.0065                    -0.0295                  4.002623179701456
0.0065                    -0.0285                  4.048041196386121
0.0065                    -0.0275                  4.101426639288041
0.0065                    -0.0265                  4.1592305949712784
0.0065                    -0.0255                  4.218348562971726
0.0065                    -0.0245                  4.276490829287061
0.0065                    -0.0235                  4.332406659564255
0.0065                    -0.0225                  4.385740198958301
0.0065                    -0.0215                  4.436531491538534
0.0065                    -0.0205                  4.484465080414044
0.0065                    -0.0195                  4.528148463384109
0.0065                    -0.0185                  4.565025864936217
0.0065                    -0.0175                  4.593470203065859
0.0065                    -0.0165                  4.613564394576454
0.0065                    -0.0155                  4.628115570554925
0.0065                    -0.0145                  4.6405143024723134
0.0065                    -0.0135                  4.648861246876571
0.0065                    -0.0125                  4.646344227932671
0.0065                    -0.0115                  4.6296254404281685
0.0065                    -0.0105                  4.605666950525299
0.0065                    -0.0095                  4.5873960694364815
0.0065                    -0.0085                  4.5828366400274
0.0065                    -0.0075                  4.59216917977754
0.0065                    -0.0065                  4.615583702990091
0.0065                    -0.0055                  4.656973994338937
0.0065                    -0.0045                  4.717393926662106
0.0065                    -0.0035                  4.788475712869053
0.0065                    -0.0025                  4.8546977790581405
0.0065                    -0.0015                  4.903157382276596
0.0065                    -5.0E-4                  4.930745616737724
0.0065                    5.0E-4                   4.9401034422521555
0.0065                    0.0015                   4.935230027899932
0.0065                    0.0025                   4.922610154771377
0.0065                    0.0035                   4.90889724827283
0.0065                    0.0045                   4.8951508558654355
0.0065                    0.0055                   4.876848105837545
0.0065                    0.0065                   4.8502128220275535
0.0065                    0.0075                   4.816675879754957
0.0065                    0.0085                   4.781543287422773
0.0065                    0.0095                   4.749931611965475
0.0065                    0.0105                   4.724223857743593
0.0065                    0.0115                   4.703726884416145
0.0065                    0.0125                   4.685329499581487
0.0065                    0.0135                   4.664297276742512