% Model:              Benchmark260518.mph
% Version:            COMSOL 6.2.0.339
% Date:               May 20 2026, 05:01
% Dimension:          2
% Nodes:              4096
% Expressions:        1
% Description:        压力
% Length unit:        m
% x                       y                        p (Pa)
% mirrored_by_python_y_to_minus_y, coord_match_decimals=12
0.0005 -0.0315 4.99336380351
0.0005 -0.0305 4.99969910899
0.0005 -0.0295 5.00760212721
0.0005 -0.0285 5.01556773472
0.0005 -0.0275 5.02121524501
0.0005 -0.0265 5.02249104578
0.0005 -0.0255 5.01769286212
0.0005 -0.0245 4.99936824431
0.0005 -0.0235 4.94969930541
0.0005 -0.0225 4.84546912779
0.0005 -0.0215 4.67242677514
0.0005 -0.0205 4.49892664957
0.0005 -0.0195 4.41452277219
0.0005 -0.0185 4.39841433935
0.0005 -0.0175 4.39976108152
0.0005 -0.0165 4.40708525672
0.0005 -0.0155 4.42480887918
0.0005 -0.0145 4.45651591928
0.0005 -0.0135 4.49426629888
0.0005 -0.0125 4.52422373097
0.0005 -0.0115 4.54459294171
0.0005 -0.0105 4.56342541046
0.0005 -0.0095 4.58325783222
0.0005 -0.0085 4.60095783062
0.0005 -0.0075 4.61374009736
0.0005 -0.0065 4.62065399658
0.0005 -0.0055 4.62070761254
0.0005 -0.0045 4.61116029702
0.0005 -0.0035 4.58675061253
0.0005 -0.0025 4.54083855481
0.0005 -0.0015 4.47160057604
0.0005 -0.0005 4.38667315833
0.0005 0.0005 4.29654162489
0.0005 0.0015 4.20934011154
0.0005 0.0025 4.12962848869
0.0005 0.0035 4.05748680047
0.0005 0.0045 3.99163386959
0.0005 0.0055 3.93085197722
0.0005 0.0065 3.87405525841
0.0005 0.0075 3.82038108791
0.0005 0.0085 3.76917463121
0.0005 0.0095 3.7199503277
0.0005 0.0105 3.67235125423
0.0005 0.0115 3.62611417384
0.0005 0.0125 3.58105628553
0.0005 0.0135 3.53702613134
0.0005 0.0145 3.49391762243
0.0005 0.0155 3.45167374304
0.0005 0.0165 3.41019771019
0.0005 0.0175 3.36944499932
0.0005 0.0185 3.32940912246
0.0005 0.0195 3.29000616947
0.0005 0.0205 3.25119903659
0.0005 0.0215 3.21299494915
0.0005 0.0225 3.17534912891
0.0005 0.0235 3.13822700393
0.0005 0.0245 3.10166742587
0.0005 0.0255 3.0657106866
0.0005 0.0265 3.03040360749
0.0005 0.0275 2.99588916518
0.0005 0.0285 2.96241758453
0.0005 0.0295 2.93040153903
0.0005 0.0305 2.90104780931
0.0005 0.0315 2.87950219963
0.0015 -0.0315 4.98596231521
0.0015 -0.0305 4.99323357161
0.0015 -0.0295 5.00160002354
0.0015 -0.0285 5.00704647954
0.0015 -0.0275 5.00854504129
0.0015 -0.0265 5.00693023628
0.0015 -0.0255 5.00133743837
0.0015 -0.0245 4.98510462363
0.0015 -0.0235 4.940990559
0.0015 -0.0225 4.84078888288
0.0015 -0.0215 4.66883152692
0.0015 -0.0205 4.47473999307
0.0015 -0.0195 4.39059542198
0.0015 -0.0185 4.39756107308
0.0015 -0.0175 4.40036516249
0.0015 -0.0165 4.40668969554
0.0015 -0.0155 4.42170817899
0.0015 -0.0145 4.45020510997
0.0015 -0.0135 4.48637559727
0.0015 -0.0125 4.51721839893
0.0015 -0.0115 4.5393635513
0.0015 -0.0105 4.55954047716
0.0015 -0.0095 4.58040690158
0.0015 -0.0085 4.59914128516
0.0015 -0.0075 4.61321517835
0.0015 -0.0065 4.62179635067
0.0015 -0.0055 4.6228786236
0.0015 -0.0045 4.61213119298
0.0015 -0.0035 4.58321094164
0.0015 -0.0025 4.527008112
0.0015 -0.0015 4.44197346141
0.0015 -0.0005 4.34125659321
0.0015 0.0005 4.24114465964
0.0015 0.0015 4.15129254058
0.0015 0.0025 4.07374106391
0.0015 0.0035 4.00629561789
0.0015 0.0045 3.94610606684
0.0015 0.0055 3.89088958576
0.0015 0.0065 3.83908387569
0.0015 0.0075 3.78965932895
0.0015 0.0085 3.74196143388
0.0015 0.0095 3.69559421537
0.0015 0.0105 3.65032106414
0.0015 0.0115 3.60599823763
0.0015 0.0125 3.56252408619
0.0015 0.0135 3.51982225057
0.0015 0.0145 3.47784870292
0.0015 0.0155 3.4365656464
0.0015 0.0165 3.39593954451
0.0015 0.0175 3.35594963687
0.0015 0.0185 3.31654862597
0.0015 0.0195 3.27767651738
0.0015 0.0205 3.23928093849
0.0015 0.0215 3.20130573984
0.0015 0.0225 3.16369323795
0.0015 0.0235 3.12640527949
0.0015 0.0245 3.08942569423
0.0015 0.0255 3.0527489527
0.0015 0.0265 3.0163969646
0.0015 0.0275 2.98043880795
0.0015 0.0285 2.94503541345
0.0015 0.0295 2.91069099797
0.0015 0.0305 2.87933937877
0.0015 0.0315 2.85778069327
0.0025 -0.0315 4.97454042114
0.0025 -0.0305 4.98232351073
0.0025 -0.0295 4.99084146788
0.0025 -0.0285 4.99509614075
0.0025 -0.0275 4.99481858398
0.0025 -0.0265 4.991670093
0.0025 -0.0255 4.98568770092
0.0025 -0.0245 4.9718742927
0.0025 -0.0235 4.93595753619
0.0025 -0.0225 4.85165070063
0.0025 -0.0215 4.70856055224
0.0025 -0.0205 4.52856585652
0.0025 -0.0195 4.41738054344
0.0025 -0.0185 4.40241328896
0.0025 -0.0175 4.40453976214
0.0025 -0.0165 4.40844099462
0.0025 -0.0155 4.41913206854
0.0025 -0.0145 4.44220079051
0.0025 -0.0135 4.47505852076
0.0025 -0.0125 4.50616305901
0.0025 -0.0115 4.52960363411
0.0025 -0.0105 4.54869329023
0.0025 -0.0095 4.5664751855
0.0025 -0.0085 4.58365583949
0.0025 -0.0075 4.60001402452
0.0025 -0.0065 4.61358111475
0.0025 -0.0055 4.61704173595
0.0025 -0.0045 4.5996938575
0.0025 -0.0035 4.55283507995
0.0025 -0.0025 4.47099091235
0.0025 -0.0015 4.36161049059
0.0025 -0.0005 4.24459806421
0.0025 0.0005 4.13744210721
0.0025 0.0015 4.04834851605
0.0025 0.0025 3.97647063003
0.0025 0.0035 3.91728888897
0.0025 0.0045 3.86623964631
0.0025 0.0055 3.81993668673
0.0025 0.0065 3.77616634917
0.0025 0.0075 3.73364637194
0.0025 0.0085 3.69173275148
0.0025 0.0095 3.65016955649
0.0025 0.0105 3.60889863368
0.0025 0.0115 3.5679269023
0.0025 0.0125 3.52727545927
0.0025 0.0135 3.48697968605
0.0025 0.0145 3.4470828907
0.0025 0.0155 3.40762709991
0.0025 0.0165 3.36863888679
0.0025 0.0175 3.33010003279
0.0025 0.0185 3.29195332016
0.0025 0.0195 3.2541175168
0.0025 0.0205 3.21649151656
0.0025 0.0215 3.17897175141
0.0025 0.0225 3.14147086434
0.0025 0.0235 3.10391837106
0.0025 0.0245 3.06625899159
0.0025 0.0255 3.02846409405
0.0025 0.0265 2.99054223633
0.0025 0.0275 2.95258283497
0.0025 0.0285 2.91493597128
0.0025 0.0295 2.87878142487
0.0025 0.0305 2.84746765826
0.0025 0.0315 2.82788203866
0.0035 -0.0315 4.96020503965
0.0035 -0.0305 4.96803514258
0.0035 -0.0295 4.97669345283
0.0035 -0.0285 4.98085314898
0.0035 -0.0275 4.97979243386
0.0035 -0.0265 4.9754169972
0.0035 -0.0255 4.96877242162
0.0035 -0.0245 4.95699941095
0.0035 -0.0235 4.93021729173
0.0035 -0.0225 4.86686524288
0.0035 -0.0215 4.75307975601
0.0035 -0.0205 4.59563985082
0.0035 -0.0195 4.46322615135
0.0035 -0.0185 4.4144139792
0.0035 -0.0175 4.40848224811
0.0035 -0.0165 4.40719865038
0.0035 -0.0155 4.41269445106
0.0035 -0.0145 4.43138303631
0.0035 -0.0135 4.461688918
0.0035 -0.0125 4.49032621234
0.0035 -0.0115 4.50707684129
0.0035 -0.0105 4.51408577996
0.0035 -0.0095 4.51862661442
0.0035 -0.0085 4.52740830231
0.0035 -0.0075 4.54365340911
0.0035 -0.0065 4.56351003063
0.0035 -0.0055 4.57185293059
0.0035 -0.0045 4.54641358203
0.0035 -0.0035 4.47369017883
0.0035 -0.0025 4.35899148242
0.0035 -0.0015 4.22855066875
0.0035 -0.0005 4.10687242853
0.0035 0.0005 4.00357353709
0.0035 0.0015 3.92201810302
0.0035 0.0025 3.8590140068
0.0035 0.0035 3.80930553216
0.0035 0.0045 3.76794666112
0.0035 0.0055 3.73095071224
0.0035 0.0065 3.69565177946
0.0035 0.0075 3.66057218672
0.0035 0.0085 3.62508691468
0.0035 0.0095 3.58906628686
0.0035 0.0105 3.55256893196
0.0035 0.0115 3.51569995273
0.0035 0.0125 3.47858892206
0.0035 0.0135 3.44138907714
0.0035 0.0145 3.40425602824
0.0035 0.0155 3.36731178317
0.0035 0.0165 3.33060801954
0.0035 0.0175 3.29411549496
0.0035 0.0185 3.25774047953
0.0035 0.0195 3.22134697292
0.0035 0.0205 3.18478284321
0.0035 0.0215 3.14790609001
0.0035 0.0225 3.11059968158
0.0035 0.0235 3.07277692287
0.0035 0.0245 3.03438891434
0.0035 0.0255 2.9954396677
0.0035 0.0265 2.95602813061
0.0035 0.0275 2.91647597498
0.0035 0.0285 2.87765637863
0.0035 0.0295 2.84162336736
0.0035 0.0305 2.81222585062
0.0035 0.0315 2.79494304856
0.0045 -0.0315 4.94332174072
0.0045 -0.0305 4.95091521658
0.0045 -0.0295 4.95974474317
0.0045 -0.0285 4.96438769163
0.0045 -0.0275 4.96325922443
0.0045 -0.0265 4.9580466507
0.0045 -0.0255 4.95050911242
0.0045 -0.0245 4.93990201643
0.0045 -0.0235 4.92091370256
0.0045 -0.0225 4.87913693544
0.0045 -0.0215 4.79864618101
0.0045 -0.0205 4.68031207287
0.0045 -0.0195 4.54737284875
0.0045 -0.0185 4.45475916764
0.0045 -0.0175 4.41878628037
0.0045 -0.0165 4.40661769149
0.0045 -0.0155 4.40843510195
0.0045 -0.0145 4.42577739927
0.0045 -0.0135 4.45118925019
0.0045 -0.0125 4.46693297584
0.0045 -0.0115 4.46233924539
0.0045 -0.0105 4.44303747821
0.0045 -0.0095 4.42389402172
0.0045 -0.0085 4.41781238918
0.0045 -0.0075 4.42912009698
0.0045 -0.0065 4.45102788859
0.0045 -0.0055 4.46154854766
0.0045 -0.0045 4.4283624818
0.0045 -0.0035 4.33496204405
0.0045 -0.0025 4.20127246761
0.0045 -0.0015 4.06831987087
0.0045 -0.0005 3.95678984036
0.0045 0.0005 3.86644902497
0.0045 0.0015 3.7959292493
0.0045 0.0025 3.7416629621
0.0045 0.0035 3.69984823055
0.0045 0.0045 3.66590531421
0.0045 0.0055 3.63592211817
0.0045 0.0065 3.60719706108
0.0045 0.0075 3.5782124719
0.0045 0.0085 3.54838170566
0.0045 0.0095 3.51755304042
0.0045 0.0105 3.48573229255
0.0045 0.0115 3.45303183354
0.0045 0.0125 3.41966549596
0.0045 0.0135 3.38590293869
0.0045 0.0145 3.35198900572
0.0045 0.0155 3.31807213531
0.0045 0.0165 3.28417436774
0.0045 0.0175 3.25020479868
0.0045 0.0185 3.21599502777
0.0045 0.0195 3.18134229599
0.0045 0.0205 3.14604853497
0.0045 0.0215 3.1099474592
0.0045 0.0225 3.07292082825
0.0045 0.0235 3.03490992841
0.0045 0.0245 2.99593040055
0.0045 0.0255 2.95610701856
0.0045 0.0265 2.91576234994
0.0045 0.0275 2.87560997373
0.0045 0.0285 2.8370760626
0.0045 0.0295 2.80260146368
0.0045 0.0305 2.77565035077
0.0045 0.0315 2.76040602059
0.0055 -0.0315 4.92431922721
0.0055 -0.0305 4.9315638922
0.0055 -0.0295 4.94049371624
0.0055 -0.0285 4.94588073182
0.0055 -0.0275 4.94526157789
0.0055 -0.0265 4.93970071165
0.0055 -0.0255 4.9314294434
0.0055 -0.0245 4.92130891622
0.0055 -0.0235 4.90775080362
0.0055 -0.0225 4.8844050822
0.0055 -0.0215 4.83898137249
0.0055 -0.0205 4.76907233847
0.0055 -0.0195 4.67424251439
0.0055 -0.0185 4.57269235744
0.0055 -0.0175 4.50090782559
0.0055 -0.0165 4.46560422298
0.0055 -0.0155 4.45783063513
0.0055 -0.0145 4.46761242345
0.0055 -0.0135 4.4733751014
0.0055 -0.0125 4.45344580262
0.0055 -0.0115 4.4078027216
0.0055 -0.0105 4.35518477646
0.0055 -0.0095 4.31395834513
0.0055 -0.0085 4.29240455102
0.0055 -0.0075 4.29168553727
0.0055 -0.0065 4.30488102718
0.0055 -0.0055 4.30899712662
0.0055 -0.0045 4.26814074605
0.0055 -0.0035 4.1673025934
0.0055 -0.0025 4.03926789226
0.0055 -0.0015 3.92260709877
0.0055 -0.0005 3.82651686984
0.0055 0.0005 3.74958379029
0.0055 0.0015 3.68890814108
0.0055 0.0025 3.64106750898
0.0055 0.0035 3.60325337055
0.0055 0.0045 3.57217744205
0.0055 0.0055 3.54490561234
0.0055 0.0065 3.51908037411
0.0055 0.0075 3.49347142817
0.0055 0.0085 3.4674104404
0.0055 0.0095 3.44044062141
0.0055 0.0105 3.41235406286
0.0055 0.0115 3.38323125162
0.0055 0.0125 3.35336711535
0.0055 0.0135 3.32310353537
0.0055 0.0145 3.29268163938
0.0055 0.0155 3.26216925614
0.0055 0.0165 3.23146706142
0.0055 0.0175 3.20035830898
0.0055 0.0185 3.16857108874
0.0055 0.0195 3.13583487661
0.0055 0.0205 3.10192206384
0.0055 0.0215 3.06667379913
0.0055 0.0225 3.03001566597
0.0055 0.0235 2.99197209051
0.0055 0.0245 2.9526920052
0.0055 0.0255 2.91250537495
0.0055 0.0265 2.87203471898
0.0055 0.0275 2.83236572253
0.0055 0.0285 2.79520608494
0.0055 0.0295 2.76290875082
0.0055 0.0305 2.73837380702
0.0055 0.0315 2.72484301427
0.0065 -0.0315 4.90372806836
0.0065 -0.0305 4.91057095089
0.0065 -0.0295 4.91944715972
0.0065 -0.0285 4.92554544223
0.0065 -0.0275 4.92594586559
0.0065 -0.0265 4.92079214703
0.0065 -0.0255 4.91238244888
0.0065 -0.0245 4.90276777466
0.0065 -0.0235 4.89282205903
0.0065 -0.0225 4.88257863989
0.0065 -0.0215 4.86924057857
0.0065 -0.0205 4.85218627928
0.0065 -0.0195 4.82389284323
0.0065 -0.0185 4.77309429236
0.0065 -0.0175 4.71303429969
0.0065 -0.0165 4.66626650657
0.0065 -0.0155 4.63764652134
0.0065 -0.0145 4.61123615797
0.0065 -0.0135 4.55978947528
0.0065 -0.0125 4.47428405189
0.0065 -0.0115 4.37863111147
0.0065 -0.0105 4.29996085719
0.0065 -0.0095 4.24554566476
0.0065 -0.0085 4.21135838459
0.0065 -0.0075 4.19268130177
0.0065 -0.0065 4.18405995038
0.0065 -0.0055 4.17034192194
0.0065 -0.0045 4.12298348579
0.0065 -0.0035 4.02739380416
0.0065 -0.0025 3.91428911605
0.0065 -0.0015 3.81531975708
0.0065 -0.0005 3.73275588622
0.0065 0.0005 3.66524079832
0.0065 0.0015 3.61025986479
0.0065 0.0025 3.56520591184
0.0065 0.0035 3.52770265012
0.0065 0.0045 3.4948928528
0.0065 0.0055 3.46535850852
0.0065 0.0065 3.43819627761
0.0065 0.0075 3.41260718012
0.0065 0.0085 3.38754886662
0.0065 0.0095 3.36215495143
0.0065 0.0105 3.33604172861
0.0065 0.0115 3.30934069509
0.0065 0.0125 3.28239976092
0.0065 0.0135 3.25549741028
0.0065 0.0145 3.22869043171
0.0065 0.0155 3.20180828675
0.0065 0.0165 3.1745229226
0.0065 0.0175 3.14643612418
0.0065 0.0185 3.11715846751
0.0065 0.0195 3.08636574527
0.0065 0.0205 3.05383301476
0.0065 0.0215 3.01945252312
0.0065 0.0225 2.98324485916
0.0065 0.0235 2.94537441282
0.0065 0.0245 2.90618080335
0.0065 0.0255 2.86623759749
0.0065 0.0265 2.826438808
0.0065 0.0275 2.78808060462
0.0065 0.0285 2.75288061716
0.0065 0.0295 2.72292436474
0.0065 0.0305 2.70060839401
0.0065 0.0315 2.68850114699
0.0075 -0.0315 4.88198855455
0.0075 -0.0305 4.88838423395
0.0075 -0.0295 4.89712323658
0.0075 -0.0285 4.90383249967
0.0075 -0.0275 4.90555413224
0.0075 -0.0265 4.90166382177
0.0075 -0.0255 4.89428775872
0.0075 -0.0245 4.88615317515
0.0075 -0.0235 4.87914258965
0.0075 -0.0225 4.87673734232
0.0075 -0.0215 4.88708911976
0.0075 -0.0205 4.91962027855
0.0075 -0.0195 4.96693559536
0.0075 -0.0185 5.00169937264
0.0075 -0.0175 5.00633953915
0.0075 -0.0165 4.98296685465
0.0075 -0.0155 4.93293310226
0.0075 -0.0145 4.84569020811
0.0075 -0.0135 4.70975680474
0.0075 -0.0125 4.54682711966
0.0075 -0.0115 4.40349940371
0.0075 -0.0105 4.30104483538
0.0075 -0.0095 4.23201461455
0.0075 -0.0085 4.18390004807
0.0075 -0.0075 4.14716940205
0.0075 -0.0065 4.11474476697
0.0075 -0.0055 4.0785815858
0.0075 -0.0045 4.02350920056
0.0075 -0.0035 3.93650522671
0.0075 -0.0025 3.83339238431
0.0075 -0.0015 3.74217388195
0.0075 -0.0005 3.66933498867
0.0075 0.0005 3.60917667751
0.0075 0.0015 3.55761442709
0.0075 0.0025 3.51314857858
0.0075 0.0035 3.47342342208
0.0075 0.0045 3.43605022204
0.0075 0.0055 3.40135322356
0.0075 0.0065 3.36979491824
0.0075 0.0075 3.34084890292
0.0075 0.0085 3.31342795579
0.0075 0.0095 3.28653439315
0.0075 0.0105 3.2600361232
0.0075 0.0115 3.23425762446
0.0075 0.0125 3.20948086815
0.0075 0.0135 3.18566086579
0.0075 0.0145 3.16242392608
0.0075 0.0155 3.13919199383
0.0075 0.0165 3.11531379969
0.0075 0.0175 3.09017771762
0.0075 0.0185 3.06328491145
0.0075 0.0195 3.03428863462
0.0075 0.0205 3.00300949791
0.0075 0.0215 2.96943850163
0.0075 0.0225 2.93374041085
0.0075 0.0235 2.89626406085
0.0075 0.0245 2.85756336202
0.0075 0.0255 2.81842982456
0.0075 0.0265 2.77992473554
0.0075 0.0275 2.74338607472
0.0075 0.0285 2.71039915298
0.0075 0.0295 2.68275441215
0.0075 0.0305 2.66243634658
0.0075 0.0315 2.65153314201
0.0085 -0.0315 4.85931727167
0.0085 -0.0305 4.86527156961
0.0085 -0.0295 4.87388218034
0.0085 -0.0285 4.88128393279
0.0085 -0.0275 4.88468323967
0.0085 -0.0265 4.88311472769
0.0085 -0.0255 4.87831286973
0.0085 -0.0245 4.87287547328
0.0085 -0.0235 4.86856012387
0.0085 -0.0225 4.87016927741
0.0085 -0.0215 4.89468421031
0.0085 -0.0205 4.9659593593
0.0085 -0.0195 5.08134813857
0.0085 -0.0185 5.20148567022
0.0085 -0.0175 5.28130540062
0.0085 -0.0165 5.29462791032
0.0085 -0.0155 5.23276887187
0.0085 -0.0145 5.09462115878
0.0085 -0.0135 4.89339431993
0.0085 -0.0125 4.67191818847
0.0085 -0.0115 4.48151242425
0.0085 -0.0105 4.34235758338
0.0085 -0.0095 4.24572444006
0.0085 -0.0085 4.17600298634
0.0085 -0.0075 4.11996333501
0.0085 -0.0065 4.06926585806
0.0085 -0.0055 4.01769579877
0.0085 -0.0045 3.95651589039
0.0085 -0.0035 3.87727433859
0.0085 -0.0025 3.78435912186
0.0085 -0.0015 3.69628363615
0.0085 -0.0005 3.62536696627
0.0085 0.0005 3.56877145078
0.0085 0.0015 3.52036183077
0.0085 0.0025 3.47639866091
0.0085 0.0035 3.4338494381
0.0085 0.0045 3.39167526469
0.0085 0.0055 3.35207119975
0.0085 0.0065 3.31572250128
0.0085 0.0075 3.28119393823
0.0085 0.0085 3.2480774448
0.0085 0.0095 3.21652403543
0.0085 0.0105 3.18725779146
0.0085 0.0115 3.16092799004
0.0085 0.0125 3.13750827836
0.0085 0.0135 3.11632817749
0.0085 0.0145 3.09636879019
0.0085 0.0155 3.07650663898
0.0085 0.0165 3.05571411723
0.0085 0.0175 3.03316656634
0.0085 0.0185 3.00828578734
0.0085 0.0195 2.98074553647
0.0085 0.0205 2.95045646616
0.0085 0.0215 2.91755272422
0.0085 0.0225 2.88238310472
0.0085 0.0235 2.84550138554
0.0085 0.0245 2.80765615377
0.0085 0.0255 2.76978258704
0.0085 0.0265 2.73299151572
0.0085 0.0275 2.69854949921
0.0085 0.0285 2.6678543575
0.0085 0.0295 2.64242204036
0.0085 0.0305 2.62391191282
0.0085 0.0315 2.61406234585
0.0095 -0.0315 4.83580402456
0.0095 -0.0305 4.84132993899
0.0095 -0.0295 4.84985165725
0.0095 -0.0285 4.85822672905
0.0095 -0.0275 4.86394427645
0.0095 -0.0265 4.86586191471
0.0095 -0.0255 4.86487481194
0.0095 -0.0245 4.86280238831
0.0095 -0.0235 4.8610724045
0.0095 -0.0225 4.86512223288
0.0095 -0.0215 4.8975957268
0.0095 -0.0205 4.99389602094
0.0095 -0.0195 5.15666020452
0.0095 -0.0185 5.33687270523
0.0095 -0.0175 5.46854531516
0.0095 -0.0165 5.50735231749
0.0095 -0.0155 5.44273982913
0.0095 -0.0145 5.28689142521
0.0095 -0.0135 5.06830195084
0.0095 -0.0125 4.82352968449
0.0095 -0.0115 4.59464324034
0.0095 -0.0105 4.4107591972
0.0095 -0.0095 4.27307271502
0.0095 -0.0085 4.17024347239
0.0095 -0.0075 4.0895756626
0.0095 -0.0065 4.02224967537
0.0095 -0.0055 3.9611565807
0.0095 -0.0045 3.89844295789
0.0095 -0.0035 3.82759357751
0.0095 -0.0025 3.74817226816
0.0095 -0.0015 3.66795963735
0.0095 -0.0005 3.59671243093
0.0095 0.0005 3.53847591606
0.0095 0.0015 3.4899935738
0.0095 0.0025 3.4453288564
0.0095 0.0035 3.40080508934
0.0095 0.0045 3.35635194369
0.0095 0.0055 3.31402617449
0.0095 0.0065 3.27351285582
0.0095 0.0075 3.23276376054
0.0095 0.0085 3.19218155282
0.0095 0.0095 3.15401572309
0.0095 0.0105 3.12048893649
0.0095 0.0115 3.09254144702
0.0095 0.0125 3.06963723647
0.0095 0.0135 3.0503921848
0.0095 0.0145 3.03302947729
0.0095 0.0155 3.01584042111
0.0095 0.0165 2.99742254301
0.0095 0.0175 2.97676539697
0.0095 0.0185 2.95325628357
0.0095 0.0195 2.92662936265
0.0095 0.0205 2.89692436412
0.0095 0.0215 2.86445909864
0.0095 0.0225 2.82979236695
0.0095 0.0235 2.79367126619
0.0095 0.0245 2.75697919664
0.0095 0.0255 2.72069891233
0.0095 0.0265 2.68589127947
0.0095 0.0275 2.65368496518
0.0095 0.0285 2.62527550351
0.0095 0.0295 2.60193936832
0.0095 0.0305 2.5850799305
0.0095 0.0315 2.57616759496
0.0105 -0.0315 4.81152078363
0.0105 -0.0305 4.81659003081
0.0105 -0.0295 4.82498487755
0.0105 -0.0285 4.83442004016
0.0105 -0.0275 4.84283178025
0.0105 -0.0265 4.84894506569
0.0105 -0.0255 4.85251259869
0.0105 -0.0245 4.85426107531
0.0105 -0.0235 4.85554753384
0.0105 -0.0225 4.86232383813
0.0105 -0.0215 4.90009783963
0.0105 -0.0205 5.00859711156
0.0105 -0.0195 5.19138895749
0.0105 -0.0185 5.39449272684
0.0105 -0.0175 5.5438832713
0.0105 -0.0165 5.5914320549
0.0105 -0.0155 5.5348643774
0.0105 -0.0145 5.39771957001
0.0105 -0.0135 5.19845237793
0.0105 -0.0125 4.9573916512
0.0105 -0.0115 4.71047790288
0.0105 -0.0105 4.49031120987
0.0105 -0.0095 4.31046928865
0.0105 -0.0085 4.16927686081
0.0105 -0.0075 4.05985336997
0.0105 -0.0065 3.97431840678
0.0105 -0.0055 3.90390770087
0.0105 -0.0045 3.84021090278
0.0105 -0.0035 3.77690804705
0.0105 -0.0025 3.71105936241
0.0105 -0.0015 3.64332593724
0.0105 -0.0005 3.57668530635
0.0105 0.0005 3.51589437855
0.0105 0.0015 3.46336384333
0.0105 0.0025 3.41604011556
0.0105 0.0035 3.37037007428
0.0105 0.0045 3.32571898873
0.0105 0.0055 3.28193563657
0.0105 0.0065 3.23756466508
0.0105 0.0075 3.19109656284
0.0105 0.0085 3.14385900417
0.0105 0.0095 3.09994534014
0.0105 0.0105 3.0624345949
0.0105 0.0115 3.0323496809
0.0105 0.0125 3.00911945609
0.0105 0.0135 2.99071365048
0.0105 0.0145 2.97474441802
0.0105 0.0155 2.95903193282
0.0105 0.0165 2.94184267735
0.0105 0.0175 2.92203630496
0.0105 0.0185 2.89899420943
0.0105 0.0195 2.87253685322
0.0105 0.0205 2.84287707447
0.0105 0.0215 2.81055848194
0.0105 0.0225 2.77635190959
0.0105 0.0235 2.74114362707
0.0105 0.0245 2.70585759448
0.0105 0.0255 2.67142256837
0.0105 0.0265 2.63877203378
0.0105 0.0275 2.60886053675
0.0105 0.0285 2.58268699649
0.0105 0.0295 2.56132557976
0.0105 0.0305 2.54597486469
0.0105 0.0315 2.5378952753
0.0115 -0.0315 4.78656182002
0.0115 -0.0305 4.79110905883
0.0115 -0.0295 4.79916403527
0.0115 -0.0285 4.80928544591
0.0115 -0.0275 4.81998488998
0.0115 -0.0265 4.83012947898
0.0115 -0.0255 4.8385054166
0.0115 -0.0245 4.84473396924
0.0115 -0.0235 4.85003666893
0.0115 -0.0225 4.86050232255
0.0115 -0.0215 4.90136563701
0.0115 -0.0205 5.00850677571
0.0115 -0.0195 5.18243791994
0.0115 -0.0185 5.37359583641
0.0115 -0.0175 5.51481845873
0.0115 -0.0165 5.56758575573
0.0115 -0.0155 5.5366578935
0.0115 -0.0145 5.43471147547
0.0115 -0.0135 5.26453887525
0.0115 -0.0125 5.04157318444
0.0115 -0.0115 4.79677251496
0.0115 -0.0105 4.55943335152
0.0115 -0.0095 4.3498524329
0.0115 -0.0085 4.1761932489
0.0115 -0.0075 4.03859082268
0.0115 -0.0065 3.93278069315
0.0115 -0.0055 3.85104656174
0.0115 -0.0045 3.78435173885
0.0115 -0.0035 3.72587604217
0.0115 -0.0025 3.67099134282
0.0115 -0.0015 3.6149960261
0.0115 -0.0005 3.55525058362
0.0115 0.0005 3.49461483858
0.0115 0.0015 3.43796155574
0.0115 0.0025 3.38688904842
0.0115 0.0035 3.34008885694
0.0115 0.0045 3.2953667833
0.0115 0.0055 3.25005887514
0.0115 0.0065 3.20215171003
0.0115 0.0075 3.15143510137
0.0115 0.0085 3.1001546301
0.0115 0.0095 3.05343648115
0.0115 0.0105 3.01430698199
0.0115 0.0115 2.98292078464
0.0115 0.0125 2.95863783542
0.0115 0.0135 2.93956009852
0.0115 0.0145 2.92332417151
0.0115 0.0155 2.90741916942
0.0115 0.0165 2.88994046997
0.0115 0.0175 2.86965133811
0.0115 0.0185 2.84592368788
0.0115 0.0195 2.8187109699
0.0115 0.0205 2.78847710545
0.0115 0.0215 2.75602372406
0.0115 0.0225 2.72228272988
0.0115 0.0235 2.68817056325
0.0115 0.0245 2.65453067624
0.0115 0.0255 2.62214185195
0.0115 0.0265 2.59175652758
0.0115 0.0275 2.56414315663
0.0115 0.0285 2.5401231528
0.0115 0.0295 2.52060469638
0.0115 0.0305 2.50662613591
0.0115 0.0315 2.4992904298
0.0125 -0.0315 4.76100907499
0.0125 -0.0305 4.76498470542
0.0125 -0.0295 4.77238392954
0.0125 -0.0285 4.782427386
0.0125 -0.0275 4.79427814114
0.0125 -0.0265 4.80733493615
0.0125 -0.0255 4.82000798341
0.0125 -0.0245 4.83119801663
0.0125 -0.0235 4.84103955178
0.0125 -0.0225 4.85390490024
0.0125 -0.0215 4.89156434157
0.0125 -0.0205 4.98143500529
0.0125 -0.0195 5.12312328444
0.0125 -0.0185 5.28138376348
0.0125 -0.0175 5.40763560584
0.0125 -0.0165 5.4745674428
0.0125 -0.0155 5.47564343296
0.0125 -0.0145 5.40480773435
0.0125 -0.0135 5.26376741906
0.0125 -0.0125 5.06711691029
0.0125 -0.0115 4.83812654045
0.0125 -0.0105 4.60239565776
0.0125 -0.0095 4.38099828623
0.0125 -0.0085 4.18747504549
0.0125 -0.0075 4.02804316414
0.0125 -0.0065 3.90307964621
0.0125 -0.0055 3.80837260056
0.0125 -0.0045 3.7364825266
0.0125 -0.0035 3.67975862727
0.0125 -0.0025 3.63080553606
0.0125 -0.0015 3.58183544878
0.0125 -0.0005 3.52757771085
0.0125 0.0005 3.46844578204
0.0125 0.0015 3.40936638859
0.0125 0.0025 3.35503227243
0.0125 0.0035 3.30623443423
0.0125 0.0045 3.2606677776
0.0125 0.0055 3.2143549332
0.0125 0.0065 3.16445029741
0.0125 0.0075 3.11185433923
0.0125 0.0085 3.06026234518
0.0125 0.0095 3.01426363036
0.0125 0.0105 2.97551592657
0.0125 0.0115 2.94397594967
0.0125 0.0125 2.91872061865
0.0125 0.0135 2.89780378468
0.0125 0.0145 2.87947636195
0.0125 0.0155 2.86154465677
0.0125 0.0165 2.84208615858
0.0125 0.0175 2.81975725979
0.0125 0.0185 2.79397843684
0.0125 0.0195 2.76499315615
0.0125 0.0205 2.73362448628
0.0125 0.0215 2.70089363877
0.0125 0.0225 2.66775365739
0.0125 0.0235 2.63498904373
0.0125 0.0245 2.60323475599
0.0125 0.0255 2.57304651903
0.0125 0.0265 2.54497233916
0.0125 0.0275 2.51960610299
0.0125 0.0285 2.49762250391
0.0125 0.0295 2.47980151721
0.0125 0.0305 2.46706100807
0.0125 0.0315 2.46038677921
0.0135 -0.0315 4.73489404626
0.0135 -0.0305 4.73832291301
0.0135 -0.0295 4.74487223281
0.0135 -0.0285 4.75407491808
0.0135 -0.0275 4.76581879886
0.0135 -0.0265 4.77999307332
0.0135 -0.0255 4.79537945181
0.0135 -0.0245 4.81057053296
0.0135 -0.0235 4.82260609605
0.0135 -0.0225 4.83189942023
0.0135 -0.0215 4.85540403956
0.0135 -0.0205 4.91522305865
0.0135 -0.0195 5.01615438217
0.0135 -0.0185 5.14035319091
0.0135 -0.0175 5.25711224318
0.0135 -0.0165 5.33806912634
0.0135 -0.0155 5.3614938338
0.0135 -0.0145 5.31584374105
0.0135 -0.0135 5.20317571276
0.0135 -0.0125 5.03551463013
0.0135 -0.0115 4.83115351689
0.0135 -0.0105 4.61093414147
0.0135 -0.0095 4.39405080394
0.0135 -0.0085 4.19532881384
0.0135 -0.0075 4.02437648363
0.0135 -0.0065 3.88568202089
0.0135 -0.0055 3.77928386177
0.0135 -0.0045 3.70059082985
0.0135 -0.0035 3.64206888057
0.0135 -0.0025 3.59334215346
0.0135 -0.0015 3.54511114387
0.0135 -0.0005 3.49301986542
0.0135 0.0005 3.43553825101
0.0135 0.0015 3.37580014781
0.0135 0.0025 3.31892487809
0.0135 0.0035 3.26716859794
0.0135 0.0045 3.21954225219
0.0135 0.0055 3.1726546394
0.0135 0.0065 3.12345663396
0.0135 0.0075 3.07275086914
0.0135 0.0085 3.02451341977
0.0135 0.0095 2.98153712858
0.0135 0.0105 2.94449452419
0.0135 0.0115 2.91354749888
0.0135 0.0125 2.88741622114
0.0135 0.0135 2.8640832231
0.0135 0.0145 2.84238579625
0.0135 0.0155 2.82090992518
0.0135 0.0165 2.79780954378
0.0135 0.0175 2.7717326891
0.0135 0.0185 2.74247167988
0.0135 0.0195 2.71085644482
0.0135 0.0205 2.67808572409
0.0135 0.0215 2.64521803762
0.0135 0.0225 2.61299652806
0.0135 0.0235 2.58189433747
0.0135 0.0245 2.55224120323
0.0135 0.0255 2.52434027058
0.0135 0.0265 2.49854768866
0.0135 0.0275 2.47531669719
0.0135 0.0285 2.45521561836
0.0135 0.0295 2.43893446189
0.0135 0.0305 2.42730118111
0.0135 0.0315 2.42120852119
0.0145 -0.0315 4.70816682264
0.0145 -0.0305 4.71124056522
0.0145 -0.0295 4.7170033586
0.0145 -0.0285 4.72513921206
0.0145 -0.0275 4.73610991854
0.0145 -0.0265 4.74975413276
0.0145 -0.0255 4.76546185202
0.0145 -0.0245 4.78111906117
0.0145 -0.0235 4.78863555036
0.0145 -0.0225 4.78527521328
0.0145 -0.0215 4.78581792633
0.0145 -0.0205 4.81546005852
0.0145 -0.0195 4.88575487367
0.0145 -0.0185 4.98477975455
0.0145 -0.0175 5.09070864681
0.0145 -0.0165 5.17402492569
0.0145 -0.0155 5.20824756563
0.0145 -0.0145 5.18169282197
0.0145 -0.0135 5.09463063063
0.0145 -0.0125 4.95635155853
0.0145 -0.0115 4.78097588143
0.0145 -0.0105 4.58483074748
0.0145 -0.0095 4.38405105248
0.0145 -0.0085 4.19256141777
0.0145 -0.0075 4.02103427609
0.0145 -0.0065 3.87648988295
0.0145 -0.0055 3.76210305601
0.0145 -0.0045 3.67586239442
0.0145 -0.0035 3.61118313988
0.0145 -0.0025 3.55812953301
0.0145 -0.0015 3.50735674811
0.0145 -0.0005 3.45358389872
0.0145 0.0005 3.39633430095
0.0145 0.0015 3.33854594079
0.0145 0.0025 3.28168412873
0.0145 0.0035 3.22648130169
0.0145 0.0045 3.17463349717
0.0145 0.0055 3.12642656449
0.0145 0.0065 3.0797155208
0.0145 0.0075 3.03373112451
0.0145 0.0085 2.99080989646
0.0145 0.0095 2.95231778745
0.0145 0.0105 2.91823527125
0.0145 0.0115 2.88824259102
0.0145 0.0125 2.8609856935
0.0145 0.0135 2.83509162036
0.0145 0.0145 2.8096891305
0.0145 0.0155 2.7836758262
0.0145 0.0165 2.75536305752
0.0145 0.0175 2.72390433685
0.0145 0.0185 2.69012158888
0.0145 0.0195 2.65560051013
0.0145 0.0205 2.62170808679
0.0145 0.0215 2.58920876153
0.0145 0.0225 2.55837919069
0.0145 0.0235 2.52925876307
0.0145 0.0245 2.50184624123
0.0145 0.0255 2.4762180729
0.0145 0.0265 2.45258700621
0.0145 0.0275 2.43131710121
0.0145 0.0285 2.41291342515
0.0145 0.0295 2.39800732261
0.0145 0.0305 2.38735960118
0.0145 0.0315 2.38178753058
0.0155 -0.0315 4.68074084165
0.0155 -0.0305 4.68380313302
0.0155 -0.0295 4.68916436277
0.0155 -0.0285 4.69653365386
0.0155 -0.0275 4.70637278435
0.0155 -0.0265 4.7184127786
0.0155 -0.0255 4.73221459307
0.0155 -0.0245 4.74337917696
0.0155 -0.0235 4.738853589
0.0155 -0.0225 4.71520976744
0.0155 -0.0215 4.69291789599
0.0155 -0.0205 4.70399629033
0.0155 -0.0195 4.7581852914
0.0155 -0.0185 4.83863666003
0.0155 -0.0175 4.92694203695
0.0155 -0.0165 4.99966990179
0.0155 -0.0155 5.03412461447
0.0155 -0.0145 5.01940864349
0.0155 -0.0135 4.9536712319
0.0155 -0.0125 4.8427104613
0.0155 -0.0115 4.69690343504
0.0155 -0.0105 4.52858877406
0.0155 -0.0095 4.35054678277
0.0155 -0.0085 4.17479683921
0.0155 -0.0075 4.0116283592
0.0155 -0.0065 3.86890063893
0.0155 -0.0055 3.75108605183
0.0155 -0.0045 3.65802879309
0.0155 -0.0035 3.58497791418
0.0155 -0.0025 3.52429239375
0.0155 -0.0015 3.46859845522
0.0155 -0.0005 3.41229848285
0.0155 0.0005 3.35493442904
0.0155 0.0015 3.29910574472
0.0155 0.0025 3.24371880601
0.0155 0.0035 3.18686184092
0.0155 0.0045 3.13104665788
0.0155 0.0055 3.08023659452
0.0155 0.0065 3.03476402573
0.0155 0.0075 2.99298817397
0.0155 0.0085 2.95542838905
0.0155 0.0095 2.9225121289
0.0155 0.0105 2.89253623652
0.0155 0.0115 2.86373513094
0.0155 0.0125 2.8352665973
0.0155 0.0135 2.80704830329
0.0155 0.0145 2.77798712002
0.0155 0.0155 2.74632634033
0.0155 0.0165 2.71130969585
0.0155 0.0175 2.67367667782
0.0155 0.0185 2.63541632749
0.0155 0.0195 2.59871607519
0.0155 0.0205 2.5646517117
0.0155 0.0215 2.53332323764
0.0155 0.0225 2.50440046071
0.0155 0.0235 2.47749059356
0.0155 0.0245 2.45232126634
0.0155 0.0255 2.4288226555
0.0155 0.0265 2.40714068864
0.0155 0.0275 2.387607783
0.0155 0.0285 2.37070065153
0.0155 0.0295 2.35700974386
0.0155 0.0305 2.34723884915
0.0155 0.0315 2.34213512868
0.0165 -0.0315 4.65259089995
0.0165 -0.0305 4.65587408554
0.0165 -0.0295 4.66142804482
0.0165 -0.0285 4.66864158832
0.0165 -0.0275 4.67714325647
0.0165 -0.0265 4.68677110835
0.0165 -0.0255 4.69693942896
0.0165 -0.0245 4.6995292652
0.0165 -0.0235 4.67880786288
0.0165 -0.0225 4.63396046969
0.0165 -0.0215 4.59652240071
0.0165 -0.0205 4.59906083004
0.0165 -0.0195 4.64089468465
0.0165 -0.0185 4.7039935547
0.0165 -0.0175 4.77181424709
0.0165 -0.0165 4.82703841587
0.0165 -0.0155 4.85448062677
0.0165 -0.0145 4.8449201711
0.0165 -0.0135 4.79497379274