% Model:              Benchmark260518.mph
% Version:            COMSOL 6.2.0.339
% Date:               May 20 2026, 19:25
% Dimension:          2
% Nodes:              4096
% Expressions:        1
% Description:        压力
% Length unit:        m
% x                       y                        p (Pa)
% mirrored_by_python_y_to_minus_y, coord_match_decimals=12
0.0005 -0.0315 4.79002240825
0.0005 -0.0305 4.79885971225
0.0005 -0.0295 4.81098266393
0.0005 -0.0285 4.82416369584
0.0005 -0.0275 4.83763395888
0.0005 -0.0265 4.85092902922
0.0005 -0.0255 4.86368560829
0.0005 -0.0245 4.8755235882
0.0005 -0.0235 4.88589053626
0.0005 -0.0225 4.89390523816
0.0005 -0.0215 4.898293814
0.0005 -0.0205 4.89858726694
0.0005 -0.0195 4.89486999455
0.0005 -0.0185 4.88678312747
0.0005 -0.0175 4.87135370319
0.0005 -0.0165 4.781615833
0.0005 -0.0155 4.54970012398
0.0005 -0.0145 4.34104728516
0.0005 -0.0135 4.27684352021
0.0005 -0.0125 4.26837902258
0.0005 -0.0115 4.27785701829
0.0005 -0.0105 4.31569417734
0.0005 -0.0095 4.3916665278
0.0005 -0.0085 4.49021200621
0.0005 -0.0075 4.57160015961
0.0005 -0.0065 4.62116449652
0.0005 -0.0055 4.66071822632
0.0005 -0.0045 4.70379334756
0.0005 -0.0035 4.74322839971
0.0005 -0.0025 4.76876249558
0.0005 -0.0015 4.77731337368
0.0005 -0.0005 4.775554539
0.0005 0.0005 4.77344301049
0.0005 0.0015 4.77590510565
0.0005 0.0025 4.78136121354
0.0005 0.0035 4.78545281003
0.0005 0.0045 4.78404361259
0.0005 0.0055 4.77328734033
0.0005 0.0065 4.74800426524
0.0005 0.0075 4.70315946496
0.0005 0.0085 4.64229726325
0.0005 0.0095 4.57358113631
0.0005 0.0105 4.50283289931
0.0005 0.0115 4.43439470838
0.0005 0.0125 4.36936988586
0.0005 0.0135 4.30717756758
0.0005 0.0145 4.24721042533
0.0005 0.0155 4.18898063047
0.0005 0.0165 4.13206497065
0.0005 0.0175 4.07614302801
0.0005 0.0185 4.02098442367
0.0005 0.0195 3.96645766775
0.0005 0.0205 3.91252580177
0.0005 0.0215 3.85923062091
0.0005 0.0225 3.80664985877
0.0005 0.0235 3.75485843604
0.0005 0.0245 3.70391533848
0.0005 0.0255 3.65386142025
0.0005 0.0265 3.60476476901
0.0005 0.0275 3.55677046789
0.0005 0.0285 3.51015108086
0.0005 0.0295 3.46548017551
0.0005 0.0305 3.42449871369
0.0005 0.0315 3.39441918297
0.0015 -0.0315 4.78176610089
0.0015 -0.0305 4.79199678045
0.0015 -0.0295 4.80719921584
0.0015 -0.0285 4.82399064542
0.0015 -0.0275 4.84092244593
0.0015 -0.0265 4.85712991139
0.0015 -0.0255 4.87194905759
0.0015 -0.0245 4.88477910209
0.0015 -0.0235 4.89494642028
0.0015 -0.0225 4.90172534961
0.0015 -0.0215 4.90456250423
0.0015 -0.0205 4.90377325665
0.0015 -0.0195 4.90015950588
0.0015 -0.0185 4.89349927554
0.0015 -0.0175 4.88498147705
0.0015 -0.0165 4.79716010174
0.0015 -0.0155 4.55527837721
0.0015 -0.0145 4.31983107797
0.0015 -0.0135 4.25238181977
0.0015 -0.0125 4.26325167303
0.0015 -0.0115 4.27240387883
0.0015 -0.0105 4.30295802346
0.0015 -0.0095 4.37303086464
0.0015 -0.0085 4.47371986209
0.0015 -0.0075 4.55841452553
0.0015 -0.0065 4.60929021837
0.0015 -0.0055 4.64865291633
0.0015 -0.0045 4.68940276534
0.0015 -0.0035 4.72518276673
0.0015 -0.0025 4.74653945911
0.0015 -0.0015 4.75328489589
0.0015 -0.0005 4.75362393423
0.0015 0.0005 4.75690287855
0.0015 0.0015 4.76629141321
0.0015 0.0025 4.77811722799
0.0015 0.0035 4.78608656049
0.0015 0.0045 4.78502078696
0.0015 0.0055 4.77152648432
0.0015 0.0065 4.74226728897
0.0015 0.0075 4.69236226979
0.0015 0.0085 4.6263232262
0.0015 0.0095 4.55433706513
0.0015 0.0105 4.48233680439
0.0015 0.0115 4.41422826646
0.0015 0.0125 4.35038734566
0.0015 0.0135 4.289843358
0.0015 0.0145 4.2315346275
0.0015 0.0155 4.17465011597
0.0015 0.0165 4.11865117317
0.0015 0.0175 4.06319365238
0.0015 0.0185 4.00809176287
0.0015 0.0195 3.95331371283
0.0015 0.0205 3.89896381331
0.0015 0.0215 3.84520663947
0.0015 0.0225 3.79216706649
0.0015 0.0235 3.73986909196
0.0015 0.0245 3.68823835136
0.0015 0.0255 3.63715522971
0.0015 0.0265 3.58652383343
0.0015 0.0275 3.53633175384
0.0015 0.0285 3.48675690659
0.0015 0.0295 3.43854305702
0.0015 0.0305 3.39447772133
0.0015 0.0315 3.36416780433
0.0025 -0.0315 4.77031418966
0.0025 -0.0305 4.78232978637
0.0025 -0.0295 4.80182477026
0.0025 -0.0285 4.82447095257
0.0025 -0.0275 4.84745045082
0.0025 -0.0265 4.86891096664
0.0025 -0.0255 4.88744660268
0.0025 -0.0245 4.90191587124
0.0025 -0.0235 4.91151740954
0.0025 -0.0225 4.91621824428
0.0025 -0.0215 4.91705205518
0.0025 -0.0205 4.915565699
0.0025 -0.0195 4.91273634132
0.0025 -0.0185 4.90802377336
0.0025 -0.0175 4.90482109651
0.0025 -0.0165 4.83264685905
0.0025 -0.0155 4.61660209494
0.0025 -0.0145 4.36553888805
0.0025 -0.0135 4.2621941411
0.0025 -0.0125 4.26672215286
0.0025 -0.0115 4.27189391549
0.0025 -0.0105 4.29389594337
0.0025 -0.0095 4.35313148466
0.0025 -0.0085 4.44628802127
0.0025 -0.0075 4.53220719753
0.0025 -0.0065 4.58668880584
0.0025 -0.0055 4.62203123046
0.0025 -0.0045 4.65044730164
0.0025 -0.0035 4.67080362938
0.0025 -0.0025 4.67917582614
0.0025 -0.0015 4.6803193358
0.0025 -0.0005 4.68347354994
0.0025 0.0005 4.69583542708
0.0025 0.0015 4.7185180773
0.0025 0.0025 4.74591884125
0.0025 0.0035 4.76777400243
0.0025 0.0045 4.77239565521
0.0025 0.0055 4.75359754918
0.0025 0.0065 4.71326583745
0.0025 0.0075 4.65481312885
0.0025 0.0085 4.5851410996
0.0025 0.0095 4.51289997777
0.0025 0.0105 4.44298633567
0.0025 0.0115 4.37777476789
0.0025 0.0125 4.31706855275
0.0025 0.0135 4.25955349992
0.0025 0.0145 4.20379627479
0.0025 0.0155 4.14876095981
0.0025 0.0165 4.09383198857
0.0025 0.0175 4.0386999585
0.0025 0.0185 3.98332485067
0.0025 0.0195 3.92793075333
0.0025 0.0205 3.87288949239
0.0025 0.0215 3.81851644763
0.0025 0.0225 3.764905677
0.0025 0.0235 3.71189962595
0.0025 0.0245 3.65917799077
0.0025 0.0255 3.60638956573
0.0025 0.0265 3.55327543653
0.0025 0.0275 3.49980855312
0.0025 0.0285 3.44647344183
0.0025 0.0295 3.39504141081
0.0025 0.0305 3.35039780241
0.0025 0.0315 3.32243316054
0.0035 -0.0315 4.75726099296
0.0035 -0.0305 4.77183773099
0.0035 -0.0295 4.79647944772
0.0035 -0.0285 4.82625338808
0.0035 -0.0275 4.85702717525
0.0035 -0.0265 4.88555138531
0.0035 -0.0255 4.90926502322
0.0035 -0.0245 4.92624530921
0.0035 -0.0235 4.93565434503
0.0035 -0.0225 4.93842168606
0.0035 -0.0215 4.93713257526
0.0035 -0.0205 4.93475579641
0.0035 -0.0195 4.9326593592
0.0035 -0.0185 4.92939361681
0.0035 -0.0175 4.9300619509
0.0035 -0.0165 4.87991921923
0.0035 -0.0155 4.69843388261
0.0035 -0.0145 4.42713948316
0.0035 -0.0135 4.28194726205
0.0035 -0.0125 4.27442089716
0.0035 -0.0115 4.2681003693
0.0035 -0.0105 4.27878259793
0.0035 -0.0095 4.32808920957
0.0035 -0.0085 4.41295262242
0.0035 -0.0075 4.49601884358
0.0035 -0.0065 4.54817970595
0.0035 -0.0055 4.57104610732
0.0035 -0.0045 4.57712649051
0.0035 -0.0035 4.57180623495
0.0035 -0.0025 4.56151238087
0.0035 -0.0015 4.55517948069
0.0035 -0.0005 4.56071052836
0.0035 0.0005 4.58246093433
0.0035 0.0015 4.61962387848
0.0035 0.0025 4.66506908368
0.0035 0.0035 4.70547252615
0.0035 0.0045 4.72255778732
0.0035 0.0055 4.70350356886
0.0035 0.0065 4.65332332391
0.0035 0.0075 4.58809767307
0.0035 0.0085 4.51987311287
0.0035 0.0095 4.45364110608
0.0035 0.0105 4.39094373926
0.0035 0.0115 4.33214162315
0.0035 0.0125 4.27658426854
0.0035 0.0135 4.22279363963
0.0035 0.0145 4.16944071732
0.0035 0.0155 4.11563502046
0.0035 0.0165 4.06088914888
0.0035 0.0175 4.00510769278
0.0035 0.0185 3.94866899125
0.0035 0.0195 3.89227202003
0.0035 0.0205 3.83657735371
0.0035 0.0215 3.78186989579
0.0035 0.0225 3.72796572813
0.0035 0.0235 3.67435004372
0.0035 0.0245 3.62039874002
0.0035 0.0255 3.56558838716
0.0035 0.0265 3.50969051371
0.0035 0.0275 3.45301953698
0.0035 0.0285 3.3968953075
0.0035 0.0295 3.34447592708
0.0035 0.0305 3.30153277026
0.0035 0.0315 3.27616316343
0.0045 -0.0315 4.74269469407
0.0045 -0.0305 4.76058309363
0.0045 -0.0295 4.79135405989
0.0045 -0.0285 4.8292933072
0.0045 -0.0275 4.86911853855
0.0045 -0.0265 4.90615383628
0.0045 -0.0255 4.93649959658
0.0045 -0.0245 4.95732879897
0.0045 -0.0235 4.96758871646
0.0045 -0.0225 4.96868564771
0.0045 -0.0215 4.96423312614
0.0045 -0.0205 4.95926009937
0.0045 -0.0195 4.95696104778
0.0045 -0.0185 4.95554260989
0.0045 -0.0175 4.95926697215
0.0045 -0.0165 4.93639884029
0.0045 -0.0155 4.81738591142
0.0045 -0.0145 4.55794743594
0.0045 -0.0135 4.33438258042
0.0045 -0.0125 4.26817612612
0.0045 -0.0115 4.25204298122
0.0045 -0.0105 4.25481783994
0.0045 -0.0095 4.29741904696
0.0045 -0.0085 4.37595470572
0.0045 -0.0075 4.45275648588
0.0045 -0.0065 4.49509734475
0.0045 -0.0055 4.49820406667
0.0045 -0.0045 4.47843082742
0.0045 -0.0035 4.45231916081
0.0045 -0.0025 4.43086937116
0.0045 -0.0015 4.42062927719
0.0045 -0.0005 4.42581513386
0.0045 0.0005 4.44978465375
0.0045 0.0015 4.49293024146
0.0045 0.0025 4.54833099931
0.0045 0.0035 4.60087713217
0.0045 0.0045 4.62948293282
0.0045 0.0055 4.6170523354
0.0045 0.0065 4.5684338906
0.0045 0.0075 4.50553356918
0.0045 0.0085 4.44426848521
0.0045 0.0095 4.38811728138
0.0045 0.0105 4.33575007097
0.0045 0.0115 4.28561650741
0.0045 0.0125 4.23602547679
0.0045 0.0135 4.1856504637
0.0045 0.0145 4.13358949127
0.0045 0.0155 4.07932575997
0.0045 0.0165 4.02273652945
0.0045 0.0175 3.96450285908
0.0045 0.0185 3.9059527832
0.0045 0.0195 3.84842748726
0.0045 0.0205 3.79259117588
0.0045 0.0215 3.738240592
0.0045 0.0225 3.68457502894
0.0045 0.0235 3.63058680588
0.0045 0.0245 3.57538690142
0.0045 0.0255 3.51846057759
0.0045 0.0265 3.45990354967
0.0045 0.0275 3.40072192408
0.0045 0.0285 3.34322927039
0.0045 0.0295 3.2913567875
0.0045 0.0305 3.25052944484
0.0045 0.0315 3.22721628011
0.0055 -0.0315 4.72638440361
0.0055 -0.0305 4.74807538301
0.0055 -0.0295 4.78573447972
0.0055 -0.0285 4.83271172815
0.0055 -0.0275 4.88258832167
0.0055 -0.0265 4.92931182183
0.0055 -0.0255 4.96761675953
0.0055 -0.0245 4.99366561138
0.0055 -0.0235 5.00579823289
0.0055 -0.0225 5.00522257035
0.0055 -0.0215 4.99624241972
0.0055 -0.0205 4.98604506553
0.0055 -0.0195 4.98089653508
0.0055 -0.0185 4.9804905771
0.0055 -0.0175 4.98416008261
0.0055 -0.0165 4.99593969887
0.0055 -0.0155 4.99004397797
0.0055 -0.0145 4.83087609729
0.0055 -0.0135 4.53440371443
0.0055 -0.0125 4.33290676233
0.0055 -0.0115 4.27056734976
0.0055 -0.0105 4.26838204205
0.0055 -0.0095 4.31137002318
0.0055 -0.0085 4.38216274669
0.0055 -0.0075 4.43900384236
0.0055 -0.0065 4.45286519125
0.0055 -0.0055 4.43036509914
0.0055 -0.0045 4.39483500335
0.0055 -0.0035 4.36390631283
0.0055 -0.0025 4.34362015953
0.0055 -0.0015 4.33437257693
0.0055 -0.0005 4.33579169538
0.0055 0.0005 4.35045777249
0.0055 0.0015 4.38261703564
0.0055 0.0025 4.43147845806
0.0055 0.0035 4.48447641328
0.0055 0.0045 4.5186550869
0.0055 0.0055 4.51518186997
0.0055 0.0065 4.477391594
0.0055 0.0075 4.4256821551
0.0055 0.0085 4.37512956086
0.0055 0.0095 4.3292578604
0.0055 0.0105 4.28715415138
0.0055 0.0115 4.2454687057
0.0055 0.0125 4.20111637116
0.0055 0.0135 4.15307221847
0.0055 0.0145 4.10045150013
0.0055 0.0155 4.04287701733
0.0055 0.0165 3.98132078577
0.0055 0.0175 3.918332043
0.0055 0.0185 3.85689882334
0.0055 0.0195 3.79872929952
0.0055 0.0205 3.74374170135
0.0055 0.0215 3.69065427526
0.0055 0.0225 3.63777879682
0.0055 0.0235 3.58358402273
0.0055 0.0245 3.52705862007
0.0055 0.0255 3.46794716753
0.0055 0.0265 3.40696174044
0.0055 0.0275 3.34595910677
0.0055 0.0285 3.28798657259
0.0055 0.0295 3.23711370152
0.0055 0.0305 3.19814518588
0.0055 0.0315 3.17639466829
0.0065 -0.0315 4.70799819788
0.0065 -0.0305 4.7336886836
0.0065 -0.0295 4.77856484667
0.0065 -0.0285 4.83501570977
0.0065 -0.0275 4.89553777107
0.0065 -0.0265 4.95273075261
0.0065 -0.0255 4.99985597215
0.0065 -0.0245 5.03191552097
0.0065 -0.0235 5.04655733823
0.0065 -0.0225 5.04469211815
0.0065 -0.0215 5.03107983177
0.0065 -0.0205 5.0141220427
0.0065 -0.0195 5.00202711153
0.0065 -0.0185 4.99575734573
0.0065 -0.0175 4.99427304428
0.0065 -0.0165 5.06244730799
0.0065 -0.0155 5.24251149573
0.0065 -0.0145 5.30033115365
0.0065 -0.0135 5.049051106
0.0065 -0.0125 4.71695588666
0.0065 -0.0115 4.52535160445
0.0065 -0.0105 4.46073228344
0.0065 -0.0095 4.4648239064
0.0065 -0.0085 4.48383945083
0.0065 -0.0075 4.47949104241
0.0065 -0.0065 4.44697749147
0.0065 -0.0055 4.40229818188
0.0065 -0.0045 4.36186363804
0.0065 -0.0035 4.33288376984
0.0065 -0.0025 4.31563522819
0.0065 -0.0015 4.30734458234
0.0065 -0.0005 4.30511378378
0.0065 0.0005 4.30876775685
0.0065 0.0015 4.32225400249
0.0065 0.0025 4.35069607483
0.0065 0.0035 4.39005369953
0.0065 0.0045 4.42234594551
0.0065 0.0055 4.42691842782
0.0065 0.0065 4.40054787829
0.0065 0.0075 4.36087120582
0.0065 0.0085 4.32184452685
0.0065 0.0095 4.28606972126
0.0065 0.0105 4.2523853386
0.0065 0.0115 4.21615320496
0.0065 0.0125 4.17442815808
0.0065 0.0135 4.12691719806
0.0065 0.0145 4.07164648666
0.0065 0.0155 4.00730278151
0.0065 0.0165 3.93737566769
0.0065 0.0175 3.86802126649
0.0065 0.0185 3.80395752526
0.0065 0.0195 3.74625065653
0.0065 0.0205 3.69322409594
0.0065 0.0215 3.64214583343
0.0065 0.0225 3.59032305346
0.0065 0.0235 3.53578180203
0.0065 0.0245 3.47758411864
0.0065 0.0255 3.41601747139
0.0065 0.0265 3.35265142855
0.0065 0.0275 3.29015522906
0.0065 0.0285 3.23198153264
0.0065 0.0295 3.18205564999
0.0065 0.0305 3.1445947314
0.0065 0.0315 3.12403562669
0.0075 -0.0315 4.68717412573
0.0075 -0.0305 4.71679654666
0.0075 -0.0295 4.76873119507
0.0075 -0.0285 4.83442962341
0.0075 -0.0275 4.9053888416
0.0075 -0.0265 4.97300002274
0.0075 -0.0255 5.02899733963
0.0075 -0.0245 5.06711283693
0.0075 -0.0235 5.08465068375
0.0075 -0.0225 5.08284861556
0.0075 -0.0215 5.06681843619
0.0075 -0.0205 5.0442079342
0.0075 -0.0195 5.0212304836
0.0075 -0.0185 5.00199498583
0.0075 -0.0175 5.00208628241
0.0075 -0.0165 5.17846779298
0.0075 -0.0155 5.60423371261
0.0075 -0.0145 5.92611862968
0.0075 -0.0135 5.83400170167
0.0075 -0.0125 5.47308352009
0.0075 -0.0115 5.13147484012
0.0075 -0.0105 4.91398594248
0.0075 -0.0095 4.77577436877
0.0075 -0.0085 4.66296124529
0.0075 -0.0075 4.56367331666
0.0075 -0.0065 4.4829205938
0.0075 -0.0055 4.41824459551
0.0075 -0.0045 4.36992284084
0.0075 -0.0035 4.33690295416
0.0075 -0.0025 4.31690262753
0.0075 -0.0015 4.30643317231
0.0075 -0.0005 4.30177980153
0.0075 0.0005 4.30050341747
0.0075 0.0015 4.30311557545
0.0075 0.0025 4.31351575056
0.0075 0.0035 4.33433362165
0.0075 0.0045 4.35844525981
0.0075 0.0055 4.3683002334
0.0075 0.0065 4.35189488165
0.0075 0.0075 4.31992242595
0.0075 0.0085 4.2881643004
0.0075 0.0095 4.25988280159
0.0075 0.0105 4.23181865006
0.0075 0.0115 4.19825183607
0.0075 0.0125 4.15631536006
0.0075 0.0135 4.1059778052
0.0075 0.0145 4.04459434295
0.0075 0.0155 3.97038394324
0.0075 0.0165 3.89067547253
0.0075 0.0175 3.81594918158
0.0075 0.0185 3.75081099475
0.0075 0.0195 3.6946951066
0.0075 0.0205 3.64430317261
0.0075 0.0215 3.59538197736
0.0075 0.0225 3.54430609055
0.0075 0.0235 3.48874968466
0.0075 0.0245 3.42807493419
0.0075 0.0255 3.3634931244
0.0075 0.0265 3.29758906581
0.0075 0.0275 3.23367368881
0.0075 0.0285 3.17532820367
0.0075 0.0295 3.12618478575
0.0075 0.0305 3.08990512146
0.0075 0.0315 3.0702277975
0.0085 -0.0315 4.66354038748
0.0085 -0.0305 4.6968296372
0.0085 -0.0295 4.75520112352
0.0085 -0.0285 4.82915154098
0.0085 -0.0275 4.90925242058
0.0085 -0.0265 4.98587670291
0.0085 -0.0255 5.04967736843
0.0085 -0.0245 5.09352049461
0.0085 -0.0235 5.11484555733
0.0085 -0.0225 5.1161191041
0.0085 -0.0215 5.10171149126
0.0085 -0.0205 5.07523176297
0.0085 -0.0195 5.04399613787
0.0085 -0.0185 5.01974208396
0.0085 -0.0175 5.06461486754
0.0085 -0.0165 5.39997155087
0.0085 -0.0155 6.03535049568
0.0085 -0.0145 6.54059355559
0.0085 -0.0135 6.59052240527
0.0085 -0.0125 6.26293789949
0.0085 -0.0115 5.82712818914
0.0085 -0.0105 5.44331690412
0.0085 -0.0095 5.11989433277
0.0085 -0.0085 4.85392563123
0.0085 -0.0075 4.66301841716
0.0085 -0.0065 4.53969373232
0.0085 -0.0055 4.45572652466
0.0085 -0.0045 4.39518014685
0.0085 -0.0035 4.35225690768
0.0085 -0.0025 4.32464223839
0.0085 -0.0015 4.30932908494
0.0085 -0.0005 4.30227054638
0.0085 0.0005 4.29947897479
0.0085 0.0015 4.29874955449
0.0085 0.0025 4.30087012465
0.0085 0.0035 4.30951929114
0.0085 0.0045 4.32550112676
0.0085 0.0055 4.34031043712
0.0085 0.0065 4.33740195699
0.0085 0.0075 4.31316427624
0.0085 0.0085 4.28158193804
0.0085 0.0095 4.25193164752
0.0085 0.0105 4.22315422148
0.0085 0.0115 4.18895127722
0.0085 0.0125 4.14396156146
0.0085 0.0135 4.08619008838
0.0085 0.0145 4.01386965143
0.0085 0.0155 3.92804832172
0.0085 0.0165 3.84023014026
0.0085 0.0175 3.76369126289
0.0085 0.0185 3.70056680978
0.0085 0.0195 3.64725542334
0.0085 0.0205 3.59936997867
0.0085 0.0215 3.55191814023
0.0085 0.0225 3.50058219407
0.0085 0.0235 3.44264416393
0.0085 0.0245 3.37831652858
0.0085 0.0255 3.31013917343
0.0085 0.0265 3.24164044778
0.0085 0.0275 3.1764564069
0.0085 0.0285 3.11800720258
0.0085 0.0295 3.06950644735
0.0085 0.0305 3.03410187287
0.0085 0.0315 3.01501156546
0.0095 -0.0315 4.63669031668
0.0095 -0.0305 4.67325543856
0.0095 -0.0295 4.73708736415
0.0095 -0.0285 4.81754954779
0.0095 -0.0275 4.90434768322
0.0095 -0.0265 4.98719030925
0.0095 -0.0255 5.05646174945
0.0095 -0.0245 5.10614158771
0.0095 -0.0235 5.13387792207
0.0095 -0.0225 5.14262755551
0.0095 -0.0215 5.13642469214
0.0095 -0.0205 5.11169698991
0.0095 -0.0195 5.07630724299
0.0095 -0.0185 5.06592624523
0.0095 -0.0175 5.18981078009
0.0095 -0.0165 5.63443446203
0.0095 -0.0155 6.33983331271
0.0095 -0.0145 6.89639868987
0.0095 -0.0135 7.00601568477
0.0095 -0.0125 6.72030818875
0.0095 -0.0115 6.26487059563
0.0095 -0.0105 5.8038425976
0.0095 -0.0095 5.38234810977
0.0095 -0.0085 5.02826464962
0.0095 -0.0075 4.77156797686
0.0095 -0.0065 4.60638349023
0.0095 -0.0055 4.50125588356
0.0095 -0.0045 4.42695557665
0.0095 -0.0035 4.37160390974
0.0095 -0.0025 4.33397121463
0.0095 -0.0015 4.3122176435
0.0095 -0.0005 4.30215623018
0.0095 0.0005 4.29831676615
0.0095 0.0015 4.29661986461
0.0095 0.0025 4.29602174711
0.0095 0.0035 4.29905945633
0.0095 0.0045 4.31144005407
0.0095 0.0055 4.33417856071
0.0095 0.0065 4.35193432224
0.0095 0.0075 4.34582935231
0.0095 0.0085 4.31622630919
0.0095 0.0095 4.27554032432
0.0095 0.0105 4.23212018095
0.0095 0.0115 4.18537929396
0.0095 0.0125 4.12959717007
0.0095 0.0135 4.06006580991
0.0095 0.0145 3.97482537756
0.0095 0.0155 3.87959238087
0.0095 0.0165 3.78933430628
0.0095 0.0175 3.71483921389
0.0095 0.0185 3.65444521608
0.0095 0.0195 3.60384509683
0.0095 0.0205 3.55825895243
0.0095 0.0215 3.51123201551
0.0095 0.0225 3.45777379323
0.0095 0.0235 3.39571677607
0.0095 0.0245 3.32686430877
0.0095 0.0255 3.25509147077
0.0095 0.0265 3.18446935048
0.0095 0.0275 3.11849042312
0.0095 0.0285 3.06013382366
0.0095 0.0295 3.01215198731
0.0095 0.0305 2.97730430456
0.0095 0.0315 2.95853852435
0.0105 -0.0315 4.60614194497
0.0105 -0.0305 4.64548274225
0.0105 -0.0295 4.71356720421
0.0105 -0.0285 4.79833123804
0.0105 -0.0275 4.88844417142
0.0105 -0.0265 4.97356148402
0.0105 -0.0255 5.04523440584
0.0105 -0.0245 5.1003338807
0.0105 -0.0235 5.1381559317
0.0105 -0.0225 5.16106917253
0.0105 -0.0215 5.16498047217
0.0105 -0.0205 5.13877039076
0.0105 -0.0195 5.09574564697
0.0105 -0.0185 5.09318176564
0.0105 -0.0175 5.23824120632
0.0105 -0.0165 5.65260389613
0.0105 -0.0155 6.2934898798
0.0105 -0.0145 6.82657243167
0.0105 -0.0135 6.97580887168
0.0105 -0.0125 6.77858556807
0.0105 -0.0115 6.40102503853
0.0105 -0.0105 5.97763081515
0.0105 -0.0095 5.56185875133
0.0105 -0.0085 5.18726185279
0.0105 -0.0075 4.89332043545
0.0105 -0.0065 4.68856019066
0.0105 -0.0055 4.55282652
0.0105 -0.0045 4.45859782275
0.0105 -0.0035 4.38969676529
0.0105 -0.0025 4.34206757218
0.0105 -0.0015 4.31369406279
0.0105 -0.0005 4.30029734676
0.0105 0.0005 4.29535449295
0.0105 0.0015 4.29345513435
0.0105 0.0025 4.29219486341
0.0105 0.0035 4.29334892642
0.0105 0.0045 4.30592166212
0.0105 0.0055 4.33906022278
0.0105 0.0065 4.38238865162
0.0105 0.0075 4.40681323838
0.0105 0.0085 4.39218838493
0.0105 0.0095 4.34016627038
0.0105 0.0105 4.26521484869
0.0105 0.0115 4.18214901341
0.0105 0.0125 4.09844183695
0.0105 0.0135 4.0126766628
0.0105 0.0145 3.92029740055
0.0105 0.0155 3.82576297631
0.0105 0.0165 3.74085365135
0.0105 0.0175 3.67045320924
0.0105 0.0185 3.61215559691
0.0105 0.0195 3.56341690842
0.0105 0.0205 3.51861876758
0.0105 0.0215 3.46956485857
0.0105 0.0225 3.41163452114
0.0105 0.0235 3.34461954151
0.0105 0.0245 3.2716614072
0.0105 0.0255 3.19749931643
0.0105 0.0265 3.12600998424
0.0105 0.0275 3.06004768073
0.0105 0.0285 3.00203753036
0.0105 0.0295 2.95438660479
0.0105 0.0305 2.91971065302
0.0105 0.0315 2.90098437258
0.0115 -0.0315 4.57132003247
0.0115 -0.0305 4.61275201664
0.0115 -0.0295 4.68368220426
0.0115 -0.0285 4.77041953582
0.0115 -0.0275 4.86034391192
0.0115 -0.0265 4.94312115519
0.0115 -0.0255 5.01353423981
0.0115 -0.0245 5.07113417288
0.0115 -0.0235 5.11991597836
0.0115 -0.0225 5.1564349163
0.0115 -0.0215 5.15716541828
0.0115 -0.0205 5.11133875541
0.0115 -0.0195 5.04840718658
0.0115 -0.0185 5.03083819192
0.0115 -0.0175 5.13630223555
0.0115 -0.0165 5.44688944713
0.0115 -0.0155 5.95099734559
0.0115 -0.0145 6.41908221255
0.0115 -0.0135 6.64068971446
0.0115 -0.0125 6.59834913148
0.0115 -0.0115 6.36278408469
0.0115 -0.0105 6.03107673635
0.0115 -0.0095 5.66532539967
0.0115 -0.0085 5.30869766168
0.0115 -0.0075 5.00477616833
0.0115 -0.0065 4.77260968411
0.0115 -0.0055 4.6052833682
0.0115 -0.0045 4.48620850132
0.0115 -0.0035 4.4018946067
0.0115 -0.0025 4.34491414455
0.0115 -0.0015 4.31082197929
0.0115 -0.0005 4.29453994645
0.0115 0.0005 4.2891156306
0.0115 0.0015 4.28806552062
0.0115 0.0025 4.28770101152
0.0115 0.0035 4.28905651849
0.0115 0.0045 4.30302384026
0.0115 0.0055 4.34627278633
0.0115 0.0065 4.41410411811
0.0115 0.0075 4.47114591734
0.0115 0.0085 4.47950426945
0.0115 0.0095 4.42208967404
0.0115 0.0105 4.3084772576
0.0115 0.0115 4.17179925606
0.0115 0.0125 4.04508447592
0.0115 0.0135 3.93732470911
0.0115 0.0145 3.84247272058
0.0115 0.0155 3.75783805209
0.0115 0.0165 3.68509186308
0.0115 0.0175 3.62355617488
0.0115 0.0185 3.57036095581
0.0115 0.0195 3.52276526193
0.0115 0.0205 3.47568596289
0.0115 0.0215 3.42093913605
0.0115 0.0225 3.35662472766
0.0115 0.0235 3.28568745715
0.0115 0.0245 3.2110930225
0.0115 0.0255 3.13716668304
0.0115 0.0265 3.06669096367
0.0115 0.0275 3.00169700849
0.0115 0.0285 2.94420000255
0.0115 0.0295 2.89652702558
0.0115 0.0305 2.86147952001
0.0115 0.0315 2.84238974886
0.0125 -0.0315 4.53163119258
0.0125 -0.0305 4.57409768621
0.0125 -0.0295 4.64615996545
0.0125 -0.0285 4.73262645837
0.0125 -0.0275 4.81949325089
0.0125 -0.0265 4.89656502235
0.0125 -0.0255 4.96199423758
0.0125 -0.0245 5.01839196608
0.0125 -0.0235 5.07049297053
0.0125 -0.0225 5.10355131913
0.0125 -0.0215 5.08432598576
0.0125 -0.0205 5.01205844311
0.0125 -0.0195 4.93424713493
0.0125 -0.0185 4.91670908432
0.0125 -0.0175 4.99863702238
0.0125 -0.0165 5.21334556886
0.0125 -0.0155 5.57247488944
0.0125 -0.0145 5.95447495839
0.0125 -0.0135 6.21535021405
0.0125 -0.0125 6.29713292767
0.0125 -0.0115 6.19788154246
0.0125 -0.0105 5.97038081281
0.0125 -0.0095 5.67643906281
0.0125 -0.0085 5.3664589244
0.0125 -0.0075 5.07875933389
0.0125 -0.0065 4.83689913339
0.0125 -0.0055 4.64792002654
0.0125 -0.0045 4.50732341752
0.0125 -0.0035 4.40709457595
0.0125 -0.0025 4.34010332411
0.0125 -0.0015 4.3004960497
0.0125 -0.0005 4.28214161727
0.0125 0.0005 4.27761627591
0.0125 0.0015 4.27914464102
0.0125 0.0025 4.28155106716
0.0125 0.0035 4.28486619939
0.0125 0.0045 4.30050889921
0.0125 0.0055 4.34964404103
0.0125 0.0065 4.43124943407
0.0125 0.0075 4.50790077449
0.0125 0.0085 4.53244084208
0.0125 0.0095 4.47445341908
0.0125 0.0105 4.33504221501
0.0125 0.0115 4.15614775191
0.0125 0.0125 3.99196560345
0.0125 0.0135 3.86094621829
0.0125 0.0145 3.75595239599
0.0125 0.0155 3.67325811839
0.0125 0.0165 3.61114918166
0.0125 0.0175 3.56292427708
0.0125 0.0185 3.5190675837
0.0125 0.0195 3.47280075936
0.0125 0.0205 3.4203434762
0.0125 0.0215 3.35816185951
0.0125 0.0225 3.28871156769
0.0125 0.0235 3.21709184518
0.0125 0.0245 3.14518438629
0.0125 0.0255 3.07483701917
0.0125 0.0265 3.00735779626
0.0125 0.0275 2.94414122982
0.0125 0.0285 2.88708050677
0.0125 0.0295 2.83878557096
0.0125 0.0305 2.80262266896
0.0125 0.0315 2.78264664946
0.0135 -0.0315 4.48664631829
0.0135 -0.0305 4.5285428489
0.0135 -0.0295 4.59939469898
0.0135 -0.0285 4.68340769069
0.0135 -0.0275 4.76535168149
0.0135 -0.0265 4.83562867736
0.0135 -0.0255 4.89359670767
0.0135 -0.0245 4.94502496186
0.0135 -0.0235 4.98967152742
0.0135 -0.0225 5.00368741662
0.0135 -0.0215 4.96158364131
0.0135 -0.0205 4.87989104168
0.0135 -0.0195 4.81830463215
0.0135 -0.0185 4.8229106979
0.0135 -0.0175 4.89537461887
0.0135 -0.0165 5.04307843732
0.0135 -0.0155 5.28790190289
0.0135 -0.0145 5.57885561141
0.0135 -0.0135 5.81796976814
0.0135 -0.0125 5.94576569939
0.0135 -0.0115 5.93958865473
0.0135 -0.0105 5.81201602539
0.0135 -0.0095 5.60167827667
0.0135 -0.0085 5.35202475801
0.0135 -0.0075 5.09862411354
0.0135 -0.0065 4.86667648015
0.0135 -0.0055 4.67077262703
0.0135 -0.0045 4.51638004419
0.0135 -0.0035 4.40273569214
0.0135 -0.0025 4.32605765158
0.0135 -0.0015 4.28110381847
0.0135 -0.0005 4.26137781828
0.0135 0.0005 4.2590260467
0.0135 0.0015 4.26471543076
0.0135 0.0025 4.27151126388
0.0135 0.0035 4.27837978264
0.0135 0.0045 4.29553588597
0.0135 0.0055 4.3429994184
0.0135 0.0065 4.42060741197
0.0135 0.0075 4.49479338181
0.0135 0.0085 4.52259816497
0.0135 0.0095 4.47267258233
0.0135 0.0105 4.33408574488
0.0135 0.0115 4.13944007829
0.0135 0.0125 3.95168628181
0.0135 0.0135 3.80026555647
0.0135 0.0145 3.68082821596
0.0135 0.0155 3.58963556256
0.0135 0.0165 3.52546755652
0.0135 0.0175 3.48259653287
0.0135 0.0185 3.44665980409
0.0135 0.0195 3.40254130943
0.0135 0.0205 3.34478218799
0.0135 0.0215 3.27755339797
0.0135 0.0225 3.20830097805
0.0135 0.0235 3.14115845754
0.0135 0.0245 3.07602303502
0.0135 0.0255 3.01199974739
0.0135 0.0265 2.94900206399
0.0135 0.0275 2.88792357103
0.0135 0.0285 2.8308604037
0.0135 0.0295 2.78109883767
0.0135 0.0305 2.74294222851
0.0135 0.0315 2.72150198024
0.0145 -0.0315 4.436266933
0.0145 -0.0305 4.47549861646
0.0145 -0.0295 4.54196340533
0.0145 -0.0285 4.62079243789
0.0145 -0.0275 4.69705845147
0.0145 -0.0265 4.7617340633
0.0145 -0.0255 4.81275901534
0.0145 -0.0245 4.85562193523
0.0145 -0.0235 4.88706412348
0.0145 -0.0225 4.88257638079
0.0145 -0.0215 4.82997363586
0.0145 -0.0205 4.76334560384
0.0145 -0.0195 4.73380196883
0.0145 -0.0185 4.75334898789
0.0145 -0.0175 4.81221729531
0.0145 -0.0165 4.91967980642
0.0145 -0.0155 5.08456949065
0.0145 -0.0145 5.28608068805
0.0145 -0.0135 5.47702814289
0.0145 -0.0125 5.60672399654
0.0145 -0.0115 5.64562304274
0.0145 -0.0105 5.59013726062
0.0145 -0.0095 5.45561659508
0.0145 -0.0085 5.26916246302
0.0145 -0.0075 5.05983193406
0.0145 -0.0065 4.85206956209
0.0145 -0.0055 4.66381781419
0.0145 -0.0045 4.5064243459
0.0145 -0.0035 4.38542710716
0.0145 -0.0025 4.30175975142
0.0145 -0.0015 4.25271297511
0.0145 -0.0005 4.23238462767
0.0145 0.0005 4.23252074615
0.0145 0.0015 4.2426284566
0.0145 0.0025 4.25435593573
0.0145 0.0035 4.26504983863
0.0145 0.0045 4.28189328638
0.0145 0.0055 4.31978888393
0.0145 0.0065 4.37935201043
0.0145 0.0075 4.43695433308
0.0145 0.0085 4.46253440003
0.0145 0.0095 4.42583881335
0.0145 0.0105 4.30315963538
0.0145 0.0115 4.11353845417
0.0145 0.0125 3.91375487657
0.0145 0.0135 3.74363305041
0.0145 0.0145 3.61217391086
0.0145 0.0155 3.5143437292
0.0145 0.0165 3.44237406405
0.0145 0.0175 3.39282368933
0.0145 0.0185 3.35543172922
0.0145 0.0195 3.31147698828
0.0145 0.0205 3.25321983843
0.0145 0.0215 3.18746717048
0.0145 0.0225 3.12324064629
0.0145 0.0235 3.06372278797
0.0145 0.0245 3.00700470917
0.0145 0.0255 2.95043263146
0.0145 0.0265 2.8923077481
0.0145 0.0275 2.83303808058
0.0145 0.0285 2.77516216569
0.0145 0.0295 2.72297628366
0.0145 0.0305 2.68197325133
0.0145 0.0315 2.65855639723
0.0155 -0.0315 4.38077397001
0.0155 -0.0305 4.41509542527
0.0155 -0.0295 4.47349467569
0.0155 -0.0285 4.54347396178
0.0155 -0.0275 4.61261069251
0.0155 -0.0265 4.67265547221
0.0155 -0.0255 4.71929698438
0.0155 -0.0245 4.75437658127
0.0155 -0.0235 4.77351891061
0.0155 -0.0225 4.76040943583
0.0155 -0.0215 4.71595196217
0.0155 -0.0205 4.67586468606
0.0155 -0.0195 4.66995181029
0.0155 -0.0185 4.69385300152
0.0155 -0.0175 4.74084356225
0.0155 -0.0165 4.81857793542
0.0155 -0.0155 4.92996115318
0.0155 -0.0145 5.06384169095
0.0155 -0.0135 5.1992492234
0.0155 -0.0125 5.30585580247
0.0155 -0.0115 5.35753160741
0.0155 -0.0105 5.34265961525
0.0155 -0.0095 5.2634345187
0.0155 -0.0085 5.13252167525
0.0155 -0.0075 4.96901426736
0.0155 -0.0065 4.79328883961
0.0155 -0.0055 4.62331469077
0.0155 -0.0045 4.47315492389
0.0155 -0.0035 4.35255325457
0.0155 -0.0025 4.2667713879
0.0155 -0.0015 4.21634241332
0.0155 -0.0005 4.19674808983
0.0155 0.0005 4.19907477023
0.0155 0.0015 4.21229278954
0.0155 0.0025 4.22752199974
0.0155 0.0035 4.24001459036
0.0155 0.0045 4.25318013625
0.0155 0.0055 4.27746426072
0.0155 0.0065 4.31650612501
0.0155 0.0075 4.35856557356
0.0155 0.0085 4.38159557957
0.0155 0.0095 4.35257892455
0.0155 0.0105 4.24505536516
0.0155 0.0115 4.07062450308
0.0155 0.0125 3.870987221
0.0155 0.0135 3.68784027846
0.0155 0.0145 3.54407560867
0.0155 0.0155 3.44014957327
0.0155 0.0165 3.36419593723
0.0155 0.0175 3.30757447334
0.0155 0.0185 3.26271018919
0.0155 0.0195 3.21560092917
0.0155 0.0205 3.15989212932
0.0155 0.0215 3.10085941259
0.0155 0.0225 3.04372699719
0.0155 0.0235 2.99105232099
0.0155 0.0245 2.94153625123
0.0155 0.0255 2.89129352713
0.0155 0.0265 2.83705238287
0.0155 0.0275 2.77851793352
0.0155 0.0285 2.71882826391
0.0155 0.0295 2.66335398424
0.0155 0.0305 2.61893192067
0.0155 0.0315 2.59329000434
0.0165 -0.0315 4.32076804171
0.0165 -0.0305 4.3482651851
0.0165 -0.0295 4.39526837281
0.0165 -0.0285 4.45242584968
0.0165 -0.0275 4.51083172776
0.0165 -0.0265 4.5643213898
0.0165 -0.0255 4.6078462044
0.0165 -0.0245 4.63931419617
0.0165 -0.0235 4.65440903768
0.0165 -0.0225 4.64588116792
0.0165 -0.0215 4.62204186083
0.0165 -0.0205 4.60682873283
0.0165 -0.0195 4.61293122789
0.0165 -0.0185 4.63554859562
0.0165 -0.0175 4.67307802801
0.0165 -0.0165 4.72905267251
0.0165 -0.0155 4.80271065536
0.0165 -0.0145 4.88855923279
0.0165 -0.0135 4.97643470617