% Model:              Benchmark260518.mph
% Version:            COMSOL 6.2.0.339
% Date:               May 20 2026, 00:59
% Dimension:          2
% Nodes:              4096
% Expressions:        1
% Description:        压力
% Length unit:        m
% x                       y                        p (Pa)
% mirrored_by_python_y_to_minus_y, coord_match_decimals=12
0.0005 -0.0315 3.91634971293
0.0005 -0.0305 3.9318711015
0.0005 -0.0295 3.95326595017
0.0005 -0.0285 3.97694785775
0.0005 -0.0275 4.00193021077
0.0005 -0.0265 4.02772375616
0.0005 -0.0255 4.05398317412
0.0005 -0.0245 4.0804115754
0.0005 -0.0235 4.10677742932
0.0005 -0.0225 4.13290106045
0.0005 -0.0215 4.15859756788
0.0005 -0.0205 4.18367866022
0.0005 -0.0195 4.20792359515
0.0005 -0.0185 4.23109082071
0.0005 -0.0175 4.25290298991
0.0005 -0.0165 4.27301352207
0.0005 -0.0155 4.291028426
0.0005 -0.0145 4.30646105777
0.0005 -0.0135 4.31871309123
0.0005 -0.0125 4.32710751897
0.0005 -0.0115 4.33095212855
0.0005 -0.0105 4.32969294928
0.0005 -0.0095 4.32321472773
0.0005 -0.0085 4.31229512724
0.0005 -0.0075 4.29879242963
0.0005 -0.0065 4.28482761577
0.0005 -0.0055 4.27291714485
0.0005 -0.0045 4.26514327268
0.0005 -0.0035 4.26286390542
0.0005 -0.0025 4.26910473725
0.0005 -0.0015 4.31871008164
0.0005 -0.0005 4.50699080908
0.0005 0.0005 4.72729351589
0.0005 0.0015 4.81383199959
0.0005 0.0025 4.82901348912
0.0005 0.0035 4.8380307953
0.0005 0.0045 4.84800976538
0.0005 0.0055 4.85968018968
0.0005 0.0065 4.86970750329
0.0005 0.0075 4.87288439026
0.0005 0.0085 4.86611483918
0.0005 0.0095 4.84861154304
0.0005 0.0105 4.82177168414
0.0005 0.0115 4.78794501793
0.0005 0.0125 4.74972569865
0.0005 0.0135 4.70950658681
0.0005 0.0145 4.66875087804
0.0005 0.0155 4.6279704408
0.0005 0.0165 4.58746593185
0.0005 0.0175 4.54738451723
0.0005 0.0185 4.50773009723
0.0005 0.0195 4.4685667913
0.0005 0.0205 4.42993101203
0.0005 0.0215 4.39185553557
0.0005 0.0225 4.35439312029
0.0005 0.0235 4.3175757481
0.0005 0.0245 4.28142312497
0.0005 0.0255 4.24594743402
0.0005 0.0265 4.21119764707
0.0005 0.0275 4.17727505204
0.0005 0.0285 4.1443449332
0.0005 0.0295 4.11285534211
0.0005 0.0305 4.08413105938
0.0005 0.0315 4.06316175192
0.0015 -0.0315 3.90096627273
0.0015 -0.0305 3.916787389
0.0015 -0.0295 3.94012263409
0.0015 -0.0285 3.96618368017
0.0015 -0.0275 3.99354597445
0.0015 -0.0265 4.02169504265
0.0015 -0.0255 4.05033983908
0.0015 -0.0245 4.07926177465
0.0015 -0.0235 4.10827832979
0.0015 -0.0225 4.13722480334
0.0015 -0.0215 4.16593082136
0.0015 -0.0205 4.19419152045
0.0015 -0.0195 4.22176554459
0.0015 -0.0185 4.24837821136
0.0015 -0.0175 4.27370869927
0.0015 -0.0165 4.29739612571
0.0015 -0.0155 4.31899119648
0.0015 -0.0145 4.33788648478
0.0015 -0.0135 4.35328853787
0.0015 -0.0125 4.36416703864
0.0015 -0.0115 4.36925242859
0.0015 -0.0105 4.36723168255
0.0015 -0.0095 4.35719269816
0.0015 -0.0085 4.33960785998
0.0015 -0.0075 4.31748766899
0.0015 -0.0065 4.29531863267
0.0015 -0.0055 4.27801536376
0.0015 -0.0045 4.26674675934
0.0015 -0.0035 4.26043481023
0.0015 -0.0025 4.24849598656
0.0015 -0.0015 4.29553916555
0.0015 -0.0005 4.50442150318
0.0015 0.0005 4.7370361014
0.0015 0.0015 4.82406229549
0.0015 0.0025 4.83447670753
0.0015 0.0035 4.84288336849
0.0015 0.0045 4.85481670804
0.0015 0.0055 4.87303685231
0.0015 0.0065 4.89145407655
0.0015 0.0075 4.90100902548
0.0015 0.0085 4.89643832054
0.0015 0.0095 4.87716392853
0.0015 0.0105 4.84531345483
0.0015 0.0115 4.80460784374
0.0015 0.0125 4.75925744807
0.0015 0.0135 4.71275518513
0.0015 0.0145 4.6671623227
0.0015 0.0155 4.62310591619
0.0015 0.0165 4.58044989443
0.0015 0.0175 4.53887912331
0.0015 0.0185 4.49816764069
0.0015 0.0195 4.45822272411
0.0015 0.0205 4.41902832101
0.0015 0.0215 4.38057341791
0.0015 0.0225 4.34281851868
0.0015 0.0235 4.30569696532
0.0015 0.0245 4.26912302419
0.0015 0.0255 4.23301665105
0.0015 0.0265 4.19732723472
0.0015 0.0275 4.1620497971
0.0015 0.0285 4.12731685005
0.0015 0.0295 4.0936852993
0.0015 0.0305 4.0630917276
0.0015 0.0315 4.0421148708
0.0025 -0.0315 3.87979082687
0.0025 -0.0305 3.89479366012
0.0025 -0.0295 3.9191827099
0.0025 -0.0285 3.94804331188
0.0025 -0.0275 3.97895100731
0.0025 -0.0265 4.01097728662
0.0025 -0.0255 4.04374583737
0.0025 -0.0245 4.07706257715
0.0025 -0.0235 4.11079041131
0.0025 -0.0225 4.14479355738
0.0025 -0.0215 4.17890092682
0.0025 -0.0205 4.21287937283
0.0025 -0.0195 4.24642359966
0.0025 -0.0185 4.27916137303
0.0025 -0.0175 4.31067190564
0.0025 -0.0165 4.34047658854
0.0025 -0.0155 4.36798444154
0.0025 -0.0145 4.39238646028
0.0025 -0.0135 4.41252707939
0.0025 -0.0125 4.42685195362
0.0025 -0.0115 4.43338632538
0.0025 -0.0105 4.42992957021
0.0025 -0.0095 4.41480709206
0.0025 -0.0085 4.38810560654
0.0025 -0.0075 4.35361036878
0.0025 -0.0065 4.31864210537
0.0025 -0.0055 4.29199880163
0.0025 -0.0045 4.27541236382
0.0025 -0.0035 4.26381052011
0.0025 -0.0025 4.25505611651
0.0025 -0.0015 4.33820886244
0.0025 -0.0005 4.56401829952
0.0025 0.0005 4.77013921757
0.0025 0.0015 4.83933430644
0.0025 0.0025 4.84384251492
0.0025 0.0035 4.85089250769
0.0025 0.0045 4.86797859281
0.0025 0.0055 4.89648095325
0.0025 0.0065 4.92462600065
0.0025 0.0075 4.93939712201
0.0025 0.0085 4.935171074
0.0025 0.0095 4.9124276289
0.0025 0.0105 4.87351778153
0.0025 0.0115 4.82334686677
0.0025 0.0125 4.76823413774
0.0025 0.0135 4.71331195923
0.0025 0.0145 4.66118020325
0.0025 0.0155 4.61234250635
0.0025 0.0165 4.56623697532
0.0025 0.0175 4.52212129723
0.0025 0.0185 4.47954216284
0.0025 0.0195 4.43829189441
0.0025 0.0205 4.3982418231
0.0025 0.0215 4.35923753899
0.0025 0.0225 4.32106948283
0.0025 0.0235 4.28349308974
0.0025 0.0245 4.24626358723
0.0025 0.0255 4.20916851349
0.0025 0.0265 4.17206138161
0.0025 0.0275 4.13493813839
0.0025 0.0285 4.09812494386
0.0025 0.0295 4.06279203687
0.0025 0.0305 4.03221935108
0.0025 0.0315 4.01310941022
0.0035 -0.0315 3.85633285153
0.0035 -0.0305 3.87052647003
0.0035 -0.0295 3.89506770262
0.0035 -0.0285 3.92599578613
0.0035 -0.0275 3.96050681136
0.0035 -0.0265 3.99706474342
0.0035 -0.0255 4.03497121511
0.0035 -0.0245 4.07391658759
0.0035 -0.0235 4.11374053608
0.0035 -0.0225 4.15431210032
0.0035 -0.0215 4.19545489032
0.0035 -0.0205 4.23689460017
0.0035 -0.0195 4.2782274213
0.0035 -0.0185 4.31892016442
0.0035 -0.0175 4.35832833517
0.0035 -0.0165 4.39570248279
0.0035 -0.0155 4.43015118891
0.0035 -0.0145 4.4605232776
0.0035 -0.0135 4.48522339254
0.0035 -0.0125 4.50211944122
0.0035 -0.0115 4.50880390188
0.0035 -0.0105 4.5028367429
0.0035 -0.0095 4.48245281217
0.0035 -0.0085 4.44806981104
0.0035 -0.0075 4.40329552939
0.0035 -0.0065 4.35554888503
0.0035 -0.0055 4.31690741128
0.0035 -0.0045 4.29373412435
0.0035 -0.0035 4.28065183432
0.0035 -0.0025 4.27268175448
0.0035 -0.0015 4.41124653442
0.0035 -0.0005 4.67720739048
0.0035 0.0005 4.82799793576
0.0035 0.0015 4.84675578821
0.0035 0.0025 4.84113519688
0.0035 0.0035 4.85204569813
0.0035 0.0045 4.88186978328
0.0035 0.0055 4.92485770568
0.0035 0.0065 4.96002535369
0.0035 0.0075 4.97323553209
0.0035 0.0085 4.96370988484
0.0035 0.0095 4.9350618008
0.0035 0.0105 4.88875205213
0.0035 0.0115 4.82988388977
0.0035 0.0125 4.76682824697
0.0035 0.0135 4.70534377301
0.0035 0.0145 4.64792112586
0.0035 0.0155 4.5946811506
0.0035 0.0165 4.54481483686
0.0035 0.0175 4.49767926267
0.0035 0.0185 4.45291582266
0.0035 0.0195 4.41025486489
0.0035 0.0205 4.36938692653
0.0035 0.0215 4.32991893235
0.0035 0.0225 4.2914015649
0.0035 0.0235 4.25338025737
0.0035 0.0245 4.21544774442
0.0035 0.0255 4.17729772919
0.0035 0.0265 4.13880166343
0.0035 0.0275 4.10015153957
0.0035 0.0285 4.06216295009
0.0035 0.0295 4.0268565269
0.0035 0.0305 3.99802017873
0.0035 0.0315 3.98101970892
0.0045 -0.0315 3.83148582206
0.0045 -0.0305 3.84525922987
0.0045 -0.0295 3.86993617942
0.0045 -0.0285 3.90241295118
0.0045 -0.0275 3.94012672234
0.0045 -0.0265 3.98124858416
0.0045 -0.0255 4.02469597485
0.0045 -0.0245 4.06990958968
0.0045 -0.0235 4.11660490947
0.0045 -0.0225 4.16459927122
0.0045 -0.0215 4.21369067673
0.0045 -0.0205 4.26355968638
0.0045 -0.0195 4.31369221437
0.0045 -0.0185 4.36333560683
0.0045 -0.0175 4.4114967821
0.0045 -0.0165 4.45695681957
0.0045 -0.0155 4.49826665135
0.0045 -0.0145 4.53369861012
0.0045 -0.0135 4.56116675406
0.0045 -0.0125 4.57819736507
0.0045 -0.0115 4.58225038505
0.0045 -0.0105 4.57192178857
0.0045 -0.0095 4.54694581989
0.0045 -0.0085 4.5083560929
0.0045 -0.0075 4.45887391891
0.0045 -0.0065 4.40340481876
0.0045 -0.0055 4.35385470354
0.0045 -0.0045 4.3190375727
0.0045 -0.0035 4.30006996265
0.0045 -0.0025 4.32731056708
0.0045 -0.0015 4.58914281922
0.0045 -0.0005 4.91709125409
0.0045 0.0005 4.95976140603
0.0045 0.0015 4.86219982809
0.0045 0.0025 4.82262764908
0.0045 0.0035 4.84216759843
0.0045 0.0045 4.89084255668
0.0045 0.0055 4.94988290492
0.0045 0.0065 4.98900646712
0.0045 0.0075 4.99524197016
0.0045 0.0085 4.97519343842
0.0045 0.0095 4.93659969095
0.0045 0.0105 4.88123800789
0.0045 0.0115 4.8158490163
0.0045 0.0125 4.74926159987
0.0045 0.0135 4.68536034671
0.0045 0.0145 4.62548368597
0.0045 0.0155 4.56905752266
0.0045 0.0165 4.51583984082
0.0045 0.0175 4.46594259408
0.0045 0.0185 4.4193116923
0.0045 0.0195 4.37562105177
0.0045 0.0205 4.33430510768
0.0045 0.0215 4.29467228659
0.0045 0.0225 4.25601058058
0.0045 0.0235 4.21766720704
0.0045 0.0245 4.17912298151
0.0045 0.0255 4.14007865338
0.0045 0.0265 4.10057121926
0.0045 0.0275 4.06115883507
0.0045 0.0285 4.02320702332
0.0045 0.0295 3.98914618607
0.0045 0.0305 3.96242811787
0.0045 0.0315 3.94722297499
0.0055 -0.0315 3.80562147344
0.0055 -0.0305 3.81934360372
0.0055 -0.0295 3.84446586289
0.0055 -0.0285 3.87844406198
0.0055 -0.0275 3.91905925421
0.0055 -0.0265 3.96450199062
0.0055 -0.0255 4.01345978652
0.0055 -0.0245 4.0650957607
0.0055 -0.0235 4.11891569639
0.0055 -0.0225 4.17460893475
0.0055 -0.0215 4.23190270155
0.0055 -0.0205 4.29042194821
0.0055 -0.0195 4.34954985875
0.0055 -0.0185 4.40830272475
0.0055 -0.0175 4.46525178284
0.0055 -0.0165 4.51851679475
0.0055 -0.0155 4.56579186074
0.0055 -0.0145 4.60447848225
0.0055 -0.0135 4.63192363032
0.0055 -0.0125 4.64573975013
0.0055 -0.0115 4.64448246561
0.0055 -0.0105 4.62857379861
0.0055 -0.0095 4.59950510219
0.0055 -0.0085 4.55934709707
0.0055 -0.0075 4.50964162645
0.0055 -0.0065 4.45291298314
0.0055 -0.0055 4.39600439412
0.0055 -0.0045 4.35134380589
0.0055 -0.0035 4.33217309445
0.0055 -0.0025 4.49091552559
0.0055 -0.0015 4.97813802248
0.0055 -0.0005 5.37615218866
0.0055 0.0005 5.28370802624
0.0055 0.0015 4.99776305875
0.0055 0.0025 4.85558969235
0.0055 0.0035 4.8508538168
0.0055 0.0045 4.8995556102
0.0055 0.0055 4.96074178604
0.0055 0.0065 4.99783776511
0.0055 0.0075 4.99817079552
0.0055 0.0085 4.9673169295
0.0055 0.0095 4.91439459001
0.0055 0.0105 4.8478290244
0.0055 0.0115 4.77912504328
0.0055 0.0125 4.71440354606
0.0055 0.0135 4.65251898381
0.0055 0.0145 4.59250304603
0.0055 0.0155 4.53418698973
0.0055 0.0165 4.47876103118
0.0055 0.0175 4.42718809743
0.0055 0.0185 4.37970892461
0.0055 0.0195 4.33584429169
0.0055 0.0205 4.29472943184
0.0055 0.0215 4.2553838729
0.0055 0.0225 4.21686379729
0.0055 0.0235 4.17837505715
0.0055 0.0245 4.13938278632
0.0055 0.0255 4.09972194019
0.0055 0.0265 4.05971709654
0.0055 0.0275 4.02032163901
0.0055 0.0285 3.98322578236
0.0055 0.0295 3.9508267975
0.0055 0.0305 3.92608418289
0.0055 0.0315 3.91233529459
0.0065 -0.0315 3.77892669743
0.0065 -0.0305 3.79288662466
0.0065 -0.0295 3.81879273912
0.0065 -0.0285 3.85443831431
0.0065 -0.0275 3.89786411849
0.0065 -0.0265 3.94737503658
0.0065 -0.0255 4.00158562857
0.0065 -0.0245 4.05945074034
0.0065 -0.0235 4.12023522853
0.0065 -0.0225 4.18342488506
0.0065 -0.0215 4.24860453141
0.0065 -0.0205 4.31530649854
0.0065 -0.0195 4.38282071381
0.0065 -0.0185 4.44997862191
0.0065 -0.0175 4.51494059078
0.0065 -0.0165 4.57506194581
0.0065 -0.0155 4.62698326797
0.0065 -0.0145 4.66699339021
0.0065 -0.0135 4.6919142017
0.0065 -0.0125 4.70000353354
0.0065 -0.0115 4.69208301245
0.0065 -0.0105 4.67115533702
0.0065 -0.0095 4.63929749015
0.0065 -0.0085 4.59829074309
0.0065 -0.0075 4.54926580604
0.0065 -0.0065 4.49202862895
0.0065 -0.0055 4.43703873057
0.0065 -0.0045 4.39557084197
0.0065 -0.0035 4.45285154294
0.0065 -0.0025 4.87149785127
0.0065 -0.0015 5.61695676512
0.0065 -0.0005 6.07814008961
0.0065 0.0005 5.88133924498
0.0065 0.0015 5.38623475847
0.0065 0.0025 5.04858759943
0.0065 0.0035 4.92721732114
0.0065 0.0045 4.91397459135
0.0065 0.0055 4.93615895773
0.0065 0.0065 4.95530435893
0.0065 0.0075 4.95390638702
0.0065 0.0085 4.92364928144
0.0065 0.0095 4.86560669651
0.0065 0.0105 4.79437805893
0.0065 0.0115 4.72694275896
0.0065 0.0125 4.66658125439
0.0065 0.0135 4.60743832962
0.0065 0.0145 4.54779020691
0.0065 0.0155 4.48918443909
0.0065 0.0165 4.43337786744
0.0065 0.0175 4.38200779283
0.0065 0.0185 4.33527015901
0.0065 0.0195 4.29241970983
0.0065 0.0205 4.25233170119
0.0065 0.0215 4.21379306262
0.0065 0.0225 4.17569559484
0.0065 0.0235 4.13720597194
0.0065 0.0245 4.09790626965
0.0065 0.0255 4.05788851348
0.0065 0.0265 4.01781312092
0.0065 0.0275 3.97892702251
0.0065 0.0285 3.94301186755
0.0065 0.0295 3.91227163188
0.0065 0.0305 3.88923680584
0.0065 0.0315 3.87664114628
0.0075 -0.0315 3.75149207774
0.0075 -0.0305 3.76590654499
0.0075 -0.0295 3.79287973496
0.0075 -0.0285 3.8303880436
0.0075 -0.0275 3.87663049637
0.0075 -0.0265 3.93000857864
0.0075 -0.0255 3.98912858595
0.0075 -0.0245 4.05281387903
0.0075 -0.0235 4.12010494334
0.0075 -0.0225 4.19022962892
0.0075 -0.0215 4.26253778009
0.0075 -0.0205 4.33638779209
0.0075 -0.0195 4.4109570316
0.0075 -0.0185 4.48495931007
0.0075 -0.0175 4.55630712574
0.0075 -0.0165 4.62178428864
0.0075 -0.0155 4.67701851584
0.0075 -0.0145 4.71730600801
0.0075 -0.0135 4.73900754531
0.0075 -0.0125 4.74167000614
0.0075 -0.0115 4.72855991415
0.0075 -0.0105 4.70445850262
0.0075 -0.0095 4.67061964018
0.0075 -0.0085 4.62626243276
0.0075 -0.0075 4.58031096782
0.0075 -0.0065 4.53019483853
0.0075 -0.0055 4.48313824462
0.0075 -0.0045 4.49572631852
0.0075 -0.0035 4.73893513742
0.0075 -0.0025 5.40399766401
0.0075 -0.0015 6.29672956136
0.0075 -0.0005 6.80405402866
0.0075 0.0005 6.56223343445
0.0075 0.0015 5.90171934192
0.0075 0.0025 5.34023176833
0.0075 0.0035 5.03989268542
0.0075 0.0045 4.91291976724
0.0075 0.0055 4.86434449923
0.0075 0.0065 4.85067268301
0.0075 0.0075 4.84679768635
0.0075 0.0085 4.8301430235
0.0075 0.0095 4.7880123457
0.0075 0.0105 4.72906239793
0.0075 0.0115 4.66831201895
0.0075 0.0125 4.6104480448
0.0075 0.0135 4.55160689513
0.0075 0.0145 4.49183046709
0.0075 0.0155 4.43438569494
0.0075 0.0165 4.38062065835
0.0075 0.0175 4.33171264196
0.0075 0.0185 4.28747817334
0.0075 0.0195 4.24693157132
0.0075 0.0205 4.20872198258
0.0075 0.0215 4.17144395177
0.0075 0.0225 4.13392207452
0.0075 0.0235 4.09544184442
0.0075 0.0245 4.05586054876
0.0075 0.0255 4.01561986625
0.0075 0.0265 3.97569620271
0.0075 0.0275 3.93750940111
0.0075 0.0285 3.90280895074
0.0075 0.0295 3.87357560443
0.0075 0.0305 3.85198251794
0.0075 0.0315 3.84032612909
0.0085 -0.0315 3.72335597997
0.0085 -0.0305 3.73838222911
0.0085 -0.0295 3.76663346567
0.0085 -0.0285 3.80615586386
0.0085 -0.0275 3.85521678137
0.0085 -0.0265 3.91226487404
0.0085 -0.0255 3.97590154308
0.0085 -0.0245 4.04486091696
0.0085 -0.0235 4.11799269992
0.0085 -0.0225 4.19424387658
0.0085 -0.0215 4.27263680591
0.0085 -0.0205 4.35222585771
0.0085 -0.0195 4.43198288075
0.0085 -0.0185 4.51054670445
0.0085 -0.0175 4.58581066097
0.0085 -0.0165 4.65450658499
0.0085 -0.0155 4.71201969245
0.0085 -0.0145 4.7530547697
0.0085 -0.0135 4.77403085438
0.0085 -0.0125 4.77523475417
0.0085 -0.0115 4.76120015754
0.0085 -0.0105 4.73394598566
0.0085 -0.0095 4.69866209757
0.0085 -0.0085 4.656300018
0.0085 -0.0075 4.60937341347
0.0085 -0.0065 4.56914794087
0.0085 -0.0055 4.55829584863
0.0085 -0.0045 4.67263993286
0.0085 -0.0035 5.05523963488
0.0085 -0.0025 5.76998309935
0.0085 -0.0015 6.62671132597
0.0085 -0.0005 7.11423956567
0.0085 0.0005 6.8832401764
0.0085 0.0015 6.18665052881
0.0085 0.0025 5.51954954089
0.0085 0.0035 5.10681770469
0.0085 0.0045 4.89546368303
0.0085 0.0055 4.79093607422
0.0085 0.0065 4.74267812379
0.0085 0.0075 4.72351613985
0.0085 0.0085 4.71265731487
0.0085 0.0095 4.69105387793
0.0085 0.0105 4.65230287006
0.0085 0.0115 4.60184128408
0.0085 0.0125 4.54524668856
0.0085 0.0135 4.48583951253
0.0085 0.0145 4.42724959573
0.0085 0.0155 4.37267177251
0.0085 0.0165 4.32308951101
0.0085 0.0175 4.27845976961
0.0085 0.0185 4.23821752183
0.0085 0.0195 4.20108854118
0.0085 0.0205 4.16540300803
0.0085 0.0215 4.12956736393
0.0085 0.0225 4.09250574976
0.0085 0.0235 4.05383566371
0.0085 0.0245 4.01384647577
0.0085 0.0255 3.9733763371
0.0085 0.0265 3.93366264569
0.0085 0.0275 3.89620188824
0.0085 0.0285 3.86264392021
0.0085 0.0295 3.83474168565
0.0085 0.0305 3.81437263154
0.0085 0.0315 3.80349311111
0.0095 -0.0315 3.69452223906
0.0095 -0.0305 3.71027202802
0.0095 -0.0295 3.73994555237
0.0095 -0.0285 3.78156892866
0.0095 -0.0275 3.83339919843
0.0095 -0.0265 3.89387496916
0.0095 -0.0255 3.96156861987
0.0095 -0.0245 4.03513813038
0.0095 -0.0235 4.11327681678
0.0095 -0.0225 4.19466538573
0.0095 -0.0215 4.27794303497
0.0095 -0.0205 4.36171408534
0.0095 -0.0195 4.44455993681
0.0095 -0.0185 4.52496339699
0.0095 -0.0175 4.60105507014
0.0095 -0.0165 4.67016958332
0.0095 -0.0155 4.72870496896
0.0095 -0.0145 4.77250915448
0.0095 -0.0135 4.79805536293
0.0095 -0.0125 4.80474417387
0.0095 -0.0115 4.79569921966
0.0095 -0.0105 4.77029942652
0.0095 -0.0095 4.73060806529
0.0095 -0.0085 4.68320056705
0.0095 -0.0075 4.62956252324
0.0095 -0.0065 4.59586440088
0.0095 -0.0055 4.63075358066
0.0095 -0.0045 4.79809208247
0.0095 -0.0035 5.16166628692
0.0095 -0.0025 5.75087616165
0.0095 -0.0015 6.42991726114
0.0095 -0.0005 6.81650041301
0.0095 0.0005 6.6713595499
0.0095 0.0015 6.14712340676
0.0095 0.0025 5.56153506136
0.0095 0.0035 5.13479661761
0.0095 0.0045 4.88781795182
0.0095 0.0055 4.75463786268
0.0095 0.0065 4.68220370556
0.0095 0.0075 4.64025455565
0.0095 0.0085 4.61576741247
0.0095 0.0095 4.59641737938
0.0095 0.0105 4.56804670891
0.0095 0.0115 4.52536779736
0.0095 0.0125 4.47187285838
0.0095 0.0135 4.41457105665
0.0095 0.0145 4.3595385924
0.0095 0.0155 4.30940552461
0.0095 0.0165 4.26473234807
0.0095 0.0175 4.22521302017
0.0095 0.0185 4.18980734014
0.0095 0.0195 4.15667671929
0.0095 0.0205 4.12359571647
0.0095 0.0215 4.08888865337
0.0095 0.0225 4.05181703175
0.0095 0.0235 4.01255754455
0.0095 0.0245 3.97194044241
0.0095 0.0255 3.93118570445
0.0095 0.0265 3.89170498391
0.0095 0.0275 3.85497497926
0.0095 0.0285 3.82248750215
0.0095 0.0295 3.79576650168
0.0095 0.0305 3.77643625881
0.0095 0.0315 3.76618711436
0.0105 -0.0315 3.66496891079
0.0105 -0.0305 3.68152018054
0.0105 -0.0295 3.71270608279
0.0105 -0.0285 3.75645607066
0.0105 -0.0275 3.81094552458
0.0105 -0.0265 3.87454308286
0.0105 -0.0255 3.94575315783
0.0105 -0.0245 4.02314960305
0.0105 -0.0235 4.10529660081
0.0105 -0.0225 4.19065763588
0.0105 -0.0215 4.27751122088
0.0105 -0.0205 4.36392710978
0.0105 -0.0195 4.44787478276
0.0105 -0.0185 4.52745095031
0.0105 -0.0175 4.60107166712
0.0105 -0.0165 4.66745169827
0.0105 -0.0155 4.72515678607
0.0105 -0.0145 4.7731813953
0.0105 -0.0135 4.80814160009
0.0105 -0.0125 4.8295294014
0.0105 -0.0115 4.83269504949
0.0105 -0.0105 4.80699975537
0.0105 -0.0095 4.74857965034
0.0105 -0.0085 4.6722937435
0.0105 -0.0075 4.60451556628
0.0105 -0.0065 4.57367909318
0.0105 -0.0055 4.62024050321
0.0105 -0.0045 4.77964848028
0.0105 -0.0035 5.06643689587
0.0105 -0.0025 5.48505919458
0.0105 -0.0015 5.95477856897
0.0105 -0.0005 6.25482476556
0.0105 0.0005 6.23519078438
0.0105 0.0015 5.94151126473
0.0105 0.0025 5.52400396039
0.0105 0.0035 5.14604174594
0.0105 0.0045 4.8867228135
0.0105 0.0055 4.73437820602
0.0105 0.0065 4.64625745698
0.0105 0.0075 4.5891438519
0.0105 0.0085 4.5495659603
0.0105 0.0095 4.51999066078
0.0105 0.0105 4.48911737653
0.0105 0.0115 4.44771000722
0.0105 0.0125 4.39791094933
0.0105 0.0135 4.34594212113
0.0105 0.0145 4.29580561372
0.0105 0.0155 4.25008216235
0.0105 0.0165 4.20989251704
0.0105 0.0175 4.17538601448
0.0105 0.0185 4.14475122409
0.0105 0.0195 4.11512061514
0.0105 0.0205 4.083877652
0.0105 0.0215 4.04940379155
0.0105 0.0225 4.01155875262
0.0105 0.0235 3.97124368763
0.0105 0.0245 3.92983745854
0.0105 0.0255 3.88884468205
0.0105 0.0265 3.84971201632
0.0105 0.0275 3.81378043063
0.0105 0.0285 3.78232986986
0.0105 0.0295 3.7566632038
0.0105 0.0305 3.73820285088
0.0105 0.0315 3.72845961204
0.0115 -0.0315 3.63465269676
0.0115 -0.0305 3.65205794786
0.0115 -0.0295 3.68480461785
0.0115 -0.0285 3.73065780822
0.0115 -0.0275 3.78764488424
0.0115 -0.0265 3.85400316061
0.0115 -0.0255 3.92811974442
0.0115 -0.0245 4.00845741974
0.0115 -0.0235 4.09346023528
0.0115 -0.0225 4.18143242714
0.0115 -0.0215 4.27039280474
0.0115 -0.0205 4.35794593386
0.0115 -0.0195 4.44134098465
0.0115 -0.0185 4.51800912325
0.0115 -0.0175 4.58648794809
0.0115 -0.0165 4.64705261321
0.0115 -0.0155 4.70179117274
0.0115 -0.0145 4.75210626752
0.0115 -0.0135 4.79884340209
0.0115 -0.0125 4.83743533075
0.0115 -0.0115 4.84448687013
0.0115 -0.0105 4.7969094179
0.0115 -0.0095 4.70299952058
0.0115 -0.0085 4.59309759296
0.0115 -0.0075 4.507045685
0.0115 -0.0065 4.4823491401
0.0115 -0.0055 4.54296375759
0.0115 -0.0045 4.69148968085
0.0115 -0.0035 4.9130853425
0.0115 -0.0025 5.20140736992
0.0115 -0.0015 5.52037687997
0.0115 -0.0005 5.75809763634
0.0115 0.0005 5.80928611446
0.0115 0.0015 5.66681394705
0.0115 0.0025 5.40469003814
0.0115 0.0035 5.11676734332
0.0115 0.0045 4.87553417765
0.0115 0.0055 4.71020151887
0.0115 0.0065 4.60682866663
0.0115 0.0075 4.54153016732
0.0115 0.0085 4.49708824376
0.0115 0.0095 4.46066976267
0.0115 0.0105 4.42356830516
0.0115 0.0115 4.37991769183
0.0115 0.0125 4.33143342439
0.0115 0.0135 4.28418733373
0.0115 0.0145 4.23962925102
0.0115 0.0155 4.19821295846
0.0115 0.0165 4.16190862524
0.0115 0.0175 4.131481536
0.0115 0.0185 4.10437909802
0.0115 0.0195 4.0766974521
0.0115 0.0205 4.04575918536
0.0115 0.0215 4.01023165812
0.0115 0.0225 3.97081870771
0.0115 0.0235 3.92916157142
0.0115 0.0245 3.88706824928
0.0115 0.0255 3.84612287701
0.0115 0.0265 3.80761075085
0.0115 0.0275 3.77262157901
0.0115 0.0285 3.74219809241
0.0115 0.0295 3.71746041716
0.0115 0.0305 3.69970418723
0.0115 0.0315 3.69034848712
0.0125 -0.0315 3.60351158687
0.0125 -0.0305 3.62180247549
0.0125 -0.0295 3.65612538707
0.0125 -0.0285 3.70402220574
0.0125 -0.0275 3.76331155814
0.0125 -0.0265 3.83203858701
0.0125 -0.0255 3.90841688415
0.0125 -0.0245 3.99075496512
0.0125 -0.0235 4.07735980846
0.0125 -0.0225 4.16640898492
0.0125 -0.0215 4.25577773439
0.0125 -0.0205 4.34282338719
0.0125 -0.0195 4.42426733785
0.0125 -0.0185 4.49680854675
0.0125 -0.0175 4.55883358896
0.0125 -0.0165 4.61216746304
0.0125 -0.0155 4.66159115197
0.0125 -0.0145 4.711830314
0.0125 -0.0135 4.76523482095
0.0125 -0.0125 4.80302355761
0.0125 -0.0115 4.7876069407
0.0125 -0.0105 4.70408201302
0.0125 -0.0095 4.5756334651
0.0125 -0.0085 4.44964470871
0.0125 -0.0075 4.37644559669
0.0125 -0.0065 4.38339335236
0.0125 -0.0055 4.46307393102
0.0125 -0.0045 4.59397898111
0.0125 -0.0035 4.76569127384
0.0125 -0.0025 4.97567514075
0.0125 -0.0015 5.19593174104
0.0125 -0.0005 5.36231164522
0.0125 0.0005 5.42689023837
0.0125 0.0015 5.37817052584
0.0125 0.0025 5.23299717186
0.0125 0.0035 5.03640695318
0.0125 0.0045 4.83910544478
0.0125 0.0055 4.67811542207
0.0125 0.0065 4.56587795205
0.0125 0.0075 4.4948306643
0.0125 0.0085 4.44757494012
0.0125 0.0095 4.40783323708
0.0125 0.0105 4.36745844529
0.0125 0.0115 4.32290532648
0.0125 0.0125 4.27533652983
0.0125 0.0135 4.23050433537
0.0125 0.0145 4.19077462785
0.0125 0.0155 4.15441690334
0.0125 0.0165 4.12212377161
0.0125 0.0175 4.09453425225
0.0125 0.0185 4.06835601966
0.0125 0.0195 4.04004016538
0.0125 0.0205 4.0074388885
0.0125 0.0215 3.96967883919
0.0125 0.0225 3.92828018122
0.0125 0.0235 3.88548609238
0.0125 0.0245 3.843251101
0.0125 0.0255 3.80292427744
0.0125 0.0265 3.76543190012
0.0125 0.0275 3.73155541582
0.0125 0.0285 3.70213351029
0.0125 0.0295 3.67817923696
0.0125 0.0305 3.66095125258
0.0125 0.0315 3.65186463131
0.0135 -0.0315 3.57146727402
0.0135 -0.0305 3.59065529264
0.0135 -0.0295 3.62654035625
0.0135 -0.0285 3.67639380217
0.0135 -0.0275 3.73777358687
0.0135 -0.0265 3.80847619716
0.0135 -0.0255 3.88648320842
0.0135 -0.0245 3.96989459539
0.0135 -0.0235 4.05684018476
0.0135 -0.0225 4.14536106067
0.0135 -0.0215 4.23325131086
0.0135 -0.0205 4.31784299474
0.0135 -0.0195 4.39582384307
0.0135 -0.0185 4.46358828815
0.0135 -0.0175 4.51976461662
0.0135 -0.0165 4.56724910911
0.0135 -0.0155 4.61119312174
0.0135 -0.0145 4.65889989884
0.0135 -0.0135 4.70401150681
0.0135 -0.0125 4.71509531253
0.0135 -0.0115 4.66216363732
0.0135 -0.0105 4.54673801799
0.0135 -0.0095 4.40776695352
0.0135 -0.0085 4.30584391275
0.0135 -0.0075 4.27832463337
0.0135 -0.0065 4.3152179143
0.0135 -0.0055 4.39205065314
0.0135 -0.0045 4.49915754825
0.0135 -0.0035 4.63701664977
0.0135 -0.0025 4.79348266694
0.0135 -0.0015 4.94099651982
0.0135 -0.0005 5.05433936163
0.0135 0.0005 5.11373826611
0.0135 0.0015 5.10733363631
0.0135 0.0025 5.0359876352
0.0135 0.0035 4.91443499442
0.0135 0.0045 4.76999589258
0.0135 0.0055 4.6328119909
0.0135 0.0065 4.52450096321
0.0135 0.0075 4.44973739852
0.0135 0.0085 4.39788230319
0.0135 0.0095 4.35510494605
0.0135 0.0105 4.31388597339
0.0135 0.0115 4.27111733885
0.0135 0.0125 4.2264652536
0.0135 0.0135 4.18396086766
0.0135 0.0145 4.14770798076
0.0135 0.0155 4.11652749467
0.0135 0.0165 4.08794959245
0.0135 0.0175 4.0610968178
0.0135 0.0185 4.03337872966
0.0135 0.0195 4.00201904201
0.0135 0.0205 3.96602484655
0.0135 0.0215 3.92559165908
0.0135 0.0225 3.88262964233
0.0135 0.0235 3.83966443743
0.0135 0.0245 3.79830690405
0.0135 0.0255 3.7593515847
0.0135 0.0265 3.72328627321
0.0135 0.0275 3.69063760255
0.0135 0.0285 3.66213854022
0.0135 0.0295 3.6387960015
0.0135 0.0305 3.62191792132
0.0135 0.0315 3.61298494157
0.0145 -0.0315 3.53842829332
0.0145 -0.0305 3.55850193689
0.0145 -0.0295 3.59590298876
0.0145 -0.0285 3.64760069472
0.0145 -0.0275 3.71085406709
0.0145 -0.0265 3.78316425964
0.0145 -0.0255 3.86222637421
0.0145 -0.0245 3.94587288397
0.0145 -0.0235 4.03200098048
0.0145 -0.0225 4.11847354126
0.0145 -0.0215 4.20299111882
0.0145 -0.0205 4.28297907272
0.0145 -0.0195 4.35554700068
0.0145 -0.0185 4.41794868107
0.0145 -0.0175 4.47058383577
0.0145 -0.0165 4.51486159746
0.0145 -0.0155 4.55572601746
0.0145 -0.0145 4.59640834846
0.0145 -0.0135 4.61830671656
0.0145 -0.0125 4.59227087708
0.0145 -0.0115 4.50544798591
0.0145 -0.0105 4.37736794231
0.0145 -0.0095 4.26460057047
0.0145 -0.0085 4.21432479505
0.0145 -0.0075 4.22225584644
0.0145 -0.0065 4.26333176003
0.0145 -0.0055 4.32764053838
0.0145 -0.0045 4.416293209
0.0145 -0.0035 4.52410455688
0.0145 -0.0025 4.6365996699
0.0145 -0.0015 4.73716326941
0.0145 -0.0005 4.81399992696
0.0145 0.0005 4.86036381573
0.0145 0.0015 4.8698823207
0.0145 0.0025 4.83874772079
0.0145 0.0035 4.76967381666
0.0145 0.0045 4.67396313924
0.0145 0.0055 4.57018053177
0.0145 0.0065 4.47674722418
0.0145 0.0075 4.40310155913
0.0145 0.0085 4.34719519493
0.0145 0.0095 4.30171345621
0.0145 0.0105 4.26073275943
0.0145 0.0115 4.22062182196
0.0145 0.0125 4.17973186219
0.0145 0.0135 4.14024361645
0.0145 0.0145 4.10666735927
0.0145 0.0155 4.07933815831
0.0145 0.0165 4.05318515062
0.0145 0.0175 4.02513112935
0.0145 0.0185 3.99458365902
0.0145 0.0195 3.95887205744
0.0145 0.0205 3.91849892619
0.0145 0.0215 3.87609277279
0.0145 0.0225 3.83319172858
0.0145 0.0235 3.7917615298
0.0145 0.0245 3.75253023324
0.0145 0.0255 3.71564308638
0.0145 0.0265 3.68126693873
0.0145 0.0275 3.64983309144
0.0145 0.0285 3.62211159309
0.0145 0.0295 3.59920677593
0.0145 0.0305 3.58253734879
0.0145 0.0315 3.57367871708
0.0155 -0.0315 3.50429443992
0.0155 -0.0305 3.52521381195
0.0155 -0.0295 3.56404510682
0.0155 -0.0285 3.61744411043
0.0155 -0.0275 3.6823517241
0.0155 -0.0265 3.75594347198
0.0155 -0.0255 3.83558467456
0.0155 -0.0245 3.9187856297
0.0155 -0.0235 4.00314758379
0.0155 -0.0225 4.0862955329
0.0155 -0.0215 4.16580332485
0.0155 -0.0205 4.23919370582
0.0155 -0.0195 4.30430909919
0.0155 -0.0185 4.36027507553
0.0155 -0.0175 4.4096551161
0.0155 -0.0165 4.45299998104
0.0155 -0.0155 4.49266994832
0.0155 -0.0145 4.52210739868
0.0155 -0.0135 4.51673714499
0.0155 -0.0125 4.45948337326
0.0155 -0.0115 4.35425802577
0.0155 -0.0105 4.24236661895
0.0155 -0.0095 4.17690971988
0.0155 -0.0085 4.16581043283
0.0155 -0.0075 4.18495336109
0.0155 -0.0065 4.22017681495
0.0155 -0.0055 4.27254645584
0.0155 -0.0045 4.34233764809
0.0155 -0.0035 4.42212047952
0.0155 -0.0025 4.50040857262
0.0155 -0.0015 4.5679804355
0.0155 -0.0005 4.61987726957
0.0155 0.0005 4.65349970064
0.0155 0.0015 4.66647022017
0.0155 0.0025 4.65560918727
0.0155 0.0035 4.61960625361
0.0155 0.0045 4.56179979874
0.0155 0.0055 4.49074383937
0.0155 0.0065 4.41760032823
0.0155 0.0075 4.35160487607
0.0155 0.0085 4.29608085879
0.0155 0.0095 4.24961536534
0.0155 0.0105 4.2089917642
0.0155 0.0115 4.17068703583
0.0155 0.0125 4.13213941986
0.0155 0.0135 4.09424930794
0.0155 0.0145 4.06174336482
0.0155 0.0155 4.03598470626
0.0155 0.0165 4.01120809303
0.0155 0.0175 3.98180795021
0.0155 0.0185 3.94710133227
0.0155 0.0195 3.90662178031
0.0155 0.0205 3.86316318698
0.0155 0.0215 3.82089263561
0.0155 0.0225 3.78059744697
0.0155 0.0235 3.74256357353
0.0155 0.0245 3.70646156266
0.0155 0.0255 3.67201296836
0.0155 0.0265 3.63931662401
0.0155 0.0275 3.60892604058
0.0155 0.0285 3.58179647149
0.0155 0.0295 3.55920912674
0.0155 0.0305 3.5427099667
0.0155 0.0315 3.53393768959
0.0165 -0.0315 3.46896264374
0.0165 -0.0305 3.49065297922
0.0165 -0.0295 3.53077864579
0.0165 -0.0285 3.58569423147
0.0165 -0.0275 3.65202683676
0.0165 -0.0265 3.72661901058
0.0165 -0.0255 3.80648263921
0.0165 -0.0245 3.88876337021
0.0165 -0.0235 3.97071020733
0.0165 -0.0225 4.04964398708
0.0165 -0.0215 4.12298343281
0.0165 -0.0205 4.18845301749
0.0165 -0.0195 4.24469362911
0.0165 -0.0185 4.2930204476
0.0165 -0.0175 4.33677643011
0.0165 -0.0165 4.37883231611
0.0165 -0.0155 4.41686643121
0.0165 -0.0145 4.43322000807
0.0165 -0.0135 4.40734521252