% Model:              Benchmark260518.mph
% Version:            COMSOL 6.2.0.339
% Date:               May 21 2026, 01:14
% Dimension:          2
% Nodes:              4096
% Expressions:        1
% Description:        压力
% Length unit:        m
% x                       y                        p (Pa)
5.0E-4                    -0.0315                  4.156529896750847
5.0E-4                    -0.0305                  4.1861927038858715
5.0E-4                    -0.0295                  4.226491804174266
5.0E-4                    -0.0285                  4.270487024105532
5.0E-4                    -0.0275                  4.31676958502015
5.0E-4                    -0.0265                  4.364926578249421
5.0E-4                    -0.0255                  4.4146025023017526
5.0E-4                    -0.0245                  4.465348660892804
5.0E-4                    -0.0235                  4.516914585113026
5.0E-4                    -0.0225                  4.569256728073519
5.0E-4                    -0.0215                  4.621888990430569
5.0E-4                    -0.0205                  4.673137622669578
5.0E-4                    -0.0195                  4.720378923447917
5.0E-4                    -0.0185                  4.760543216418182
5.0E-4                    -0.0175                  4.789854273507147
5.0E-4                    -0.0165                  4.806539366450463
5.0E-4                    -0.0155                  4.813775907431097
5.0E-4                    -0.0145                  4.816220000792673
5.0E-4                    -0.0135                  4.816331055283703
5.0E-4                    -0.0125                  4.815007540071951
5.0E-4                    -0.0115                  4.812641097031343
5.0E-4                    -0.0105                  4.809434397261549
5.0E-4                    -0.0095                  4.805751510776569
5.0E-4                    -0.0085                  4.802365310682594
5.0E-4                    -0.0075                  4.799972623825346
5.0E-4                    -0.0065                  4.798479386227049
5.0E-4                    -0.0055                  4.796699258641453
5.0E-4                    -0.0045                  4.792514147072819
5.0E-4                    -0.0035                  4.783979733445504
5.0E-4                    -0.0025                  4.770745464810879
5.0E-4                    -0.0015                  4.754402985182953
5.0E-4                    -5.0E-4                  4.737637135856392
5.0E-4                    5.0E-4                   4.722766399999119
5.0E-4                    0.0015                   4.710695772186421
5.0E-4                    0.0025                   4.700186287804032
5.0E-4                    0.0035                   4.705515876826605
5.0E-4                    0.0045                   4.771699995319393
5.0E-4                    0.0055                   4.886144557222928
5.0E-4                    0.0065                   4.977837067537781
5.0E-4                    0.0075                   5.025257344251108
5.0E-4                    0.0085                   5.040963327107127
5.0E-4                    0.0095                   5.036719001489194
5.0E-4                    0.0105                   5.023304057579638
5.0E-4                    0.0115                   5.007054401307805
5.0E-4                    0.0125                   4.991730131992245
5.0E-4                    0.0135                   4.980414549653842
5.0E-4                    0.0145                   4.971978305382135
5.0E-4                    0.0155                   4.964805801550726
5.0E-4                    0.0165                   4.959411463645966
5.0E-4                    0.0175                   4.953491744395333
5.0E-4                    0.0185                   4.943556039275939
5.0E-4                    0.0195                   4.925853805444635
5.0E-4                    0.0205                   4.895911785140768
5.0E-4                    0.0215                   4.851356510965356
5.0E-4                    0.0225                   4.795071747576052
5.0E-4                    0.0235                   4.731751574514496
5.0E-4                    0.0245                   4.665120678040135
5.0E-4                    0.0255                   4.598523028564715
5.0E-4                    0.0265                   4.533997268756086
5.0E-4                    0.0275                   4.471917416761208
5.0E-4                    0.0285                   4.412176644499242
5.0E-4                    0.0295                   4.355418714797107
5.0E-4                    0.0305                   4.303643078124656
5.0E-4                    0.0315                   4.265560367275181
0.0015                    -0.0315                  4.126452295056273
0.0015                    -0.0305                  4.1561137375086705
0.0015                    -0.0295                  4.19912231847111
0.0015                    -0.0285                  4.2462547629776655
0.0015                    -0.0275                  4.295242680213395
0.0015                    -0.0265                  4.345841746799788
0.0015                    -0.0255                  4.3981596950922315
0.0015                    -0.0245                  4.452222804082857
0.0015                    -0.0235                  4.507927455799161
0.0015                    -0.0225                  4.564991175110392
0.0015                    -0.0215                  4.622485997071204
0.0015                    -0.0205                  4.678179093700269
0.0015                    -0.0195                  4.728233723815514
0.0015                    -0.0185                  4.7683166132149095
0.0015                    -0.0175                  4.794809972002344
0.0015                    -0.0165                  4.808433840293086
0.0015                    -0.0155                  4.814402809263153
0.0015                    -0.0145                  4.8167438768133986
0.0015                    -0.0135                  4.81698625330082
0.0015                    -0.0125                  4.815763082168342
0.0015                    -0.0115                  4.813374321079671
0.0015                    -0.0105                  4.809779010857114
0.0015                    -0.0095                  4.804986777142473
0.0015                    -0.0085                  4.799818144653099
0.0015                    -0.0075                  4.795617371838347
0.0015                    -0.0065                  4.792983386574474
0.0015                    -0.0055                  4.791026046854444
0.0015                    -0.0045                  4.787492319802816
0.0015                    -0.0035                  4.780037207657002
0.0015                    -0.0025                  4.767855465205061
0.0015                    -0.0015                  4.7522441524074726
0.0015                    -5.0E-4                  4.735986018998358
0.0015                    5.0E-4                   4.721903387464948
0.0015                    0.0015                   4.711668996094341
0.0015                    0.0025                   4.708728988088016
0.0015                    0.0035                   4.721458630021965
0.0015                    0.0045                   4.8016975488024425
0.0015                    0.0055                   4.9254463267161075
0.0015                    0.0065                   5.012302794567695
0.0015                    0.0075                   5.0561432268758555
0.0015                    0.0085                   5.0678546303035645
0.0015                    0.0095                   5.060178831766548
0.0015                    0.0105                   5.041974224504978
0.0015                    0.0115                   5.018415594715151
0.0015                    0.0125                   4.996137794973725
0.0015                    0.0135                   4.979284468848307
0.0015                    0.0145                   4.967143591218295
0.0015                    0.0155                   4.95966855641978
0.0015                    0.0165                   4.955452118173783
0.0015                    0.0175                   4.9501868204981525
0.0015                    0.0185                   4.939852489725283
0.0015                    0.0195                   4.922403701103777
0.0015                    0.0205                   4.893960446968097
0.0015                    0.0215                   4.849440251235535
0.0015                    0.0225                   4.789812270553519
0.0015                    0.0235                   4.720951847385347
0.0015                    0.0245                   4.648819875456569
0.0015                    0.0255                   4.577878559155482
0.0015                    0.0265                   4.509753829769981
0.0015                    0.0275                   4.444280276843786
0.0015                    0.0285                   4.381010533934905
0.0015                    0.0295                   4.32024594452822
0.0015                    0.0305                   4.264912926792507
0.0015                    0.0315                   4.226770031566627
0.0025                    -0.0315                  4.085018708180701
0.0025                    -0.0305                  4.112088441769652
0.0025                    -0.0295                  4.1551901005113745
0.0025                    -0.0285                  4.204937146857283
0.0025                    -0.0275                  4.257209560788322
0.0025                    -0.0265                  4.311206369533156
0.0025                    -0.0255                  4.367392267103103
0.0025                    -0.0245                  4.426386333286017
0.0025                    -0.0235                  4.48836253588193
0.0025                    -0.0225                  4.55266542292876
0.0025                    -0.0215                  4.617471909388717
0.0025                    -0.0205                  4.67921974001185
0.0025                    -0.0195                  4.732385623308872
0.0025                    -0.0185                  4.77192941380812
0.0025                    -0.0175                  4.795686334558682
0.0025                    -0.0165                  4.807381554374906
0.0025                    -0.0155                  4.8134533287085715
0.0025                    -0.0145                  4.816499361721922
0.0025                    -0.0135                  4.816747281070569
0.0025                    -0.0125                  4.814747581874814
0.0025                    -0.0115                  4.811165262536056
0.0025                    -0.0105                  4.804867746105039
0.0025                    -0.0095                  4.794988421968566
0.0025                    -0.0085                  4.78399364461925
0.0025                    -0.0075                  4.775419603931343
0.0025                    -0.0065                  4.77097909885056
0.0025                    -0.0055                  4.77007556287209
0.0025                    -0.0045                  4.770363980548341
0.0025                    -0.0035                  4.769059630394393
0.0025                    -0.0025                  4.764026787990558
0.0025                    -0.0015                  4.7550878941628
0.0025                    -5.0E-4                  4.744702022989747
0.0025                    5.0E-4                   4.7368953818795445
0.0025                    0.0015                   4.737013149760645
0.0025                    0.0025                   4.753286299595845
0.0025                    0.0035                   4.8044221615853715
0.0025                    0.0045                   4.895907779655735
0.0025                    0.0055                   4.990455573465006
0.0025                    0.0065                   5.0554638574576
0.0025                    0.0075                   5.087910289198369
0.0025                    0.0085                   5.094239798656975
0.0025                    0.0095                   5.083653923641804
0.0025                    0.0105                   5.061346052581766
0.0025                    0.0115                   5.031889578322742
0.0025                    0.0125                   5.001259919051917
0.0025                    0.0135                   4.975080383232838
0.0025                    0.0145                   4.95618345837649
0.0025                    0.0155                   4.945188212687314
0.0025                    0.0165                   4.9401137445028604
0.0025                    0.0175                   4.935072220097057
0.0025                    0.0185                   4.924349890460231
0.0025                    0.0195                   4.906178403031079
0.0025                    0.0205                   4.876879684985813
0.0025                    0.0215                   4.830165539769278
0.0025                    0.0225                   4.766010326200252
0.0025                    0.0235                   4.69112575110054
0.0025                    0.0245                   4.613255825454879
0.0025                    0.0255                   4.537380368727393
0.0025                    0.0265                   4.4647943285817355
0.0025                    0.0275                   4.39500637753658
0.0025                    0.0285                   4.327504647705583
0.0025                    0.0295                   4.2633956359098235
0.0025                    0.0305                   4.208029638504076
0.0025                    0.0315                   4.173385245802517
0.0035                    -0.0315                  4.039225808293048
0.0035                    -0.0305                  4.063748888306766
0.0035                    -0.0295                  4.10507268472461
0.0035                    -0.0285                  4.1554489944024215
0.0035                    -0.0275                  4.209929472184889
0.0035                    -0.0265                  4.266713091981035
0.0035                    -0.0255                  4.326176497804767
0.0035                    -0.0245                  4.38948879232756
0.0035                    -0.0235                  4.457339275785514
0.0035                    -0.0225                  4.52893798130857
0.0035                    -0.0215                  4.601380085201406
0.0035                    -0.0205                  4.669410683207136
0.0035                    -0.0195                  4.726121896443564
0.0035                    -0.0185                  4.766554713783163
0.0035                    -0.0175                  4.7900808320677974
0.0035                    -0.0165                  4.802070372215113
0.0035                    -0.0155                  4.809182850167892
0.0035                    -0.0145                  4.812696136895996
0.0035                    -0.0135                  4.811238618011136
0.0035                    -0.0125                  4.805262548719544
0.0035                    -0.0115                  4.796785522022962
0.0035                    -0.0105                  4.783879839577447
0.0035                    -0.0095                  4.764741812802407
0.0035                    -0.0085                  4.744635264280254
0.0035                    -0.0075                  4.730225716598032
0.0035                    -0.0065                  4.724563658444266
0.0035                    -0.0055                  4.727661635563683
0.0035                    -0.0045                  4.737451626689765
0.0035                    -0.0035                  4.750577172394696
0.0035                    -0.0025                  4.763334834131794
0.0035                    -0.0015                  4.773577120027724
0.0035                    -5.0E-4                  4.782010251355268
0.0035                    5.0E-4                   4.792573252675297
0.0035                    0.0015                   4.812501817949703
0.0035                    0.0025                   4.850768592476597
0.0035                    0.0035                   4.912342881948732
0.0035                    0.0045                   4.986449893450382
0.0035                    0.0055                   5.050725125317087
0.0035                    0.0065                   5.092244838606969
0.0035                    0.0075                   5.1109237202627495
0.0035                    0.0085                   5.111928942782608
0.0035                    0.0095                   5.099398807259173
0.0035                    0.0105                   5.074647297081451
0.0035                    0.0115                   5.040600741223406
0.0035                    0.0125                   5.003421988238332
0.0035                    0.0135                   4.969674853192952
0.0035                    0.0145                   4.94289879807561
0.0035                    0.0155                   4.924294907005239
0.0035                    0.0165                   4.913041404306378
0.0035                    0.0175                   4.904211432122347
0.0035                    0.0185                   4.891335356365639
0.0035                    0.0195                   4.870225176114815
0.0035                    0.0205                   4.835624659906928
0.0035                    0.0215                   4.7832301884752475
0.0035                    0.0225                   4.714879031599979
0.0035                    0.0235                   4.637325893765974
0.0035                    0.0245                   4.55778903592607
0.0035                    0.0255                   4.4800736819724705
0.0035                    0.0265                   4.404993930391079
0.0035                    0.0275                   4.332272916325204
0.0035                    0.0285                   4.2623337109725
0.0035                    0.0295                   4.19796265581772
0.0035                    0.0305                   4.145554993329434
0.0035                    0.0315                   4.114707088144566
0.0045                    -0.0315                  3.9909122267624397
0.0045                    -0.0305                  4.013921197685853
0.0045                    -0.0295                  4.053839958002403
0.0045                    -0.0285                  4.104070146702359
0.0045                    -0.0275                  4.15964026540831
0.0045                    -0.0265                  4.217944787114975
0.0045                    -0.0255                  4.278888590512701
0.0045                    -0.0245                  4.344065048113361
0.0045                    -0.0235                  4.415180650508872
0.0045                    -0.0225                  4.492158347703211
0.0045                    -0.0215                  4.571564844681365
0.0045                    -0.0205                  4.646408729720435
0.0045                    -0.0195                  4.708390647390168
0.0045                    -0.0185                  4.752130778173002
0.0045                    -0.0175                  4.777786634893787
0.0045                    -0.0165                  4.7916466684012455
0.0045                    -0.0155                  4.799977570589588
0.0045                    -0.0145                  4.8028951171258125
0.0045                    -0.0135                  4.797515191656495
0.0045                    -0.0125                  4.783506141706338
0.0045                    -0.0115                  4.764510209208755
0.0045                    -0.0105                  4.741299189477781
0.0045                    -0.0095                  4.71314125050388
0.0045                    -0.0085                  4.68691457609642
0.0045                    -0.0075                  4.671233188474642
0.0045                    -0.0065                  4.668706077708302
0.0045                    -0.0055                  4.6787340113935
0.0045                    -0.0045                  4.700209780034111
0.0045                    -0.0035                  4.731173052568064
0.0045                    -0.0025                  4.768463843378809
0.0045                    -0.0015                  4.80780456897364
0.0045                    -5.0E-4                  4.845579455713905
0.0045                    5.0E-4                   4.881775313647426
0.0045                    0.0015                   4.919977646777326
0.0045                    0.0025                   4.964106639466227
0.0045                    0.0035                   5.012990603477725
0.0045                    0.0045                   5.058843216712798
0.0045                    0.0055                   5.093296211490661
0.0045                    0.0065                   5.113313358249321
0.0045                    0.0075                   5.120730686337728
0.0045                    0.0085                   5.1181362346369905
0.0045                    0.0095                   5.105765548182415
0.0045                    0.0105                   5.0821276950548615
0.0045                    0.0115                   5.047087669444583
0.0045                    0.0125                   5.004927505279358
0.0045                    0.0135                   4.962975807895077
0.0045                    0.0145                   4.926537389590919
0.0045                    0.0155                   4.897681318025179
0.0045                    0.0165                   4.875962745607151
0.0045                    0.0175                   4.85774348664208
0.0045                    0.0185                   4.837711847659342
0.0045                    0.0195                   4.809204686510593
0.0045                    0.0205                   4.765126795809118
0.0045                    0.0215                   4.705523052288619
0.0045                    0.0225                   4.635854204992108
0.0045                    0.0235                   4.561260721216836
0.0045                    0.0245                   4.485687261999168
0.0045                    0.0255                   4.4105267217901165
0.0045                    0.0265                   4.336053289543744
0.0045                    0.0275                   4.262871624853194
0.0045                    0.0285                   4.192958461503729
0.0045                    0.0295                   4.130379421845921
0.0045                    0.0305                   4.081331734290889
0.0045                    0.0315                   4.053553096215859
0.0055                    -0.0315                  3.940724166750763
0.0055                    -0.0305                  3.9632602164978317
0.0055                    -0.0295                  4.002998342121581
0.0055                    -0.0285                  4.053760709218273
0.0055                    -0.0275                  4.110381869750737
0.0055                    -0.0265                  4.16944125897942
0.0055                    -0.0255                  4.230064281618834
0.0055                    -0.0245                  4.293969385765497
0.0055                    -0.0235                  4.364314494957837
0.0055                    -0.0225                  4.443146321898092
0.0055                    -0.0215                  4.528177966117298
0.0055                    -0.0205                  4.611210161135949
0.0055                    -0.0195                  4.681190780410681
0.0055                    -0.0185                  4.730467000417622
0.0055                    -0.0175                  4.759877844390277
0.0055                    -0.0165                  4.776728193538661
0.0055                    -0.0155                  4.786428126036501
0.0055                    -0.0145                  4.788151287053782
0.0055                    -0.0135                  4.777930455926631
0.0055                    -0.0125                  4.754942852202282
0.0055                    -0.0115                  4.723712923630937
0.0055                    -0.0105                  4.6893849856854715
0.0055                    -0.0095                  4.657168514503116
0.0055                    -0.0085                  4.634582838160285
0.0055                    -0.0075                  4.626034472033515
0.0055                    -0.0065                  4.630685034801594
0.0055                    -0.0055                  4.647454452225406
0.0055                    -0.0045                  4.677206221060456
0.0055                    -0.0035                  4.721202755799221
0.0055                    -0.0025                  4.778605448953508
0.0055                    -0.0015                  4.844122941590689
0.0055                    -5.0E-4                  4.90901720191417
0.0055                    5.0E-4                   4.966005722839248
0.0055                    0.0015                   5.012989146378452
0.0055                    0.0025                   5.0512962306243825
0.0055                    0.0035                   5.0812462909874
0.0055                    0.0045                   5.1019084419478515
0.0055                    0.0055                   5.113643420872097
0.0055                    0.0065                   5.118905299704713
0.0055                    0.0075                   5.119794413166772
0.0055                    0.0085                   5.11605527548147
0.0055                    0.0095                   5.105511916656666
0.0055                    0.0105                   5.084186826863785
0.0055                    0.0115                   5.048293020871655
0.0055                    0.0125                   4.999801255056019
0.0055                    0.0135                   4.947269179390238
0.0055                    0.0145                   4.899087407033358
0.0055                    0.0155                   4.858963144535942
0.0055                    0.0165                   4.825932770994237
0.0055                    0.0175                   4.795902557995888
0.0055                    0.0185                   4.764103933455633
0.0055                    0.0195                   4.72400127166496
0.0055                    0.0205                   4.669146229869021
0.0055                    0.0215                   4.604355541299499
0.0055                    0.0225                   4.537727304214825
0.0055                    0.0235                   4.470897036789061
0.0055                    0.0245                   4.403440026561254
0.0055                    0.0255                   4.334069132299003
0.0055                    0.0265                   4.262808382416403
0.0055                    0.0275                   4.19136530308451
0.0055                    0.0285                   4.12309782591427
0.0055                    0.0295                   4.062817688732575
0.0055                    0.0305                   4.016521440212324
0.0055                    0.0315                   3.990920253996933
0.0065                    -0.0315                  3.8886811892320257
0.0065                    -0.0305                  3.9116331749762967
0.0065                    -0.0295                  3.9524461802124566
0.0065                    -0.0285                  4.004971872288001
0.0065                    -0.0275                  4.063577551081395
0.0065                    -0.0265                  4.123787642232225
0.0065                    -0.0255                  4.1834948604179685
0.0065                    -0.0245                  4.244126594774971
0.0065                    -0.0235                  4.310004397085071
0.0065                    -0.0225                  4.386176712540559
0.0065                    -0.0215                  4.4740054482795095
0.0065                    -0.0205                  4.565902472847988
0.0065                    -0.0195                  4.646516700093814
0.0065                    -0.0185                  4.704354890485213
0.0065                    -0.0175                  4.740198861977249
0.0065                    -0.0165                  4.76151073569917
0.0065                    -0.0155                  4.773093657277057
0.0065                    -0.0145                  4.773101258924669
0.0065                    -0.0135                  4.757362779957665
0.0065                    -0.0125                  4.726263396462404
0.0065                    -0.0115                  4.685845630669334
0.0065                    -0.0105                  4.646223010737602
0.0065                    -0.0095                  4.618160910906257
0.0065                    -0.0085                  4.605850245204611
0.0065                    -0.0075                  4.606230976091413
0.0065                    -0.0065                  4.616457249460929
0.0065                    -0.0055                  4.637556187596041
0.0065                    -0.0045                  4.672685486995818
0.0065                    -0.0035                  4.7245159786898725
0.0065                    -0.0025                  4.792862281873167
0.0065                    -0.0015                  4.872150862267514
0.0065                    -5.0E-4                  4.950582199360216
0.0065                    5.0E-4                   5.016270971461353
0.0065                    0.0015                   5.064194866090454
0.0065                    0.0025                   5.095001074379912
0.0065                    0.0035                   5.111361450525901
0.0065                    0.0045                   5.116865119237012
0.0065                    0.0055                   5.116318751222167
0.0065                    0.0065                   5.114225709006569
0.0065                    0.0075                   5.111908850888346
0.0065                    0.0085                   5.1074511037948485
0.0065                    0.0095                   5.096679178247291
0.0065                    0.0105                   5.0731629575376695
0.0065                    0.0115                   5.032048732441421
0.0065                    0.0125                   4.975856334142621
0.0065                    0.0135                   4.913772369066892