% Model:              Benchmark260518.mph
% Version:            COMSOL 6.2.0.339
% Date:               May 19 2026, 02:24
% Dimension:          2
% Nodes:              4096
% Expressions:        1
% Description:        压力
% Length unit:        m
% x                       y                        p (Pa)
5.0E-4                    -0.0315                  3.7456554914019757
5.0E-4                    -0.0305                  3.7738237739845815
5.0E-4                    -0.0295                  3.8121491348147005
5.0E-4                    -0.0285                  3.8538759387260626
5.0E-4                    -0.0275                  3.8975878542751725
5.0E-4                    -0.0265                  3.942768557568188
5.0E-4                    -0.0255                  3.9890671062850998
5.0E-4                    -0.0245                  4.036266525805418
5.0E-4                    -0.0235                  4.084183171350722
5.0E-4                    -0.0225                  4.132667688794529
5.0E-4                    -0.0215                  4.181609031051137
5.0E-4                    -0.0205                  4.230942109966474
5.0E-4                    -0.0195                  4.280667212439604
5.0E-4                    -0.0185                  4.330846716058915
5.0E-4                    -0.0175                  4.381617410102045
5.0E-4                    -0.0165                  4.433220290470458
5.0E-4                    -0.0155                  4.485977692997323
5.0E-4                    -0.0145                  4.540511976152589
5.0E-4                    -0.0135                  4.597306530490617
5.0E-4                    -0.0125                  4.654700200277478
5.0E-4                    -0.0115                  4.708842640704658
5.0E-4                    -0.0105                  4.755732485955063
5.0E-4                    -0.0095                  4.79015007608682
5.0E-4                    -0.0085                  4.80985935889044
5.0E-4                    -0.0075                  4.818110196034673
5.0E-4                    -0.0065                  4.818627635689976
5.0E-4                    -0.0055                  4.814874975058761
5.0E-4                    -0.0045                  4.81080446399815
5.0E-4                    -0.0035                  4.809401630456595
5.0E-4                    -0.0025                  4.8082655759573285
5.0E-4                    -0.0015                  4.797158586415449
5.0E-4                    -5.0E-4                  4.76520758516652
5.0E-4                    5.0E-4                   4.71125261303718
5.0E-4                    0.0015                   4.645747519610428
5.0E-4                    0.0025                   4.588161797293382
5.0E-4                    0.0035                   4.554801995997156
5.0E-4                    0.0045                   4.546117925109666
5.0E-4                    0.0055                   4.553675120434059
5.0E-4                    0.0065                   4.6062379410040535
5.0E-4                    0.0075                   4.740724940089911
5.0E-4                    0.0085                   4.843482604850531
5.0E-4                    0.0095                   4.858508867447887
5.0E-4                    0.0105                   4.862986244311461
5.0E-4                    0.0115                   4.870637717391546
5.0E-4                    0.0125                   4.879257898988676
5.0E-4                    0.0135                   4.887636422095635
5.0E-4                    0.0145                   4.892209690918881
5.0E-4                    0.0155                   4.887262286689651
5.0E-4                    0.0165                   4.869676790691114
5.0E-4                    0.0175                   4.841245814421578
5.0E-4                    0.0185                   4.805485966040413
5.0E-4                    0.0195                   4.7657414620163605
5.0E-4                    0.0205                   4.724780112246014
5.0E-4                    0.0215                   4.684179493342807
5.0E-4                    0.0225                   4.644388095697397
5.0E-4                    0.0235                   4.605556507319335
5.0E-4                    0.0245                   4.56778134700149
5.0E-4                    0.0255                   4.5310346933056
5.0E-4                    0.0265                   4.495262705349605
5.0E-4                    0.0275                   4.46047567325567
5.0E-4                    0.0285                   4.426813486711048
5.0E-4                    0.0295                   4.394637493041179
5.0E-4                    0.0305                   4.365112753072234
5.0E-4                    0.0315                   4.3434091928572265
0.0015                    -0.0315                  3.717227709969738
0.0015                    -0.0305                  3.7453927131876257
0.0015                    -0.0295                  3.7863527518676126
0.0015                    -0.0285                  3.8311533565512126
0.0015                    -0.0275                  3.877385467005039
0.0015                    -0.0265                  3.9245489612826683
0.0015                    -0.0255                  3.972504454957228
0.0015                    -0.0245                  4.021160515119693
0.0015                    -0.0235                  4.070402181015911
0.0015                    -0.0225                  4.120071364931187
0.0015                    -0.0215                  4.169997383683858
0.0015                    -0.0205                  4.220040877992315
0.0015                    -0.0195                  4.27012778081852
0.0015                    -0.0185                  4.320266645422019
0.0015                    -0.0175                  4.370560458843842
0.0015                    -0.0165                  4.421246982192315
0.0015                    -0.0155                  4.472804523826164
0.0015                    -0.0145                  4.525959023664079
0.0015                    -0.0135                  4.58136962712769
0.0015                    -0.0125                  4.638577605418164
0.0015                    -0.0115                  4.694768374313247
0.0015                    -0.0105                  4.745868078058638
0.0015                    -0.0095                  4.7847798643072945
0.0015                    -0.0085                  4.808325881462794
0.0015                    -0.0075                  4.819093719987712
0.0015                    -0.0065                  4.818594601400054
0.0015                    -0.0055                  4.809933324250162
0.0015                    -0.0045                  4.798614732999903
0.0015                    -0.0035                  4.79017989233232
0.0015                    -0.0025                  4.784622616744917
0.0015                    -0.0015                  4.773238281025528
0.0015                    -5.0E-4                  4.744215516621021
0.0015                    5.0E-4                   4.692853940111806
0.0015                    0.0015                   4.6277439569815595
0.0015                    0.0025                   4.570620818127946
0.0015                    0.0035                   4.54043594320231
0.0015                    0.0045                   4.534796455175673
0.0015                    0.0055                   4.5404210679023915
0.0015                    0.0065                   4.6503351844440335
0.0015                    0.0075                   4.848300441048446
0.0015                    0.0085                   4.918726156737966
0.0015                    0.0095                   4.875576132043728
0.0015                    0.0105                   4.857231705189515
0.0015                    0.0115                   4.867150689540032
0.0015                    0.0125                   4.882434620507259
0.0015                    0.0135                   4.897258925747874
0.0015                    0.0145                   4.90572803806008
0.0015                    0.0155                   4.902362673662173
0.0015                    0.0165                   4.883828451907479
0.0015                    0.0175                   4.851742345817912
0.0015                    0.0185                   4.810477375451058
0.0015                    0.0195                   4.764763556301011
0.0015                    0.0205                   4.7186540568182735
0.0015                    0.0215                   4.674384816279234
0.0015                    0.0225                   4.632512772974534
0.0015                    0.0235                   4.592745050561659
0.0015                    0.0245                   4.554533830547964
0.0015                    0.0255                   4.517369711005464
0.0015                    0.0265                   4.480885249048755
0.0015                    0.0275                   4.444888532600704
0.0015                    0.0285                   4.409403901949443
0.0015                    0.0295                   4.374885173063486
0.0015                    0.0305                   4.343283646810405
0.0015                    0.0315                   4.321511287155698
0.0025                    -0.0315                  3.678198780389414
0.0025                    -0.0305                  3.7037127769056997
0.0025                    -0.0295                  3.7445998343303386
0.0025                    -0.0285                  3.791783714538965
0.0025                    -0.0275                  3.8409928701956058
0.0025                    -0.0265                  3.8909196735419216
0.0025                    -0.0255                  3.941347549540338
0.0025                    -0.0245                  3.992294697056717
0.0025                    -0.0235                  4.043726335566714
0.0025                    -0.0225                  4.095473918239254
0.0025                    -0.0215                  4.147257502694195
0.0025                    -0.0205                  4.198771536435019
0.0025                    -0.0195                  4.249776933934824
0.0025                    -0.0185                  4.300155144780539
0.0025                    -0.0175                  4.349924083552441
0.0025                    -0.0165                  4.399274787188628
0.0025                    -0.0155                  4.448646288347378
0.0025                    -0.0145                  4.49873414082404
0.0025                    -0.0135                  4.550340703399859
0.0025                    -0.0125                  4.603969881320176
0.0025                    -0.0115                  4.658656815189855
0.0025                    -0.0105                  4.7119591256021
0.0025                    -0.0095                  4.758304742826553
0.0025                    -0.0085                  4.791533520092722
0.0025                    -0.0075                  4.80575120632591
0.0025                    -0.0065                  4.797646982418355
0.0025                    -0.0055                  4.7739379816348855
0.0025                    -0.0045                  4.746963176262975
0.0025                    -0.0035                  4.7263926500398945
0.0025                    -0.0025                  4.714930893880391
0.0025                    -0.0015                  4.707380558046171
0.0025                    -5.0E-4                  4.6929755962393145
0.0025                    5.0E-4                   4.661454353102878
0.0025                    0.0015                   4.614107571555552
0.0025                    0.0025                   4.568630647436795
0.0025                    0.0035                   4.544835072126932
0.0025                    0.0045                   4.552040169736861
0.0025                    0.0055                   4.62740472240729
0.0025                    0.0065                   4.86486150986709
0.0025                    0.0075                   5.111394168439206
0.0025                    0.0085                   5.102478906449798
0.0025                    0.0095                   4.944757950618527
0.0025                    0.0105                   4.862371726692669
0.0025                    0.0115                   4.866465665656854
0.0025                    0.0125                   4.890898430788387
0.0025                    0.0135                   4.91405574098678
0.0025                    0.0145                   4.923401766652919
0.0025                    0.0155                   4.916430569092512
0.0025                    0.0165                   4.893881794535712
0.0025                    0.0175                   4.85625141904484
0.0025                    0.0185                   4.807683558911735
0.0025                    0.0195                   4.754643293799914
0.0025                    0.0205                   4.702411112426083
0.0025                    0.0215                   4.653989117473499
0.0025                    0.0225                   4.609882259132601
0.0025                    0.0235                   4.569117400798502
0.0025                    0.0245                   4.530372104560849
0.0025                    0.0255                   4.492542783972606
0.0025                    0.0265                   4.454903639983998
0.0025                    0.0275                   4.41713642628441
0.0025                    0.0285                   4.379432237856822
0.0025                    0.0295                   4.3429813556420305
0.0025                    0.0305                   4.311256771248876
0.0025                    0.0315                   4.291354056899859
0.0035                    -0.0315                  3.635434497309649
0.0035                    -0.0305                  3.6579078895881567
0.0035                    -0.0295                  3.6963310446979025
0.0035                    -0.0285                  3.7434340264800605
0.0035                    -0.0275                  3.7942586769267876
0.0035                    -0.0265                  3.846408348562348
0.0035                    -0.0255                  3.8991416557326772
0.0035                    -0.0245                  3.9524024268847024
0.0035                    -0.0235                  4.006226449347188
0.0035                    -0.0225                  4.0604676762274465
0.0035                    -0.0215                  4.114737079717687
0.0035                    -0.0205                  4.1684924742389615
0.0035                    -0.0195                  4.221206739591663
0.0035                    -0.0185                  4.27251334774755
0.0035                    -0.0175                  4.322257178133676
0.0035                    -0.0165                  4.3704544959080245
0.0035                    -0.0155                  4.417268513881639
0.0035                    -0.0145                  4.46307714922478
0.0035                    -0.0135                  4.508553307057589
0.0035                    -0.0125                  4.554614427069069
0.0035                    -0.0115                  4.602571951556781
0.0035                    -0.0105                  4.653153472909162
0.0035                    -0.0095                  4.703947636445889
0.0035                    -0.0085                  4.744097308214821
0.0035                    -0.0075                  4.756341286571244
0.0035                    -0.0065                  4.735211472503158
0.0035                    -0.0055                  4.693975578162374
0.0035                    -0.0045                  4.651128331256522
0.0035                    -0.0035                  4.620028183436621
0.0035                    -0.0025                  4.606126774530008
0.0035                    -0.0015                  4.607216308865819
0.0035                    -5.0E-4                  4.617375656159918
0.0035                    5.0E-4                   4.628821756562641
0.0035                    0.0015                   4.635314600294496
0.0035                    0.0025                   4.639461703059061
0.0035                    0.0035                   4.659715306125934
0.0035                    0.0045                   4.731850766795701
0.0035                    0.0055                   4.926370765251819
0.0035                    0.0065                   5.258309628228229
0.0035                    0.0075                   5.497129299931498
0.0035                    0.0085                   5.41725714286237
0.0035                    0.0095                   5.138997639723551
0.0035                    0.0105                   4.938397801577555
0.0035                    0.0115                   4.89095532619889
0.0035                    0.0125                   4.908408586612529
0.0035                    0.0135                   4.933019372702097
0.0035                    0.0145                   4.937392231849327
0.0035                    0.0155                   4.920179508079608
0.0035                    0.0165                   4.8883136877512845
0.0035                    0.0175                   4.8422542974785765
0.0035                    0.0185                   4.786433103586286
0.0035                    0.0195                   4.728591430114911
0.0035                    0.0205                   4.673287506304325
0.0035                    0.0215                   4.623427140257547
0.0035                    0.0225                   4.57883885066706
0.0035                    0.0235                   4.537908762426238
0.0035                    0.0245                   4.4988500021577
0.0035                    0.0255                   4.460251344847376
0.0035                    0.0265                   4.421297177592992
0.0035                    0.0275                   4.3818618301510055
0.0035                    0.0285                   4.34271575205037
0.0035                    0.0295                   4.306028354381154
0.0035                    0.0305                   4.275887893185572
0.0035                    0.0315                   4.258084731033953
0.0045                    -0.0315                  3.590663716899633
0.0045                    -0.0305                  3.610653013212592
0.0045                    -0.0295                  3.646151891439207
0.0045                    -0.0285                  3.6915301423583697
0.0045                    -0.0275                  3.7422316212007756
0.0045                    -0.0265                  3.795331237667631
0.0045                    -0.0255                  3.8494817139999653
0.0045                    -0.0245                  3.9043831949051895
0.0045                    -0.0235                  3.9601293824983226
0.0045                    -0.0225                  4.016703328520476
0.0045                    -0.0215                  4.073716910213476
0.0045                    -0.0205                  4.130409268346277
0.0045                    -0.0195                  4.1858457606540025
0.0045                    -0.0185                  4.239200400601174
0.0045                    -0.0175                  4.289936494492957
0.0045                    -0.0165                  4.337775201406759
0.0045                    -0.0155                  4.382509649635257
0.0045                    -0.0145                  4.4240477857351115
0.0045                    -0.0135                  4.462783873676127
0.0045                    -0.0125                  4.500215468143547
0.0045                    -0.0115                  4.539145998170918
0.0045                    -0.0105                  4.582712903293043
0.0045                    -0.0095                  4.62943088512807
0.0045                    -0.0085                  4.665709373992049
0.0045                    -0.0075                  4.671107738525077
0.0045                    -0.0065                  4.640640325011861
0.0045                    -0.0055                  4.591532479080827
0.0045                    -0.0045                  4.546513345449485
0.0045                    -0.0035                  4.519536052632152
0.0045                    -0.0025                  4.513095583278705
0.0045                    -0.0015                  4.52503833951873
0.0045                    -5.0E-4                  4.556303459850108
0.0045                    5.0E-4                   4.610425031795408
0.0045                    0.0015                   4.689557388482423
0.0045                    0.0025                   4.788955500910917
0.0045                    0.0035                   4.909608291110969
0.0045                    0.0045                   5.082654039497512
0.0045                    0.0055                   5.354266897242642
0.0045                    0.0065                   5.68214651894449
0.0045                    0.0075                   5.867594803957827
0.0045                    0.0085                   5.747206396672398
0.0045                    0.0095                   5.397951153348345
0.0045                    0.0105                   5.075999525608346
0.0045                    0.0115                   4.932860804440865
0.0045                    0.0125                   4.913263827810525
0.0045                    0.0135                   4.92879861205374
0.0045                    0.0145                   4.9309565598435645
0.0045                    0.0155                   4.905403165526824
0.0045                    0.0165                   4.860061037961451
0.0045                    0.0175                   4.80329063028051
0.0045                    0.0185                   4.742532935795675
0.0045                    0.0195                   4.6845057778764305
0.0045                    0.0205                   4.631609635735822
0.0045                    0.0215                   4.584512410017296
0.0045                    0.0225                   4.541988423609922
0.0045                    0.0235                   4.502131881277185
0.0045                    0.0245                   4.463137346452124
0.0045                    0.0255                   4.4237657628688805
0.0045                    0.0265                   4.3835507774448335
0.0045                    0.0275                   4.3429152249312875
0.0045                    0.0285                   4.303334097468402
0.0045                    0.0295                   4.267493967880788
0.0045                    0.0305                   4.2392126255979665
0.0045                    0.0315                   4.223098181677917
0.0055                    -0.0315                  3.5444753040658217
0.0055                    -0.0305                  3.562629069052044
0.0055                    -0.0295                  3.5955916907139605
0.0055                    -0.0285                  3.63882757286722
0.0055                    -0.0275                  3.6883513036561517
0.0055                    -0.0265                  3.7411976457287395
0.0055                    -0.0255                  3.795630502625542
0.0055                    -0.0245                  3.8510744428027586
0.0055                    -0.0235                  3.90768836960162
0.0055                    -0.0225                  3.9657696887861764
0.0055                    -0.0215                  4.025218089259296
0.0055                    -0.0205                  4.085268140074864
0.0055                    -0.0195                  4.144578326778722
0.0055                    -0.0185                  4.201587131612964
0.0055                    -0.0175                  4.2549856351767055
0.0055                    -0.0165                  4.303928468577707
0.0055                    -0.0155                  4.34791721313908
0.0055                    -0.0145                  4.386512864373188
0.0055                    -0.0135                  4.420028162040941
0.0055                    -0.0125                  4.450710967300607
0.0055                    -0.0115                  4.481938828293988
0.0055                    -0.0105                  4.516647731753389
0.0055                    -0.0095                  4.552893969286521
0.0055                    -0.0085                  4.57875689431803
0.0055                    -0.0075                  4.577364063608905
0.0055                    -0.0065                  4.546405935386312
0.0055                    -0.0055                  4.50580085409838
0.0055                    -0.0045                  4.477350648361016
0.0055                    -0.0035                  4.46765174940529
0.0055                    -0.0025                  4.47333937373274
0.0055                    -0.0015                  4.493895558838571
0.0055                    -5.0E-4                  4.537269144936333
0.0055                    5.0E-4                   4.618404451680933
0.0055                    0.0015                   4.75346034548347
0.0055                    0.0025                   4.9399904251938835
0.0055                    0.0035                   5.15476391423854
0.0055                    0.0045                   5.391113297318375
0.0055                    0.0055                   5.657820376750429
0.0055                    0.0065                   5.91511190296227
0.0055                    0.0075                   6.0360847939187705
0.0055                    0.0085                   5.894068370299026
0.0055                    0.0095                   5.517767825652883
0.0055                    0.0105                   5.133293241582468
0.0055                    0.0115                   4.92020475805237
0.0055                    0.0125                   4.857590558757181
0.0055                    0.0135                   4.863435890161108
0.0055                    0.0145                   4.873825747515659
0.0055                    0.0155                   4.853204355270515
0.0055                    0.0165                   4.801373095170167
0.0055                    0.0175                   4.738260480882643
0.0055                    0.0185                   4.678586719962791
0.0055                    0.0195                   4.626360790304317
0.0055                    0.0205                   4.580937379054823
0.0055                    0.0215                   4.540180787902644
0.0055                    0.0225                   4.501952879355271
0.0055                    0.0235                   4.464246595583943
0.0055                    0.0245                   4.425641237060903
0.0055                    0.0255                   4.385542133869632
0.0055                    0.0265                   4.344233722094843
0.0055                    0.0275                   4.302855932283865
0.0055                    0.0285                   4.263391684842726
0.0055                    0.0295                   4.228590957374662
0.0055                    0.0305                   4.201828936448213
0.0055                    0.0315                   4.186906351927768
0.0065                    -0.0315                  3.49712024399777
0.0065                    -0.0305                  3.5139532968930527
0.0065                    -0.0295                  3.5449504118318145
0.0065                    -0.0285                  3.5862931849243496
0.0065                    -0.0275                  3.6344325267031503
0.0065                    -0.0265                  3.68646160130442
0.0065                    -0.0255                  3.740375933707195
0.0065                    -0.0245                  3.795302769433991
0.0065                    -0.0235                  3.8514311647317276
0.0065                    -0.0225                  3.909550658734456
0.0065                    -0.0215                  3.970318500860429
0.0065                    -0.0205                  4.033514188682362
0.0065                    -0.0195                  4.097685888465057
0.0065                    -0.0185                  4.160393873152979
0.0065                    -0.0175                  4.218926578502268
0.0065                    -0.0165                  4.271312271803367
0.0065                    -0.0155                  4.316435555847689
0.0065                    -0.0145                  4.354015975880096
0.0065                    -0.0135                  4.384975130706941
0.0065                    -0.0125                  4.411487575257763
0.0065                    -0.0115                  4.436915079020809
0.0065                    -0.0105                  4.4632931425513895
0.0065                    -0.0095                  4.48936952053575
0.0065                    -0.0085                  4.506598580729191
0.0065                    -0.0075                  4.502294894299386
0.0065                    -0.0065                  4.479774898781484
0.0065                    -0.0055                  4.458244788830551
0.0065                    -0.0045                  4.449656051255842
0.0065                    -0.0035                  4.452961275189883
0.0065                    -0.0025                  4.46558607531534
0.0065                    -0.0015                  4.491924837386026
0.0065                    -5.0E-4                  4.5462184815904685
0.0065                    5.0E-4                   4.650201428691808
0.0065                    0.0015                   4.8194171863591775
0.0065                    0.0025                   5.042163112200727
0.0065                    0.0035                   5.28376079891488
0.0065                    0.0045                   5.521684448760806
0.0065                    0.0055                   5.745232565982573
0.0065                    0.0065                   5.918691114742215
0.0065                    0.0075                   5.966878477042998
0.0065                    0.0085                   5.805310226261375
0.0065                    0.0095                   5.446966487211741
0.0065                    0.0105                   5.074840149734502
0.0065                    0.0115                   4.847852735930154
0.0065                    0.0125                   4.760438705594889
0.0065                    0.0135                   4.751969156144808