% Model:              Benchmark260518.mph
% Version:            COMSOL 6.2.0.339
% Date:               May 21 2026, 06:26
% Dimension:          2
% Nodes:              4096
% Expressions:        1
% Description:        压力
% Length unit:        m
% x                       y                        p (Pa)
5.0E-4                    -0.0315                  3.522633272341726
5.0E-4                    -0.0305                  3.541216209529075
5.0E-4                    -0.0295                  3.5665642814720924
5.0E-4                    -0.0285                  3.5942702736930165
5.0E-4                    -0.0275                  3.6232767531072128
5.0E-4                    -0.0265                  3.653167873333438
5.0E-4                    -0.0255                  3.6837214665004034
5.0E-4                    -0.0245                  3.7148337234076214
5.0E-4                    -0.0235                  3.7464405208795832
5.0E-4                    -0.0225                  3.7784992801377264
5.0E-4                    -0.0215                  3.810988775169056
5.0E-4                    -0.0205                  3.8439119366635666
5.0E-4                    -0.0195                  3.877290982413519
5.0E-4                    -0.0185                  3.911147148999827
5.0E-4                    -0.0175                  3.9454736996448734
5.0E-4                    -0.0165                  3.9802559238830177
5.0E-4                    -0.0155                  4.015502376407737
5.0E-4                    -0.0145                  4.051219205156758
5.0E-4                    -0.0135                  4.0873763415002955
5.0E-4                    -0.0125                  4.123909742719886
5.0E-4                    -0.0115                  4.160729466509309
5.0E-4                    -0.0105                  4.197723813725191
5.0E-4                    -0.0095                  4.234770381752213
5.0E-4                    -0.0085                  4.271740312846779
5.0E-4                    -0.0075                  4.30850269681319
5.0E-4                    -0.0065                  4.344924203855156
5.0E-4                    -0.0055                  4.38086185668565
5.0E-4                    -0.0045                  4.416167201249725
5.0E-4                    -0.0035                  4.4506833908636985
5.0E-4                    -0.0025                  4.484218109622586
5.0E-4                    -0.0015                  4.5166858356670705
5.0E-4                    -5.0E-4                  4.548019307206079
5.0E-4                    5.0E-4                   4.577532132070261
5.0E-4                    0.0015                   4.603872129080912
5.0E-4                    0.0025                   4.625544601998303
5.0E-4                    0.0035                   4.641202523391637
5.0E-4                    0.0045                   4.650042359858126
5.0E-4                    0.0055                   4.652800000965392
5.0E-4                    0.0065                   4.6520378067752155
5.0E-4                    0.0075                   4.650043975921794
5.0E-4                    0.0085                   4.64733464827154
5.0E-4                    0.0095                   4.643471789002014
5.0E-4                    0.0105                   4.638771138701947
5.0E-4                    0.0115                   4.650082896923243
5.0E-4                    0.0125                   4.712589039288458
5.0E-4                    0.0135                   4.8120168262845215
5.0E-4                    0.0145                   4.892436812721256
5.0E-4                    0.0155                   4.9392322958236505
5.0E-4                    0.0165                   4.966644781343328
5.0E-4                    0.0175                   4.983668903369304
5.0E-4                    0.0185                   4.991886064320769
5.0E-4                    0.0195                   4.985298987661547
5.0E-4                    0.0205                   4.957234033018642
5.0E-4                    0.0215                   4.913141543338788
5.0E-4                    0.0225                   4.863377750085065
5.0E-4                    0.0235                   4.812210046740251
5.0E-4                    0.0245                   4.761021013594913
5.0E-4                    0.0255                   4.70986794362549
5.0E-4                    0.0265                   4.658969549863605
5.0E-4                    0.0275                   4.608783573321714
5.0E-4                    0.0285                   4.559849831006139
5.0E-4                    0.0295                   4.512898156103748
5.0E-4                    0.0305                   4.469686877922811
5.0E-4                    0.0315                   4.4379900729249195
0.0015                    -0.0315                  3.503933920422866
0.0015                    -0.0305                  3.5225128192947808
0.0015                    -0.0295                  3.5495681550309137
0.0015                    -0.0285                  3.579250575154037
0.0015                    -0.0275                  3.609894218758814
0.0015                    -0.0265                  3.641048277382932
0.0015                    -0.0255                  3.6725599673428064
0.0015                    -0.0245                  3.7043754686481494
0.0015                    -0.0235                  3.7364790840405524
0.0015                    -0.0225                  3.7688676986912766
0.0015                    -0.0215                  3.801549489684793
0.0015                    -0.0205                  3.83454927756232
0.0015                    -0.0195                  3.8679083420618197
0.0015                    -0.0185                  3.9016765814103462
0.0015                    -0.0175                  3.9359051179524442
0.0015                    -0.0165                  3.9706479889882527
0.0015                    -0.0155                  4.005968476396383
0.0015                    -0.0145                  4.04192769435356
0.0015                    -0.0135                  4.0785558597491285
0.0015                    -0.0125                  4.1158321539741936
0.0015                    -0.0115                  4.1536821469622325
0.0015                    -0.0105                  4.191985582537522
0.0015                    -0.0095                  4.23059128876296
0.0015                    -0.0085                  4.269335785272102
0.0015                    -0.0075                  4.3080565038432095
0.0015                    -0.0065                  4.346596371435869
0.0015                    -0.0055                  4.384800997698655
0.0015                    -0.0045                  4.422508432934164
0.0015                    -0.0035                  4.459532865250602
0.0015                    -0.0025                  4.49568426146963
0.0015                    -0.0015                  4.530750250019709
0.0015                    -5.0E-4                  4.564198186151559
0.0015                    5.0E-4                   4.594873228974585
0.0015                    0.0015                   4.621089856021512
0.0015                    0.0025                   4.641014353387451
0.0015                    0.0035                   4.6532800437229636
0.0015                    0.0045                   4.657929228413687
0.0015                    0.0055                   4.657156074916855
0.0015                    0.0065                   4.654256579619949
0.0015                    0.0075                   4.651082048299369
0.0015                    0.0085                   4.647520407254865
0.0015                    0.0095                   4.643675653768597
0.0015                    0.0105                   4.641589714084986
0.0015                    0.0115                   4.642456815644909
0.0015                    0.0125                   4.696924945190287
0.0015                    0.0135                   4.794675788650839
0.0015                    0.0145                   4.863826031843752
0.0015                    0.0155                   4.90165492403349
0.0015                    0.0165                   4.923292574347184
0.0015                    0.0175                   4.9385246093538235
0.0015                    0.0185                   4.948762540916453
0.0015                    0.0195                   4.950405659882815
0.0015                    0.0205                   4.936225582503608
0.0015                    0.0215                   4.902543945833164
0.0015                    0.0225                   4.855761299987214
0.0015                    0.0235                   4.80391525240201
0.0015                    0.0245                   4.750459551436833
0.0015                    0.0255                   4.696516659253778
0.0015                    0.0265                   4.6425701623546765
0.0015                    0.0275                   4.588992244623571
0.0015                    0.0285                   4.536198113806921
0.0015                    0.0295                   4.484981699524715
0.0015                    0.0305                   4.438274305397677
0.0015                    0.0315                   4.4063581860675765
0.0025                    -0.0315                  3.4782555395121766
0.0025                    -0.0305                  3.495105709671733
0.0025                    -0.0295                  3.522098703726865
0.0025                    -0.0285                  3.5533041861506574
0.0025                    -0.0275                  3.5858468334803772
0.0025                    -0.0265                  3.618730007914676
0.0025                    -0.0255                  3.6516674139705594
0.0025                    -0.0245                  3.684593464799841
0.0025                    -0.0235                  3.717514259801245
0.0025                    -0.0225                  3.750460287863402
0.0025                    -0.0215                  3.783473174744186
0.0025                    -0.0205                  3.8166073165800003
0.0025                    -0.0195                  3.849935615396917
0.0025                    -0.0185                  3.8835554095387064
0.0025                    -0.0175                  3.9175938653695535
0.0025                    -0.0165                  3.952207587197968
0.0025                    -0.0155                  3.987572550179591
0.0025                    -0.0145                  4.0238648814453155
0.0025                    -0.0135                  4.061229470473567
0.0025                    -0.0125                  4.099742234819889
0.0025                    -0.0115                  4.139384197237783
0.0025                    -0.0105                  4.180038916952444
0.0025                    -0.0095                  4.22151284686436
0.0025                    -0.0085                  4.263570804209368
0.0025                    -0.0075                  4.305971086703855
0.0025                    -0.0065                  4.3484854351656095
0.0025                    -0.0055                  4.390896393413743
0.0025                    -0.0045                  4.432971869941671
0.0025                    -0.0035                  4.4744302328416055
0.0025                    -0.0025                  4.514870609683252
0.0025                    -0.0015                  4.553599934839761
0.0025                    -5.0E-4                  4.589439479651846
0.0025                    5.0E-4                   4.620641247823714
0.0025                    0.0015                   4.645082513246782
0.0025                    0.0025                   4.660933924357035
0.0025                    0.0035                   4.667818373702921
0.0025                    0.0045                   4.6676461536931795
0.0025                    0.0055                   4.663740271886801
0.0025                    0.0065                   4.658859042848245
0.0025                    0.0075                   4.653870454404694
0.0025                    0.0085                   4.649040607228672
0.0025                    0.0095                   4.6459371755288865
0.0025                    0.0105                   4.647019738492934
0.0025                    0.0115                   4.667560525664244
0.0025                    0.0125                   4.725644568496456
0.0025                    0.0135                   4.7959880437658855
0.0025                    0.0145                   4.8451326029005415
0.0025                    0.0155                   4.873695358806249
0.0025                    0.0165                   4.89165923264109
0.0025                    0.0175                   4.905770085266108
0.0025                    0.0185                   4.916161571296461
0.0025                    0.0195                   4.918771032809067
0.0025                    0.0205                   4.907948777962351
0.0025                    0.0215                   4.880151955527182
0.0025                    0.0225                   4.837211429887333
0.0025                    0.0235                   4.784919031127101
0.0025                    0.0245                   4.728400233219253
0.0025                    0.0255                   4.6702234495943635
0.0025                    0.0265                   4.611512021318261
0.0025                    0.0275                   4.552879873200316
0.0025                    0.0285                   4.495045945239389
0.0025                    0.0295                   4.439846323325442
0.0025                    0.0305                   4.392394520993997
0.0025                    0.0315                   4.363145597071844
0.0035                    -0.0315                  3.4500723832614173
0.0035                    -0.0305                  3.464881624338137
0.0035                    -0.0295                  3.4901698263057086
0.0035                    -0.0285                  3.5212201784701893
0.0035                    -0.0275                  3.55473801055429
0.0035                    -0.0265                  3.588996179197104
0.0035                    -0.0255                  3.623288489995301
0.0035                    -0.0245                  3.657378784110259
0.0035                    -0.0235                  3.6912152535464777
0.0035                    -0.0225                  3.724818192447416
0.0035                    -0.0215                  3.7582395246242806
0.0035                    -0.0205                  3.7915531712912665
0.0035                    -0.0195                  3.8248613702931094
0.0035                    -0.0185                  3.8583084407103523
0.0035                    -0.0175                  3.892094095057204
0.0035                    -0.0165                  3.926478385397317
0.0035                    -0.0155                  3.9617718722356337
0.0035                    -0.0145                  3.998308613048379
0.0035                    -0.0135                  4.036402139140463
0.0035                    -0.0125                  4.076288086800611
0.0035                    -0.0115                  4.11806819878041
0.0035                    -0.0105                  4.1616783152151235
0.0035                    -0.0095                  4.206895850301467
0.0035                    -0.0085                  4.253385556098437
0.0035                    -0.0075                  4.300763724560739
0.0035                    -0.0065                  4.348647334284946
0.0035                    -0.0055                  4.396662017160218
0.0035                    -0.0045                  4.444402103745091
0.0035                    -0.0035                  4.491333147873101
0.0035                    -0.0025                  4.536618346484845
0.0035                    -0.0015                  4.578918851484239
0.0035                    -5.0E-4                  4.616305879111982
0.0035                    5.0E-4                   4.646413184448418
0.0035                    0.0015                   4.6671112448181535
0.0035                    0.0025                   4.677639130194501
0.0035                    0.0035                   4.679712880164923
0.0035                    0.0045                   4.676720885853961
0.0035                    0.0055                   4.671430480270109
0.0035                    0.0065                   4.6651223421315215
0.0035                    0.0075                   4.65865878742746
0.0035                    0.0085                   4.653479883846892
0.0035                    0.0095                   4.652026687549726
0.0035                    0.0105                   4.660503315638895
0.0035                    0.0115                   4.691992516185855
0.0035                    0.0125                   4.744634788583449
0.0035                    0.0135                   4.794865425665789
0.0035                    0.0145                   4.8285185801790025
0.0035                    0.0155                   4.849228991758434
0.0035                    0.0165                   4.864665176734964
0.0035                    0.0175                   4.878027579789245
0.0035                    0.0185                   4.887732725099703
0.0035                    0.0195                   4.888885485660093
0.0035                    0.0205                   4.8765247698474345
0.0035                    0.0215                   4.848811843123463
0.0035                    0.0225                   4.806811767166046
0.0035                    0.0235                   4.753995312820571
0.0035                    0.0245                   4.694749382240819
0.0035                    0.0255                   4.632415860745177
0.0035                    0.0265                   4.5689364352390065
0.0035                    0.0275                   4.505615601713293
0.0035                    0.0285                   4.444103380962045
0.0035                    0.0295                   4.387628973133056
0.0035                    0.0305                   4.342154044326
0.0035                    0.0315                   4.31603330369223
0.0045                    -0.0315                  3.4205983191949594
0.0045                    -0.0305                  3.433597008138568
0.0045                    -0.0295                  3.45671051806535
0.0045                    -0.0285                  3.486363058916988
0.0045                    -0.0275                  3.5195992544774874
0.0045                    -0.0265                  3.55437584836668
0.0045                    -0.0255                  3.589537268821858
0.0045                    -0.0245                  3.624545089009241
0.0045                    -0.0235                  3.6591913231783786
0.0045                    -0.0225                  3.693424557099104
0.0045                    -0.0215                  3.7272688789618154
0.0045                    -0.0205                  3.7607941878255677
0.0045                    -0.0195                  3.79411498396009
0.0045                    -0.0185                  3.8274046274064544
0.0045                    -0.0175                  3.8609142238821184
0.0045                    -0.0165                  3.8949861301882294
0.0045                    -0.0155                  3.9300532127997827
0.0045                    -0.0145                  3.9666160231462104
0.0045                    -0.0135                  4.005192715797609
0.0045                    -0.0125                  4.0462423197458754
0.0045                    -0.0115                  4.090072945145273
0.0045                    -0.0105                  4.136761095883857
0.0045                    -0.0095                  4.1861146955960855
0.0045                    -0.0085                  4.237700206938345
0.0045                    -0.0075                  4.290925768699809
0.0045                    -0.0065                  4.345136720504634
0.0045                    -0.0055                  4.399659904960658
0.0045                    -0.0045                  4.4537552274601575
0.0045                    -0.0035                  4.5064677053452336
0.0045                    -0.0025                  4.556412983780886
0.0045                    -0.0015                  4.601575525021776
0.0045                    -5.0E-4                  4.639337374742522
0.0045                    5.0E-4                   4.66704243494848
0.0045                    0.0015                   4.683329981022187
0.0045                    0.0025                   4.689454254615585
0.0045                    0.0035                   4.689012430928182
0.0045                    0.0045                   4.6852492434316755
0.0045                    0.0055                   4.679458982430887
0.0045                    0.0065                   4.672560313123421
0.0045                    0.0075                   4.665921325797778
0.0045                    0.0085                   4.661524035759587
0.0045                    0.0095                   4.663691761846836
0.0045                    0.0105                   4.6802432095872275
0.0045                    0.0115                   4.714168880243354
0.0045                    0.0125                   4.7551287779219455
0.0045                    0.0135                   4.788774024425216
0.0045                    0.0145                   4.811138606553097
0.0045                    0.0155                   4.827082446667943
0.0045                    0.0165                   4.840930423353109
0.0045                    0.0175                   4.853170928771338
0.0045                    0.0185                   4.860709403904988
0.0045                    0.0195                   4.85811706835666
0.0045                    0.0205                   4.841492783225647
0.0045                    0.0215                   4.810379687159837
0.0045                    0.0225                   4.766248629390275
0.0045                    0.0235                   4.711825583756204
0.0045                    0.0245                   4.650341900604607
0.0045                    0.0255                   4.584868809774067
0.0045                    0.0265                   4.5178974186205165
0.0045                    0.0275                   4.45161591819574
0.0045                    0.0285                   4.38870826159196
0.0045                    0.0295                   4.333126237405782
0.0045                    0.0305                   4.290369251904706
0.0045                    0.0315                   4.266783844303575
0.0055                    -0.0315                  3.3902580083682206
0.0055                    -0.0305                  3.4017684983208873
0.0055                    -0.0295                  3.4227566210089524
0.0055                    -0.0285                  3.4504902793230707
0.0055                    -0.0275                  3.482515135110517
0.0055                    -0.0265                  3.5168766771788613
0.0055                    -0.0255                  3.552200274878772
0.0055                    -0.0245                  3.587662455768475
0.0055                    -0.0235                  3.6228424034320668
0.0055                    -0.0225                  3.6575613687091093
0.0055                    -0.0215                  3.6917750365068778
0.0055                    -0.0205                  3.7255198281462363
0.0055                    -0.0195                  3.7588968628506025
0.0055                    -0.0185                  3.7920800892634308
0.0055                    -0.0175                  3.8253375148332
0.0055                    -0.0165                  3.859054460321927
0.0055                    -0.0155                  3.8937472331895426
0.0055                    -0.0145                  3.9300554094967675
0.0055                    -0.0135                  3.9687012791292746
0.0055                    -0.0125                  4.0104081225634705
0.0055                    -0.0115                  4.055778606634764
0.0055                    -0.0105                  4.105153517659429
0.0055                    -0.0095                  4.158493968764188
0.0055                    -0.0085                  4.215337576186425
0.0055                    -0.0075                  4.27485483770881
0.0055                    -0.0065                  4.335983280740896
0.0055                    -0.0055                  4.397551730595842
0.0055                    -0.0045                  4.4582805462497355
0.0055                    -0.0035                  4.516642418964268
0.0055                    -0.0025                  4.570661631627197
0.0055                    -0.0015                  4.617794559871384
0.0055                    -5.0E-4                  4.655103121825945
0.0055                    5.0E-4                   4.68039515069948
0.0055                    0.0015                   4.693666768235719
0.0055                    0.0025                   4.697862427127355
0.0055                    0.0035                   4.697105392884029
0.0055                    0.0045                   4.693541380639596
0.0055                    0.0055                   4.687915779330523
0.0055                    0.0065                   4.6813244272860794
0.0055                    0.0075                   4.675164132079731
0.0055                    0.0085                   4.6724291546606125
0.0055                    0.0095                   4.678608204214328
0.0055                    0.0105                   4.697349676863903
0.0055                    0.0115                   4.725505260697972
0.0055                    0.0125                   4.754669847005442
0.0055                    0.0135                   4.777338950978947
0.0055                    0.0145                   4.793544827125022
0.0055                    0.0155                   4.807177731674076
0.0055                    0.0165                   4.819628033787248
0.0055                    0.0175                   4.829774772713677
0.0055                    0.0185                   4.833113926528962
0.0055                    0.0195                   4.824429772980512
0.0055                    0.0205                   4.801554092632252
0.0055                    0.0215                   4.765153554086397
0.0055                    0.0225                   4.717237888392903
0.0055                    0.0235                   4.660293526012069
0.0055                    0.0245                   4.59688197447945
0.0055                    0.0255                   4.529561525561947
0.0055                    0.0265                   4.460941779490746
0.0055                    0.0275                   4.393815601344112
0.0055                    0.0285                   4.331452520279544
0.0055                    0.0295                   4.2778303944097695
0.0055                    0.0305                   4.237702230102116
0.0055                    0.0315                   4.216094853390456
0.0065                    -0.0315                  3.3592633745716722
0.0065                    -0.0305                  3.3695559834043904
0.0065                    -0.0295                  3.3886283020594608
0.0065                    -0.0285                  3.4143336157043995
0.0065                    -0.0275                  3.4446655539295215
0.0065                    -0.0265                  3.477910051318439
0.0065                    -0.0255                  3.5127002727445804
0.0065                    -0.0245                  3.5480622857639954
0.0065                    -0.0235                  3.583389187342196
0.0065                    -0.0225                  3.6183540040935815
0.0065                    -0.0215                  3.6528152010511885
0.0065                    -0.0205                  3.686749830001639
0.0065                    -0.0195                  3.7202207263274243
0.0065                    -0.0185                  3.753372953200726
0.0065                    -0.0175                  3.786452302637845
0.0065                    -0.0165                  3.81983627442552
0.0065                    -0.0155                  3.85406473542338
0.0065                    -0.0145                  3.8898554318630945
0.0065                    -0.0135                  3.9280885559254535
0.0065                    -0.0125                  3.9697433219255287
0.0065                    -0.0115                  4.015771888221317
0.0065                    -0.0105                  4.066910276347368
0.0065                    -0.0095                  4.123458133589519
0.0065                    -0.0085                  4.185099781859818
0.0065                    -0.0075                  4.250848329235163
0.0065                    -0.0065                  4.319145148720892
0.0065                    -0.0055                  4.388073891647852
0.0065                    -0.0045                  4.4555420323803006
0.0065                    -0.0035                  4.519271904976847
0.0065                    -0.0025                  4.576723534385766
0.0065                    -0.0015                  4.625142160682495
0.0065                    -5.0E-4                  4.662002222494019
0.0065                    5.0E-4                   4.686239135682955
0.0065                    0.0015                   4.69904956898306
0.0065                    0.0025                   4.703974218009562
0.0065                    0.0035                   4.704473511444636
0.0065                    0.0045                   4.701874538623587
0.0065                    0.0055                   4.696941724641395
0.0065                    0.0065                   4.690664115008699
0.0065                    0.0075                   4.684902283663146
0.0065                    0.0085                   4.683323495273408
0.0065                    0.0095                   4.689403313816901
0.0065                    0.0105                   4.704069713760932
0.0065                    0.0115                   4.724759139562436
0.0065                    0.0125                   4.745433001887678