% Model:              模型结构导入comsolBench.mph
% Version:            COMSOL 6.2.0.339
% Date:               May 14 2026, 09:35
% Dimension:          2
% Nodes:              4096
% Expressions:        1
% Description:        温度
% Length unit:        m
% x                       y                        T (K)
5.0E-4                    -0.0315                  300.62692033316284
5.0E-4                    -0.0305                  300.62735418337235
5.0E-4                    -0.0295                  300.62778803358185
5.0E-4                    -0.0285                  300.6282218837914
5.0E-4                    -0.0275                  300.62901226257986
5.0E-4                    -0.0265                  300.63062728504167
5.0E-4                    -0.0255                  300.63224230750353
5.0E-4                    -0.0245                  300.63385732996534
5.0E-4                    -0.0235                  300.6357587812235
5.0E-4                    -0.0225                  300.63718663539197
5.0E-4                    -0.0215                  300.6384697786013
5.0E-4                    -0.0205                  300.63975292181067
5.0E-4                    -0.0195                  300.64102236542163
5.0E-4                    -0.0185                  300.6410160839277
5.0E-4                    -0.0175                  300.64075091066684
5.0E-4                    -0.0165                  300.640485737406
5.0E-4                    -0.0155                  300.6390698474205
5.0E-4                    -0.0145                  300.6367770269286
5.0E-4                    -0.0135                  300.6343872268853
5.0E-4                    -0.0125                  300.63073288599503
5.0E-4                    -0.0115                  300.6266560814477
5.0E-4                    -0.0105                  300.62184179597403
5.0E-4                    -0.0095                  300.6166812239229
5.0E-4                    -0.0085                  300.61144458557567
5.0E-4                    -0.0075                  300.6066910972962
5.0E-4                    -0.0065                  300.60323149290446
5.0E-4                    -0.0055                  300.26933510193874
5.0E-4                    -0.0045                  299.5306924993633
5.0E-4                    -0.0035                  298.89092451991087
5.0E-4                    -0.0025                  298.3002291947463
5.0E-4                    -0.0015                  297.66029419651056
5.0E-4                    -5.0E-4                  297.2016308405407
5.0E-4                    5.0E-4                   296.8419375089576
5.0E-4                    0.0015                   296.5003182412832
5.0E-4                    0.0025                   296.26013552052694
5.0E-4                    0.0035                   296.1145212362779
5.0E-4                    0.0045                   295.99219460934546
5.0E-4                    0.0055                   295.90274202055593
5.0E-4                    0.0065                   295.8470599923128
5.0E-4                    0.0075                   295.7989257492601
5.0E-4                    0.0085                   295.7614642360446
5.0E-4                    0.0095                   295.73923248274383
5.0E-4                    0.0105                   295.71696768580557
5.0E-4                    0.0115                   295.6985550733283
5.0E-4                    0.0125                   295.69098932262943
5.0E-4                    0.0135                   295.673920888952
5.0E-4                    0.0145                   295.65757703611484
5.0E-4                    0.0155                   295.64110106671
5.0E-4                    0.0165                   295.6110571370526
5.0E-4                    0.0175                   295.57261621758965
5.0E-4                    0.0185                   295.53106631100906
5.0E-4                    0.0195                   295.50510917076105
5.0E-4                    0.0205                   295.42220831001583
5.0E-4                    0.0215                   294.7302400191023
5.0E-4                    0.0225                   293.22111339424083
5.0E-4                    0.0235                   293.1499139583509
5.0E-4                    0.0245                   293.15013033963675
5.0E-4                    0.0255                   293.1552167592454
5.0E-4                    0.0265                   293.2555479109377
5.0E-4                    0.0275                   293.30626454325466
5.0E-4                    0.0285                   293.3403398962932
5.0E-4                    0.0295                   293.38421828830417
5.0E-4                    0.0305                   293.35171203062544
5.0E-4                    0.0315                   293.3244627698043
0.0015                    -0.0315                  300.62400592109475
0.0015                    -0.0305                  300.6252322120945
0.0015                    -0.0295                  300.625666062304
0.0015                    -0.0285                  300.6261364586536
0.0015                    -0.0275                  300.6271610190108
0.0015                    -0.0265                  300.62851798006096
0.0015                    -0.0255                  300.6301330025227
0.0015                    -0.0245                  300.6318043195953
0.0015                    -0.0235                  300.6340938902777
0.0015                    -0.0225                  300.63600280444354
0.0015                    -0.0215                  300.6372859476528
0.0015                    -0.0205                  300.6385993725857
0.0015                    -0.0195                  300.63991833648555
0.0015                    -0.0185                  300.6406585201453
0.0015                    -0.0175                  300.6403933468844
0.0015                    -0.0165                  300.6398092808911
0.0015                    -0.0155                  300.6388777515085
0.0015                    -0.0145                  300.6366696028191
0.0015                    -0.0135                  300.63377400330785
0.0015                    -0.0125                  300.6305606635125
0.0015                    -0.0115                  300.6261317508997
0.0015                    -0.0105                  300.62138490808775
0.0015                    -0.0095                  300.6158708028574
0.0015                    -0.0085                  300.609847403898
0.0015                    -0.0075                  300.6045143138957
0.0015                    -0.0065                  300.5998087161305
0.0015                    -0.0055                  300.1727331562162
0.0015                    -0.0045                  299.2641828175325
0.0015                    -0.0035                  298.1939084504492
0.0015                    -0.0025                  297.09059046538727
0.0015                    -0.0015                  296.43607283095173
0.0015                    -5.0E-4                  295.94760872325503
0.0015                    5.0E-4                   295.43988005592325
0.0015                    0.0015                   295.22916524368406
0.0015                    0.0025                   295.10057087965873
0.0015                    0.0035                   294.95067641541124
0.0015                    0.0045                   294.8748695972901
0.0015                    0.0055                   294.8674022171252
0.0015                    0.0065                   294.81867720290495
0.0015                    0.0075                   294.8253272218494
0.0015                    0.0085                   294.85678559123716
0.0015                    0.0095                   294.8488885456891
0.0015                    0.0105                   294.87999593632446
0.0015                    0.0115                   294.9187250589705
0.0015                    0.0125                   294.9071755206704
0.0015                    0.0135                   294.92577179071475
0.0015                    0.0145                   294.9639220181497
0.0015                    0.0155                   294.9447440152436
0.0015                    0.0165                   294.94737084427373
0.0015                    0.0175                   294.9433521836569
0.0015                    0.0185                   294.8664402915334
0.0015                    0.0195                   294.7950510064966
0.0015                    0.0205                   294.65136665617774
0.0015                    0.0215                   294.3872619916097
0.0015                    0.0225                   293.2456107921857
0.0015                    0.0235                   293.1492242939846
0.0015                    0.0245                   293.1500822315222
0.0015                    0.0255                   293.16037449523486
0.0015                    0.0265                   293.2338967123432
0.0015                    0.0275                   293.26869245999484
0.0015                    0.0285                   293.33165542326276
0.0015                    0.0295                   293.35746330848735
0.0015                    0.0305                   293.3233622863191
0.0015                    0.0315                   293.32307769318226
0.0025                    -0.0315                  300.6210724838504
0.0025                    -0.0305                  300.622355850379
0.0025                    -0.0295                  300.62354409102613
0.0025                    -0.0285                  300.6243159019108
0.0025                    -0.0275                  300.62534046226796
0.0025                    -0.0265                  300.6264086750801
0.0025                    -0.0255                  300.62802369754195
0.0025                    -0.0245                  300.6301394286495
0.0025                    -0.0235                  300.6324289993319
0.0025                    -0.0225                  300.6347185700144
0.0025                    -0.0215                  300.6361150322231
0.0025                    -0.0205                  300.6374907540283
0.0025                    -0.0195                  300.6388143075496
0.0025                    -0.0185                  300.6396032861769
0.0025                    -0.0175                  300.64000592611444
0.0025                    -0.0165                  300.63907439673187
0.0025                    -0.0155                  300.63814286734913
0.0025                    -0.0145                  300.6362330812482
0.0025                    -0.0135                  300.6331743386769
0.0025                    -0.0125                  300.6300245650883
0.0025                    -0.0115                  300.62525923066323
0.0025                    -0.0105                  300.62028989268117
0.0025                    -0.0095                  300.6143398143505
0.0025                    -0.0085                  300.60753908045024
0.0025                    -0.0075                  300.60023789105117
0.0025                    -0.0065                  300.5929709467269
0.0025                    -0.0055                  299.82845325067177
0.0025                    -0.0045                  298.30065484818454
0.0025                    -0.0035                  296.7322695285419
0.0025                    -0.0025                  295.873851302994
0.0025                    -0.0015                  295.3137950401039
0.0025                    -5.0E-4                  294.8901790312886
0.0025                    5.0E-4                   294.6431640082408
0.0025                    0.0015                   294.5138258081639
0.0025                    0.0025                   294.4102173684218
0.0025                    0.0035                   294.34298596736653
0.0025                    0.0045                   294.3080413273591
0.0025                    0.0055                   294.2816567486238
0.0025                    0.0065                   294.27780667403704
0.0025                    0.0075                   294.2709189724786
0.0025                    0.0085                   294.27062621893276
0.0025                    0.0095                   294.2841552007321
0.0025                    0.0105                   294.292367473322
0.0025                    0.0115                   294.3108444777211
0.0025                    0.0125                   294.3269887713077
0.0025                    0.0135                   294.34511740262235
0.0025                    0.0145                   294.37346861812216
0.0025                    0.0155                   294.3849122915944
0.0025                    0.0165                   294.39531094872854
0.0025                    0.0175                   294.40531283561853
0.0025                    0.0185                   294.38876171742663
0.0025                    0.0195                   294.35910758362445
0.0025                    0.0205                   294.312355182979
0.0025                    0.0215                   294.196641969007
0.0025                    0.0225                   293.383855026439
0.0025                    0.0235                   293.1553552547937
0.0025                    0.0245                   293.1501616050597
0.0025                    0.0255                   293.163372932708
0.0025                    0.0265                   293.2175141097034
0.0025                    0.0275                   293.2414002502084
0.0025                    0.0285                   293.28884392689554
0.0025                    0.0295                   293.35371872765387
0.0025                    0.0305                   293.3204394359466
0.0025                    0.0315                   293.320460366593
0.0035                    -0.0315                  300.61813904660596
0.0035                    -0.0305                  300.61941648694165
0.0035                    -0.0295                  300.6192658905777
0.0035                    -0.0285                  300.6205226105405
0.0035                    -0.0275                  300.62262198099984
0.0035                    -0.0265                  300.62454446588237
0.0035                    -0.0255                  300.6261849670213
0.0035                    -0.0245                  300.6282792489528
0.0035                    -0.0235                  300.63009884851067
0.0035                    -0.0225                  300.6319184480685
0.0035                    -0.0215                  300.6344641103726
0.0035                    -0.0205                  300.6358335793085
0.0035                    -0.0195                  300.6370707848212
0.0035                    -0.0185                  300.63780456461575
0.0035                    -0.0175                  300.6386487799009
0.0035                    -0.0165                  300.6382683062739
0.0035                    -0.0155                  300.63728582880407
0.0035                    -0.0145                  300.6354797017226
0.0035                    -0.0135                  300.6326251104464
0.0035                    -0.0125                  300.62893779648437
0.0035                    -0.0115                  300.62434634229487
0.0035                    -0.0105                  300.61888458716305
0.0035                    -0.0095                  300.61243163903015
0.0035                    -0.0085                  300.6048263058896
0.0035                    -0.0075                  300.59469656873864
0.0035                    -0.0065                  300.581219010775
0.0035                    -0.0055                  298.87246404347144
0.0035                    -0.0045                  296.59262523672874
0.0035                    -0.0035                  295.61610220039137
0.0035                    -0.0025                  295.05648285467396
0.0035                    -0.0015                  294.68565232653566
0.0035                    -5.0E-4                  294.43532321339205
0.0035                    5.0E-4                   294.2906747059269
0.0035                    0.0015                   294.22743107952545
0.0035                    0.0025                   294.1830471126908
0.0035                    0.0035                   294.1404721540572
0.0035                    0.0045                   294.12142497852574
0.0035                    0.0055                   294.11763234714493
0.0035                    0.0065                   294.1062378969603
0.0035                    0.0075                   294.1037779414696
0.0035                    0.0085                   294.11491757228566
0.0035                    0.0095                   294.11952904718646
0.0035                    0.0105                   294.1219200063044
0.0035                    0.0115                   294.1397814066333
0.0035                    0.0125                   294.14628983495584
0.0035                    0.0135                   294.1563929937994
0.0035                    0.0145                   294.174042358047
0.0035                    0.0155                   294.1800476364833
0.0035                    0.0165                   294.18968542416127
0.0035                    0.0175                   294.1993767644757
0.0035                    0.0185                   294.19582960700944
0.0035                    0.0195                   294.18324651471994
0.0035                    0.0205                   294.19001260730784
0.0035                    0.0215                   294.01346891512327
0.0035                    0.0225                   293.43604702096656
0.0035                    0.0235                   293.1693255114615
0.0035                    0.0245                   293.1490873344858
0.0035                    0.0255                   293.16295595884236
0.0035                    0.0265                   293.20769692722365
0.0035                    0.0275                   293.2238106070162
0.0035                    0.0285                   293.25554301861473
0.0035                    0.0295                   293.3297267068899
0.0035                    0.0305                   293.3161215096337
0.0035                    0.0315                   293.3168598273823
0.0045                    -0.0315                  300.6138093111701
0.0045                    -0.0305                  300.6136587148062
0.0045                    -0.0295                  300.61350811844227
0.0045                    -0.0285                  300.61428531951145
0.0045                    -0.0275                  300.61638468997086
0.0045                    -0.0265                  300.61851505608223
0.0045                    -0.0255                  300.6212986405319
0.0045                    -0.0245                  300.62341183267176
0.0045                    -0.0235                  300.6252314322296
0.0045                    -0.0225                  300.62757933136083
0.0045                    -0.0215                  300.6306593262965
0.0045                    -0.0205                  300.63294764805636
0.0045                    -0.0195                  300.6350051733262
0.0045                    -0.0185                  300.6360853188249
0.0045                    -0.0175                  300.6368509128011
0.0045                    -0.0165                  300.63703848078706
0.0045                    -0.0155                  300.6362064242709
0.0045                    -0.0145                  300.63459647759777
0.0045                    -0.0135                  300.63194022319567
0.0045                    -0.0125                  300.627976425572
0.0045                    -0.0115                  300.62319035966414
0.0045                    -0.0105                  300.6173619853604
0.0045                    -0.0095                  300.61064212823595
0.0045                    -0.0085                  300.60296066458164
0.0045                    -0.0075                  299.805371090485
0.0045                    -0.0065                  298.51244776037345
0.0045                    -0.0055                  296.6725168717754
0.0045                    -0.0045                  295.60818402986536
0.0045                    -0.0035                  294.9792275760684
0.0045                    -0.0025                  294.6000652468198
0.0045                    -0.0015                  294.3397221713344
0.0045                    -5.0E-4                  294.20044071416976
0.0045                    5.0E-4                   294.1498550728945
0.0045                    0.0015                   294.0967430844226
0.0045                    0.0025                   294.061054769061
0.0045                    0.0035                   294.05335282596593
0.0045                    0.0045                   294.04637710262256
0.0045                    0.0055                   294.0369138527759
0.0045                    0.0065                   294.0396287435498
0.0045                    0.0075                   294.0441333088431
0.0045                    0.0085                   294.04455669542597
0.0045                    0.0095                   294.0551719549685
0.0045                    0.0105                   294.06157709792626
0.0045                    0.0115                   294.066381906423
0.0045                    0.0125                   294.07865810071155
0.0045                    0.0135                   294.0888974445895
0.0045                    0.0145                   294.09438531552826
0.0045                    0.0155                   294.10621924063776
0.0045                    0.0165                   294.1134109112709
0.0045                    0.0175                   294.11717310927475
0.0045                    0.0185                   294.12516811431817
0.0045                    0.0195                   294.13013823326366
0.0045                    0.0205                   294.139637275112
0.0045                    0.0215                   293.88768515963056
0.0045                    0.0225                   293.48407824592516
0.0045                    0.0235                   293.1881893023012
0.0045                    0.0245                   293.14926296809824
0.0045                    0.0255                   293.16500793502917
0.0045                    0.0265                   293.1971254939916
0.0045                    0.0275                   293.2147790817373
0.0045                    0.0285                   293.24586899554356
0.0045                    0.0295                   293.30868277987025
0.0045                    0.0305                   293.31146417125206
0.0045                    0.0315                   293.3128763741541
0.0055                    -0.0315                  300.6047215637875
0.0055                    -0.0305                  300.60677688206533
0.0055                    -0.0295                  300.6077503463068
0.0055                    -0.0285                  300.6080480284825
0.0055                    -0.0275                  300.6101674251587
0.0055                    -0.0265                  300.6123828403289
0.0055                    -0.0255                  300.61515558356655
0.0055                    -0.0245                  300.61851048687174
0.0055                    -0.0235                  300.62036401594855
0.0055                    -0.0225                  300.62347752666204
0.0055                    -0.0215                  300.62674274406254
0.0055                    -0.0205                  300.6291713069918
0.0055                    -0.0195                  300.6320238647511
0.0055                    -0.0185                  300.6337823009057
0.0055                    -0.0175                  300.6352732689253
0.0055                    -0.0165                  300.63574570190724
0.0055                    -0.0155                  300.6352277853318
0.0055                    -0.0145                  300.6336333976282
0.0055                    -0.0135                  300.6310403842092
0.0055                    -0.0125                  300.6271119870466
0.0055                    -0.0115                  300.6219013918199
0.0055                    -0.0105                  300.61566014324256
0.0055                    -0.0095                  300.60879975886576
0.0055                    -0.0085                  299.66023424061706
0.0055                    -0.0075                  297.93611991324275
0.0055                    -0.0065                  296.723348716658
0.0055                    -0.0055                  295.7871684315955
0.0055                    -0.0045                  295.0523651833024
0.0055                    -0.0035                  294.6005050279983
0.0055                    -0.0025                  294.2898027101205
0.0055                    -0.0015                  294.1650979018871
0.0055                    -5.0E-4                  294.0923449419979
0.0055                    5.0E-4                   294.04223329431403
0.0055                    0.0015                   294.02553567100887
0.0055                    0.0025                   294.0147991669847
0.0055                    0.0035                   294.0065819232653
0.0055                    0.0045                   294.0119206349575
0.0055                    0.0055                   294.0178974843949
0.0055                    0.0065                   294.0233682129432
0.0055                    0.0075                   294.0297446281964
0.0055                    0.0085                   294.0361320294708
0.0055                    0.0095                   294.0442130076701
0.0055                    0.0105                   294.04926381901953
0.0055                    0.0115                   294.0551213892626
0.0055                    0.0125                   294.0612243844539
0.0055                    0.0135                   294.06623217703515
0.0055                    0.0145                   294.0720704971201
0.0055                    0.0155                   294.0796532928387
0.0055                    0.0165                   294.0864758408365
0.0055                    0.0175                   294.09344974947214
0.0055                    0.0185                   294.1037490671933
0.0055                    0.0195                   294.1164126287125
0.0055                    0.0205                   294.12283352026157
0.0055                    0.0215                   293.8758430525578
0.0055                    0.0225                   293.53574059787525
0.0055                    0.0235                   293.19048204984216
0.0055                    0.0245                   293.1541039439997
0.0055                    0.0255                   293.16052737350867
0.0055                    0.0265                   293.1895068705882
0.0055                    0.0275                   293.20657473854584
0.0055                    0.0285                   293.25955654307535
0.0055                    0.0295                   293.3036370717973
0.0055                    0.0305                   293.30764378442575
0.0055                    0.0315                   293.3091149556876
0.0065                    -0.0315                  300.59539035244575
0.0065                    -0.0305                  300.5974456707236
0.0065                    -0.0295                  300.5995009890014
0.0065                    -0.0285                  300.6013197044823
0.0065                    -0.0275                  300.60360422729894
0.0065                    -0.0265                  300.60563107245383
0.0065                    -0.0255                  300.6082851821572
0.0065                    -0.0245                  300.61169694761224
0.0065                    -0.0235                  300.61559903932744
0.0065                    -0.0225                  300.61870713583085
0.0065                    -0.0215                  300.62181523233414
0.0065                    -0.0205                  300.6256022283584
0.0065                    -0.0195                  300.6285062299309
0.0065                    -0.0185                  300.6312521390609
0.0065                    -0.0175                  300.6328755406903
0.0065                    -0.0165                  300.63442739449283
0.0065                    -0.0155                  300.6342169269501
0.0065                    -0.0145                  300.6330604001316
0.0065                    -0.0135                  300.63047397828984
0.0065                    -0.0125                  300.6264979263999
0.0065                    -0.0115                  300.62086776406824
0.0065                    -0.0105                  300.6133553141068
0.0065                    -0.0095                  299.7458015469756
0.0065                    -0.0085                  298.1638659713738
0.0065                    -0.0075                  297.0770110496927
0.0065                    -0.0065                  296.1578438837192
0.0065                    -0.0055                  295.2891693986211
0.0065                    -0.0045                  294.6588147622666
0.0065                    -0.0035                  294.3391261115845
0.0065                    -0.0025                  294.15404691773966
0.0065                    -0.0015                  294.0729701085772
0.0065                    -5.0E-4                  294.0259183311073
0.0065                    5.0E-4                   293.99631656406484
0.0065                    0.0015                   293.9893765834635
0.0065                    0.0025                   293.99433505815824
0.0065                    0.0035                   294.00333892984236
0.0065                    0.0045                   294.01427515616797
0.0065                    0.0055                   294.03134964194817
0.0065                    0.0065                   294.0445009430451
0.0065                    0.0075                   294.055272682069
0.0065                    0.0085                   294.06201253760423
0.0065                    0.0095                   294.0568640775683
0.0065                    0.0105                   294.06375134588694