% Model:              模型结构导入comsolBench.mph
% Version:            COMSOL 6.2.0.339
% Date:               May 14 2026, 09:49
% Dimension:          2
% Nodes:              4096
% Expressions:        1
% Description:        温度
% Length unit:        m
% x                       y                        T (K)
5.0E-4                    -0.0315                  294.7735297197227
5.0E-4                    -0.0305                  294.7681686402839
5.0E-4                    -0.0295                  294.7627435501447
5.0E-4                    -0.0285                  294.7524762549369
5.0E-4                    -0.0275                  294.73862626345027
5.0E-4                    -0.0265                  294.7189749307649
5.0E-4                    -0.0255                  294.69125359003266
5.0E-4                    -0.0245                  294.6557339231306
5.0E-4                    -0.0235                  294.6154965793187
5.0E-4                    -0.0225                  293.7374368913207
5.0E-4                    -0.0215                  293.18895425329254
5.0E-4                    -0.0205                  293.1595464670181
5.0E-4                    -0.0195                  293.1501299953121
5.0E-4                    -0.0185                  293.1475672988472
5.0E-4                    -0.0175                  293.14949840754673
5.0E-4                    -0.0165                  293.15630471832566
5.0E-4                    -0.0155                  295.07040382945894
5.0E-4                    -0.0145                  296.4122275059809
5.0E-4                    -0.0135                  296.45159812134386
5.0E-4                    -0.0125                  296.5638866714331
5.0E-4                    -0.0115                  296.7794691031946
5.0E-4                    -0.0105                  297.07406229420883
5.0E-4                    -0.0095                  297.4744433219174
5.0E-4                    -0.0085                  297.88775325001427
5.0E-4                    -0.0075                  298.2951076716552
5.0E-4                    -0.0065                  298.29723001495177
5.0E-4                    -0.0055                  298.3016464612839
5.0E-4                    -0.0045                  298.3086310613148
5.0E-4                    -0.0035                  298.3179551859646
5.0E-4                    -0.0025                  298.32928255666945
5.0E-4                    -0.0015                  298.3415916134451
5.0E-4                    -5.0E-4                  298.3559493668698
5.0E-4                    5.0E-4                   298.37081636466183
5.0E-4                    0.0015                   298.3863856454785
5.0E-4                    0.0025                   298.40337712478646
5.0E-4                    0.0035                   298.4203686040944
5.0E-4                    0.0045                   298.43778582536413
5.0E-4                    0.0055                   298.4557669437742
5.0E-4                    0.0065                   298.4737500663118
5.0E-4                    0.0075                   298.49173318884937
5.0E-4                    0.0085                   298.5099765222925
5.0E-4                    0.0095                   298.52767234582745
5.0E-4                    0.0105                   298.5453681693624
5.0E-4                    0.0115                   298.56306399289736
5.0E-4                    0.0125                   298.58007771265676
5.0E-4                    0.0135                   298.5961511331588
5.0E-4                    0.0145                   298.6122245536609
5.0E-4                    0.0155                   298.6282979741629
5.0E-4                    0.0165                   298.6429610413788
5.0E-4                    0.0175                   298.65633955921
5.0E-4                    0.0185                   298.6697180770412
5.0E-4                    0.0195                   298.68309659487244
5.0E-4                    0.0205                   298.69462067306966
5.0E-4                    0.0215                   298.7045498013349
5.0E-4                    0.0225                   298.7144789296002
5.0E-4                    0.0235                   298.72440805786545
5.0E-4                    0.0245                   298.73225726019905
5.0E-4                    0.0255                   298.7384070424587
5.0E-4                    0.0265                   298.7445568247183
5.0E-4                    0.0275                   298.7507066069779
5.0E-4                    0.0285                   298.7547288317457
5.0E-4                    0.0295                   298.7568510444267
5.0E-4                    0.0305                   298.75897325710764
5.0E-4                    0.0315                   298.7610954697887
0.0015                    -0.0315                  294.77761328694703
0.0015                    -0.0305                  294.773333907944
0.0015                    -0.0295                  294.76732029592057
0.0015                    -0.0285                  294.75709474439515
0.0015                    -0.0275                  294.74514357053545
0.0015                    -0.0265                  294.72885528877845
0.0015                    -0.0255                  294.70912445346517
0.0015                    -0.0245                  294.6870159427116
0.0015                    -0.0235                  294.6666473503691
0.0015                    -0.0225                  293.96915313220677
0.0015                    -0.0215                  293.2771898820578
0.0015                    -0.0205                  293.16727171374976
0.0015                    -0.0195                  293.1543257585475
0.0015                    -0.0185                  293.1498683732422
0.0015                    -0.0175                  293.1501393299716
0.0015                    -0.0165                  293.1471848374969
0.0015                    -0.0155                  293.65854237909383
0.0015                    -0.0145                  295.34269461807486
0.0015                    -0.0135                  295.45108849647795
0.0015                    -0.0125                  295.46715637315197
0.0015                    -0.0115                  295.54737642817406
0.0015                    -0.0105                  295.91298491766963
0.0015                    -0.0095                  296.5060356940144
0.0015                    -0.0085                  297.2540156866268
0.0015                    -0.0075                  298.02543826360085
0.0015                    -0.0065                  298.29338131651076
0.0015                    -0.0055                  298.29798184398453
0.0015                    -0.0045                  298.3055009774137
0.0015                    -0.0035                  298.31572177238155
0.0015                    -0.0025                  298.32679556950154
0.0015                    -0.0015                  298.3399510969376
0.0015                    -5.0E-4                  298.35350431506333
0.0015                    5.0E-4                   298.3686905209109
0.0015                    0.0015                   298.38436280824317
0.0015                    0.0025                   298.4009337615912
0.0015                    0.0035                   298.4180973077009
0.0015                    0.0045                   298.4358471250211
0.0015                    0.0055                   298.4537175345175
0.0015                    0.0065                   298.47170065705507
0.0015                    0.0075                   298.4899827135819
0.0015                    0.0085                   298.5085744584992
0.0015                    0.0095                   298.52648909837256
0.0015                    0.0105                   298.54418492190746
0.0015                    0.0115                   298.56177876524254
0.0015                    0.0125                   298.5792934693227
0.0015                    0.0135                   298.5957066514206
0.0015                    0.0145                   298.61178007192257
0.0015                    0.0155                   298.6273618353033
0.0015                    0.0165                   298.64250514476726
0.0015                    0.0175                   298.65640787691746
0.0015                    0.0185                   298.6697863947487
0.0015                    0.0195                   298.68242479101144
0.0015                    0.0205                   298.6944238741387
0.0015                    0.0215                   298.7049716732957
0.0015                    0.0225                   298.71490080156093
0.0015                    0.0235                   298.72382265214355
0.0015                    0.0245                   298.7321688672963
0.0015                    0.0255                   298.73889619894686
0.0015                    0.0265                   298.74504598120643
0.0015                    0.0275                   298.75047785398607
0.0015                    0.0285                   298.75474205765624
0.0015                    0.0295                   298.7573512559091
0.0015                    0.0305                   298.7594734685901
0.0015                    0.0315                   298.7609567161246
0.0025                    -0.0315                  294.7816968541714
0.0025                    -0.0305                  294.77804229832645
0.0025                    -0.0295                  294.77443225616787
0.0025                    -0.0285                  294.7661339027581
0.0025                    -0.0275                  294.755259233547
0.0025                    -0.0265                  294.74262212918944
0.0025                    -0.0255                  294.72771260310947
0.0025                    -0.0245                  294.7135861386822
0.0025                    -0.0235                  294.7036143689421
0.0025                    -0.0225                  294.3429627347249
0.0025                    -0.0215                  293.419186030701
0.0025                    -0.0205                  293.1958177553047
0.0025                    -0.0195                  293.1615207350566
0.0025                    -0.0185                  293.1534124402702
0.0025                    -0.0175                  293.15133327121333
0.0025                    -0.0165                  293.15190683257134
0.0025                    -0.0155                  293.3876952811792
0.0025                    -0.0145                  294.29040714127876
0.0025                    -0.0135                  294.82172264937253
0.0025                    -0.0125                  294.81638797455605
0.0025                    -0.0115                  294.7735601371943
0.0025                    -0.0105                  294.94766287892924
0.0025                    -0.0095                  295.3824493789781
0.0025                    -0.0085                  296.36704409568506
0.0025                    -0.0075                  297.66297163887486
0.0025                    -0.0065                  298.28492438853596
0.0025                    -0.0055                  298.2906332107782
0.0025                    -0.0045                  298.29954771772395
0.0025                    -0.0035                  298.3092508419187
0.0025                    -0.0025                  298.32120905902985
0.0025                    -0.0015                  298.33480156696027
0.0025                    -5.0E-4                  298.34933954685465
0.0025                    5.0E-4                   298.3658023134217
0.0025                    0.0015                   298.382490166875
0.0025                    0.0025                   298.3984903983961
0.0025                    0.0035                   298.41615860735794
0.0025                    0.0045                   298.4339084246781
0.0025                    0.0055                   298.45166812526077
0.0025                    0.0065                   298.46970245517673
0.0025                    0.0075                   298.48829420009406
0.0025                    0.0085                   298.5068859450114
0.0025                    0.0095                   298.5253058509177
0.0025                    0.0105                   298.54297033682144
0.0025                    0.0115                   298.56048504090165
0.0025                    0.0125                   298.57799974498175
0.0025                    0.0135                   298.59526216968226
0.0025                    0.0145                   298.61120970425475
0.0025                    0.0155                   298.6263530137187
0.0025                    0.0165                   298.64149632318265
0.0025                    0.0175                   298.656476194625
0.0025                    0.0185                   298.669622519815
0.0025                    0.0195                   298.68162160294213
0.0025                    0.0205                   298.6936206860693
0.0025                    0.0215                   298.70539354525636
0.0025                    0.0225                   298.71476166918796
0.0025                    0.0235                   298.7231078843408
0.0025                    0.0245                   298.7314540994936
0.0025                    0.0255                   298.73938535543493
0.0025                    0.0265                   298.7455351376946
0.0025                    0.0275                   298.74989711296973
0.0025                    0.0285                   298.75416131663985
0.0025                    0.0295                   298.7578514673915
0.0025                    0.0305                   298.7593659529527
0.0025                    0.0315                   298.7608023434473
0.0035                    -0.0315                  294.7882506651292
0.0035                    -0.0305                  294.78619215701383
0.0035                    -0.0295                  294.783286263213
0.0035                    -0.0285                  294.7753603376613
0.0035                    -0.0275                  294.7680769349372
0.0035                    -0.0265                  294.75707503626745
0.0035                    -0.0255                  294.74665485664974
0.0035                    -0.0245                  294.7358511236965
0.0035                    -0.0235                  294.7275545530017
0.0035                    -0.0225                  294.71904802245535
0.0035                    -0.0215                  293.9081222373789
0.0035                    -0.0205                  293.276475150607
0.0035                    -0.0195                  293.1793430174435
0.0035                    -0.0185                  293.1596920274357
0.0035                    -0.0175                  293.15312662887186
0.0035                    -0.0165                  293.1421933863542
0.0035                    -0.0155                  293.26154256628473
0.0035                    -0.0145                  293.56133481466713
0.0035                    -0.0135                  294.2871976781587
0.0035                    -0.0125                  294.6273477409784
0.0035                    -0.0115                  294.5831174485106
0.0035                    -0.0105                  294.51988901748945
0.0035                    -0.0095                  294.6597231730161
0.0035                    -0.0085                  295.2313853132269
0.0035                    -0.0075                  296.987332249234
0.0035                    -0.0065                  298.272230722
0.0035                    -0.0055                  298.2803509413322
0.0035                    -0.0045                  298.28945334440846
0.0035                    -0.0035                  298.3007794068805
0.0035                    -0.0025                  298.315106177199
0.0035                    -0.0015                  298.3280740154629
0.0035                    -5.0E-4                  298.3435812669418
0.0035                    5.0E-4                   298.3596911344105
0.0035                    0.0015                   298.3766008161061
0.0035                    0.0025                   298.3938566805409
0.0035                    0.0035                   298.41228690464055
0.0035                    0.0045                   298.43067953546597
0.0035                    0.0055                   298.44907216629133
0.0035                    0.0065                   298.46769599944327
0.0035                    0.0075                   298.48626513132126
0.0035                    0.0085                   298.5048342631993
0.0035                    0.0095                   298.52340339507725
0.0035                    0.0105                   298.5414758613842
0.0035                    0.0115                   298.5589911277061
0.0035                    0.0125                   298.5765063940281
0.0035                    0.0135                   298.5940216603501
0.0035                    0.0145                   298.61017988486105
0.0035                    0.0155                   298.6253188759239
0.0035                    0.0165                   298.6404578669867
0.0035                    0.0175                   298.65559685804953
0.0035                    0.0185                   298.668966407379
0.0035                    0.0195                   298.680987980791
0.0035                    0.0205                   298.69300955420294
0.0035                    0.0215                   298.70501502920143
0.0035                    0.0225                   298.71430207577
0.0035                    0.0235                   298.7225479593577
0.0035                    0.0245                   298.73079384294545
0.0035                    0.0255                   298.7390855468436
0.0035                    0.0265                   298.74507843462425
0.0035                    0.0275                   298.74955317145975
0.0035                    0.0285                   298.7540279082953
0.0035                    0.0295                   298.7577927656358
0.0035                    0.0305                   298.7592156663587
0.0035                    0.0315                   298.76064797077004
0.0045                    -0.0315                  294.7975688343062
0.0045                    -0.0305                  294.7949637809386
0.0045                    -0.0295                  294.7923179824866
0.0045                    -0.0285                  294.78584014639125
0.0045                    -0.0275                  294.7793530272384
0.0045                    -0.0265                  294.77240880338644
0.0045                    -0.0255                  294.7630151261536
0.0045                    -0.0245                  294.75485158257345
0.0045                    -0.0235                  294.7478112259125
0.0045                    -0.0225                  294.7433369769226
0.0045                    -0.0215                  294.4166259809283
0.0045                    -0.0205                  293.4677277027506
0.0045                    -0.0195                  293.2278143840484
0.0045                    -0.0185                  293.1727075279739
0.0045                    -0.0175                  293.1577235629617
0.0045                    -0.0165                  293.14455841696827
0.0045                    -0.0155                  293.1709558325053
0.0045                    -0.0145                  293.32197806011857
0.0045                    -0.0135                  293.67001329712525
0.0045                    -0.0125                  294.1930390517374
0.0045                    -0.0115                  294.4315903161869
0.0045                    -0.0105                  294.4321521927312
0.0045                    -0.0095                  294.4247411758701
0.0045                    -0.0085                  294.59194867144356
0.0045                    -0.0075                  295.4953874081773
0.0045                    -0.0065                  297.60191048147476
0.0045                    -0.0055                  298.26590978121294
0.0045                    -0.0045                  298.27664161621135
0.0045                    -0.0035                  298.2904916003018
0.0045                    -0.0025                  298.3047534331431
0.0045                    -0.0015                  298.3200244126017
0.0045                    -5.0E-4                  298.3361855788938
0.0045                    5.0E-4                   298.35291259522194
0.0045                    0.0015                   298.3702069296246
0.0045                    0.0025                   298.38792103465596
0.0045                    0.0035                   298.4064326670141
0.0045                    0.0045                   298.42482154368327
0.0045                    0.0055                   298.4431817219745
0.0045                    0.0065                   298.4629785047496
0.0045                    0.0075                   298.48160670983873
0.0045                    0.0085                   298.5001758417167
0.0045                    0.0095                   298.5192587250978
0.0045                    0.0105                   298.53866018171163
0.0045                    0.0115                   298.5561754480336
0.0045                    0.0125                   298.5736907143556
0.0045                    0.0135                   298.5912525954985
0.0045                    0.0145                   298.60889329571796
0.0045                    0.0155                   298.62417126604504
0.0045                    0.0165                   298.63931025710787
0.0045                    0.0175                   298.65413299810035
0.0045                    0.0185                   298.6682895644909
0.0045                    0.0195                   298.6807034434237
0.0045                    0.0205                   298.6927250168357
0.0045                    0.0215                   298.7040600311084
0.0045                    0.0225                   298.71437145082984
0.0045                    0.0235                   298.7226173344176
0.0045                    0.0245                   298.7308632180053
0.0045                    0.0255                   298.73901865158837
0.0045                    0.0265                   298.7450991442988
0.0045                    0.0275                   298.7498247439854
0.0045                    0.0285                   298.7542994808209
0.0045                    0.0295                   298.75766468292426
0.0045                    0.0305                   298.7590875836471
0.0045                    0.0315                   298.7605279971827
0.0055                    -0.0315                  294.8068870034832
0.0055                    -0.0305                  294.80444533571296
0.0055                    -0.0295                  294.8025949842344
0.0055                    -0.0285                  294.79804364790925
0.0055                    -0.0275                  294.7921603982667
0.0055                    -0.0265                  294.7852246637834
0.0055                    -0.0255                  294.77825919056477
0.0055                    -0.0245                  294.77190919776405
0.0055                    -0.0235                  294.76592715803633
0.0055                    -0.0225                  294.76166687052125
0.0055                    -0.0215                  294.7594339128002
0.0055                    -0.0205                  294.0026498347257
0.0055                    -0.0195                  293.36333235788413
0.0055                    -0.0185                  293.20245946624004
0.0055                    -0.0175                  293.1744551375309
0.0055                    -0.0165                  293.1520339272165
0.0055                    -0.0155                  293.1618339969939
0.0055                    -0.0145                  293.2082803151277
0.0055                    -0.0135                  293.3978610488187
0.0055                    -0.0125                  293.7073039365367
0.0055                    -0.0115                  294.0872621523506
0.0055                    -0.0105                  294.3930869260266
0.0055                    -0.0095                  294.36095972790963
0.0055                    -0.0085                  294.3366939644472
0.0055                    -0.0075                  294.66890886856675
0.0055                    -0.0065                  296.3719921669577
0.0055                    -0.0055                  298.23873574796494
0.0055                    -0.0045                  298.26256774439327
0.0055                    -0.0035                  298.27823449959567
0.0055                    -0.0025                  298.2934461418311
0.0055                    -0.0015                  298.3095830208391
0.0055                    -5.0E-4                  298.3266693748155
0.0055                    5.0E-4                   298.3436926684384
0.0055                    0.0015                   298.36199683971375
0.0055                    0.0025                   298.3806490099387
0.0055                    0.0035                   298.3995061117047
0.0055                    0.0045                   298.4189231688617
0.0055                    0.0055                   298.4374040002927
0.0055                    0.0065                   298.4574440163632
0.0055                    0.0075                   298.47694828835614
0.0055                    0.0085                   298.4956525479206
0.0055                    0.0095                   298.515350947414
0.0055                    0.0105                   298.53504934690744
0.0055                    0.0115                   298.55335976836113
0.0055                    0.0125                   298.5708750346831
0.0055                    0.0135                   298.58851555091405
0.0055                    0.0145                   298.6061562511335
0.0055                    0.0155                   298.6230236561662
0.0055                    0.0165                   298.638162647229
0.0055                    0.0175                   298.65245074455237
0.0055                    0.0185                   298.66660731094294
0.0055                    0.0195                   298.68041890605645
0.0055                    0.0205                   298.692239691583
0.0055                    0.0215                   298.7031050330152
0.0055                    0.0225                   298.7139703744474
0.0055                    0.0235                   298.7226867094774
0.0055                    0.0245                   298.73081332173126
0.0055                    0.0255                   298.73892030726176
0.0055                    0.0265                   298.7447621176833
0.0055                    0.0275                   298.74973647515975
0.0055                    0.0285                   298.7545710533466
0.0055                    0.0295                   298.7575366002127
0.0055                    0.0305                   298.7590732847716
0.0055                    0.0315                   298.76066795015515
0.0065                    -0.0315                  294.8164779203307
0.0065                    -0.0305                  294.81462756885213
0.0065                    -0.0295                  294.8127772173736
0.0065                    -0.0285                  294.80846048154814
0.0065                    -0.0275                  294.8038976180385
0.0065                    -0.0265                  294.7988301234808
0.0065                    -0.0255                  294.7925269882853
0.0065                    -0.0245                  294.78645348124485
0.0065                    -0.0235                  294.78105851161774
0.0065                    -0.0225                  294.7762635510141
0.0065                    -0.0215                  294.77278652005407
0.0065                    -0.0205                  294.6359033853083
0.0065                    -0.0195                  293.82500929472815
0.0065                    -0.0185                  293.3770867326938
0.0065                    -0.0175                  293.21249259407136
0.0065                    -0.0165                  293.17232762076026
0.0065                    -0.0155                  293.16128413564576
0.0065                    -0.0145                  293.1787262394695
0.0065                    -0.0135                  293.2522841206224
0.0065                    -0.0125                  293.4068904256883
0.0065                    -0.0115                  293.6560929769378
0.0065                    -0.0105                  293.9836820138856
0.0065                    -0.0095                  294.2941225103439
0.0065                    -0.0085                  294.2469745121194
0.0065                    -0.0075                  294.27952430768687
0.0065                    -0.0065                  294.5630576659069
0.0065                    -0.0055                  295.65068724752007
0.0065                    -0.0045                  296.98247617132915
0.0065                    -0.0035                  298.2610186254857
0.0065                    -0.0025                  298.2809694013783
0.0065                    -0.0015                  298.2969957685252
0.0065                    -5.0E-4                  298.31492112462655
0.0065                    5.0E-4                   298.33390735151386
0.0065                    0.0015                   298.3530748858001
0.0065                    0.0025                   298.3717142064629
0.0065                    0.0035                   298.39099631525795
0.0065                    0.0045                   298.4107777406713
0.0065                    0.0055                   298.431006932387
0.0065                    0.0065                   298.4514192090842
0.0065                    0.0075                   298.4718314857813
0.0065                    0.0085                   298.4917447702368
0.0065                    0.0095                   298.51144316973017
0.0065                    0.0105                   298.53114156922356
0.0065                    0.0115                   298.55054408868864