% Model:              模型结构导入comsolBench.mph
% Version:            COMSOL 6.2.0.339
% Date:               May 14 2026, 09:41
% Dimension:          2
% Nodes:              4096
% Expressions:        1
% Description:        温度
% Length unit:        m
% x                       y                        T (K)
5.0E-4                    -0.0315                  297.52101026478806
5.0E-4                    -0.0305                  297.519003180377
5.0E-4                    -0.0295                  297.51697625006835
5.0E-4                    -0.0285                  297.5149493197597
5.0E-4                    -0.0275                  297.51176914069754
5.0E-4                    -0.0265                  297.50602365100724
5.0E-4                    -0.0255                  297.5001283072758
5.0E-4                    -0.0245                  297.49423296354445
5.0E-4                    -0.0235                  297.4876469913369
5.0E-4                    -0.0225                  297.4784809506077
5.0E-4                    -0.0215                  297.46881862492535
5.0E-4                    -0.0205                  297.4591562992431
5.0E-4                    -0.0195                  297.44922648895465
5.0E-4                    -0.0185                  297.43686270160947
5.0E-4                    -0.0175                  297.4236621367619
5.0E-4                    -0.0165                  297.4104615719144
5.0E-4                    -0.0155                  297.39726100706685
5.0E-4                    -0.0145                  297.38212728389243
5.0E-4                    -0.0135                  297.36585730129974
5.0E-4                    -0.0125                  297.349587318707
5.0E-4                    -0.0115                  297.3333173361143
5.0E-4                    -0.0105                  297.3159536853714
5.0E-4                    -0.0095                  297.2975338023824
5.0E-4                    -0.0085                  297.27911391939335
5.0E-4                    -0.0075                  297.2606940364043
5.0E-4                    -0.0065                  297.2416985390068
5.0E-4                    -0.0055                  297.2227210711672
5.0E-4                    -0.0045                  297.20378713698403
5.0E-4                    -0.0035                  297.1848532028009
5.0E-4                    -0.0025                  297.16586662476124
5.0E-4                    -0.0015                  297.14836639820163
5.0E-4                    -5.0E-4                  297.1306064933398
5.0E-4                    5.0E-4                   297.1131861464113
5.0E-4                    0.0015                   297.0979746248702
5.0E-4                    0.0025                   297.0832682800195
5.0E-4                    0.0035                   297.06905064111237
5.0E-4                    0.0045                   297.0571225170774
5.0E-4                    0.0055                   297.0455642841595
5.0E-4                    0.0065                   297.03579887747446
5.0E-4                    0.0075                   297.0272928152253
5.0E-4                    0.0085                   297.02066889196044
5.0E-4                    0.0095                   297.01594492325256
5.0E-4                    0.0105                   297.0131731786387
5.0E-4                    0.0115                   296.91210837400894
5.0E-4                    0.0125                   296.61743754720897
5.0E-4                    0.0135                   296.248008959098
5.0E-4                    0.0145                   295.9674693528784
5.0E-4                    0.0155                   295.8314980166866
5.0E-4                    0.0165                   295.7637255475696
5.0E-4                    0.0175                   295.7199552990859
5.0E-4                    0.0185                   295.6843760244934
5.0E-4                    0.0195                   294.65964277596083
5.0E-4                    0.0205                   293.15464364511945
5.0E-4                    0.0215                   293.15084694118036
5.0E-4                    0.0225                   293.15081176755984
5.0E-4                    0.0235                   293.1508957869351
5.0E-4                    0.0245                   293.15088181492524
5.0E-4                    0.0255                   293.15459090055333
5.0E-4                    0.0265                   293.9476160520527
5.0E-4                    0.0275                   295.35922973873943
5.0E-4                    0.0285                   295.4032188204477
5.0E-4                    0.0295                   295.4296712892475
5.0E-4                    0.0305                   295.4452981278688
5.0E-4                    0.0315                   295.4505185555883
0.0015                    -0.0315                  297.52071771555126
0.0015                    -0.0305                  297.51929432652764
0.0015                    -0.0295                  297.51732693391193
0.0015                    -0.0285                  297.515267464403
0.0015                    -0.0275                  297.51101350900956
0.0015                    -0.0265                  297.50645229969973
0.0015                    -0.0255                  297.50055695596836
0.0015                    -0.0245                  297.49455934408167
0.0015                    -0.0235                  297.48683661618475
0.0015                    -0.0225                  297.47881411253456
0.0015                    -0.0215                  297.46915178685225
0.0015                    -0.0205                  297.4594894611699
0.0015                    -0.0195                  297.4483845115572
0.0015                    -0.0185                  297.436978424126
0.0015                    -0.0175                  297.4237778592785
0.0015                    -0.0165                  297.41057729443094
0.0015                    -0.0155                  297.3964304312603
0.0015                    -0.0145                  297.38179236186744
0.0015                    -0.0135                  297.36565393667064
0.0015                    -0.0125                  297.3493839540779
0.0015                    -0.0115                  297.3323758772714
0.0015                    -0.0105                  297.314815690401
0.0015                    -0.0095                  297.29663639145684
0.0015                    -0.0085                  297.2782165084678
0.0015                    -0.0075                  297.259585587138
0.0015                    -0.0065                  297.23996719717263
0.0015                    -0.0055                  297.22072145624304
0.0015                    -0.0045                  297.2017875220599
0.0015                    -0.0035                  297.18263552103855
0.0015                    -0.0025                  297.16289844819346
0.0015                    -0.0015                  297.14573163725396
0.0015                    -5.0E-4                  297.1284036800265
0.0015                    5.0E-4                   297.1116835402469
0.0015                    0.0015                   297.09548674827465
0.0015                    0.0025                   297.0809341062286
0.0015                    0.0035                   297.0672096067696
0.0015                    0.0045                   297.0544561695127
0.0015                    0.0055                   297.04387178981744
0.0015                    0.0065                   297.03330596483335
0.0015                    0.0075                   297.0246273440655
0.0015                    0.0085                   297.0177740013811
0.0015                    0.0095                   297.0128395772332
0.0015                    0.0105                   297.0095579596157
0.0015                    0.0115                   296.74000429811923
0.0015                    0.0125                   295.99855603682397
0.0015                    0.0135                   295.30115319219215
0.0015                    0.0145                   294.9799230077632
0.0015                    0.0155                   294.94649336374835
0.0015                    0.0165                   294.9384595291372
0.0015                    0.0175                   294.9274126844708
0.0015                    0.0185                   294.77476102623984
0.0015                    0.0195                   293.6949394309227
0.0015                    0.0205                   293.1516454419989
0.0015                    0.0215                   293.152432861781
0.0015                    0.0225                   293.1524948444578
0.0015                    0.0235                   293.15274002010386
0.0015                    0.0245                   293.15372549802817
0.0015                    0.0255                   293.20418516900787
0.0015                    0.0265                   294.2436413297684
0.0015                    0.0275                   295.40267106976967
0.0015                    0.0285                   295.4236692591704
0.0015                    0.0295                   295.4405307283922
0.0015                    0.0305                   295.45185513123266
0.0015                    0.0315                   295.455899748848
0.0025                    -0.0315                  297.52042516631445
0.0025                    -0.0305                  297.5190017772908
0.0025                    -0.0295                  297.51757838826717
0.0025                    -0.0285                  297.51451183271496
0.0025                    -0.0275                  297.5102578773216
0.0025                    -0.0265                  297.50600392192814
0.0025                    -0.0255                  297.50098560466085
0.0025                    -0.0245                  297.49374896892954
0.0025                    -0.0235                  297.4860262410326
0.0025                    -0.0225                  297.4783035131357
0.0025                    -0.0215                  297.46948494877904
0.0025                    -0.0205                  297.4588752380609
0.0025                    -0.0195                  297.44754253415977
0.0025                    -0.0185                  297.4362098302587
0.0025                    -0.0175                  297.423893581795
0.0025                    -0.0165                  297.41014878084786
0.0025                    -0.0155                  297.395510711455
0.0025                    -0.0145                  297.3808726420623
0.0025                    -0.0135                  297.3654505720415
0.0025                    -0.0125                  297.34867921965173
0.0025                    -0.0115                  297.33111903278143
0.0025                    -0.0105                  297.3135588459111
0.0025                    -0.0095                  297.2957389805312
0.0025                    -0.0085                  297.2773190975422
0.0025                    -0.0075                  297.25785424530386
0.0025                    -0.0065                  297.2382358553386
0.0025                    -0.0055                  297.2187218413188
0.0025                    -0.0045                  297.19978790713566
0.0025                    -0.0035                  297.18009585736996
0.0025                    -0.0025                  297.1603587845248
0.0025                    -0.0015                  297.1426246609004
0.0025                    -5.0E-4                  297.12476725208177
0.0025                    5.0E-4                   297.1082565715992
0.0025                    0.0015                   297.09256530533804
0.0025                    0.0025                   297.0776587280661
0.0025                    0.0035                   297.0634817970346
0.0025                    0.0045                   297.05012007469816
0.0025                    0.0055                   297.0387422892658
0.0025                    0.0065                   297.028107542453
0.0025                    0.0075                   297.01934104525435
0.0025                    0.0085                   297.0121890904511
0.0025                    0.0095                   297.0070255358138
0.0025                    0.0105                   297.0037688919783
0.0025                    0.0115                   296.1077707850974
0.0025                    0.0125                   294.9469063094342
0.0025                    0.0135                   294.46951612019313
0.0025                    0.0145                   294.37421225371475
0.0025                    0.0155                   294.39223804524613
0.0025                    0.0165                   294.4915140123622
0.0025                    0.0175                   294.49089318085566
0.0025                    0.0185                   294.01097244471066
0.0025                    0.0195                   293.28291153540926
0.0025                    0.0205                   293.1545265938172
0.0025                    0.0215                   293.1541435749317
0.0025                    0.0225                   293.15426759219565
0.0025                    0.0235                   293.1547614708852
0.0025                    0.0245                   293.1656778406859
0.0025                    0.0255                   293.36939777633347
0.0025                    0.0265                   294.5136069001944
0.0025                    0.0275                   295.4361550205382
0.0025                    0.0285                   295.4446995180595
0.0025                    0.0295                   295.4555063633593
0.0025                    0.0305                   295.4635677178891
0.0025                    0.0315                   295.4664899508315
0.0035                    -0.0315                  297.52013261707765
0.0035                    -0.0305                  297.51868549860666
0.0035                    -0.0295                  297.51709360109385
0.0035                    -0.0285                  297.5143626606741
0.0035                    -0.0275                  297.5100351751604
0.0035                    -0.0265                  297.50570768964667
0.0035                    -0.0255                  297.50071581141475
0.0035                    -0.0245                  297.49327342193124
0.0035                    -0.0235                  297.48549950262156
0.0035                    -0.0225                  297.4777255833118
0.0035                    -0.0215                  297.469478776078
0.0035                    -0.0205                  297.4581313206993
0.0035                    -0.0195                  297.4467777919278
0.0035                    -0.0185                  297.4354242631563
0.0035                    -0.0175                  297.42386898783553
0.0035                    -0.0165                  297.4092313321041
0.0035                    -0.0155                  297.3945936763728
0.0035                    -0.0145                  297.37995602064143
0.0035                    -0.0135                  297.36494768905806
0.0035                    -0.0125                  297.3474150719121
0.0035                    -0.0115                  297.3298621882915
0.0035                    -0.0105                  297.31230200142124
0.0035                    -0.0095                  297.2947418145509
0.0035                    -0.0085                  297.2757412934351
0.0035                    -0.0075                  297.25612290346976
0.0035                    -0.0065                  297.2365045135044
0.0035                    -0.0055                  297.2168861235391
0.0035                    -0.0045                  297.1972932665464
0.0035                    -0.0035                  297.1775561937013
0.0035                    -0.0025                  297.1576715083954
0.0035                    -0.0015                  297.1386428727119
0.0035                    -5.0E-4                  297.12017108663144
0.0035                    5.0E-4                   297.1026103674505
0.0035                    0.0015                   297.0860434813558
0.0035                    0.0025                   297.0711714708638
0.0035                    0.0035                   297.05705082797385
0.0035                    0.0045                   297.043764951743
0.0035                    0.0055                   297.03173364908
0.0035                    0.0065                   297.0208602544746
0.0035                    0.0075                   297.0111853240818
0.0035                    0.0085                   297.0034586657055
0.0035                    0.0095                   296.99779887093365
0.0035                    0.0105                   296.51633233947354
0.0035                    0.0115                   294.901063329375
0.0035                    0.0125                   294.22872807956395
0.0035                    0.0135                   294.15046500528695
0.0035                    0.0145                   294.191668704735
0.0035                    0.0155                   294.2970098450602
0.0035                    0.0165                   294.27147029364846
0.0035                    0.0175                   294.02889772285124
0.0035                    0.0185                   293.545471082523
0.0035                    0.0195                   293.1894647892809
0.0035                    0.0205                   293.1559054942136
0.0035                    0.0215                   293.15604138316615
0.0035                    0.0225                   293.15639721669885
0.0035                    0.0235                   293.1601142639912
0.0035                    0.0245                   293.2100312078579
0.0035                    0.0255                   293.6792540022589
0.0035                    0.0265                   294.87840451377866
0.0035                    0.0275                   295.46413204472486
0.0035                    0.0285                   295.466862208975
0.0035                    0.0295                   295.47341570795743
0.0035                    0.0305                   295.4770771213404
0.0035                    0.0315                   295.4795948702619
0.0045                    -0.0315                  297.5196625077301
0.0045                    -0.0305                  297.518068403932
0.0045                    -0.0295                  297.5164765064192
0.0045                    -0.0285                  297.514429276896
0.0045                    -0.0275                  297.5101017913822
0.0045                    -0.0265                  297.5053940711481
0.0045                    -0.0255                  297.4996523464064
0.0045                    -0.0245                  297.4932814680286
0.0045                    -0.0235                  297.4855075487189
0.0045                    -0.0225                  297.47773362940916
0.0045                    -0.0215                  297.46827616507977
0.0045                    -0.0205                  297.4578200031534
0.0045                    -0.0195                  297.44646647438196
0.0045                    -0.0185                  297.4351129456104
0.0045                    -0.0175                  297.4223091699872
0.0045                    -0.0165                  297.40833823999833
0.0045                    -0.0155                  297.393700584267
0.0045                    -0.0145                  297.37906292853563
0.0045                    -0.0135                  297.3629356481981
0.0045                    -0.0125                  297.3458698490475
0.0045                    -0.0115                  297.3283372319015
0.0045                    -0.0105                  297.3108046147555
0.0045                    -0.0095                  297.2925391910186
0.0045                    -0.0085                  297.27260858851247
0.0045                    -0.0075                  297.25292129111693
0.0045                    -0.0065                  297.2332339937214
0.0045                    -0.0055                  297.2127628920086
0.0045                    -0.0045                  297.1909546300302
0.0045                    -0.0035                  297.1706500339613
0.0045                    -0.0025                  297.15063337139725
0.0045                    -0.0015                  297.13028320362764
0.0045                    -5.0E-4                  297.11192595538284
0.0045                    5.0E-4                   297.0941408585292
0.0045                    0.0015                   297.07869442404547
0.0045                    0.0025                   297.0636462168829
0.0045                    0.0035                   297.0488814813095
0.0045                    0.0045                   297.0351054966957
0.0045                    0.0055                   297.0223218670706
0.0045                    0.0065                   297.0109586634167
0.0045                    0.0075                   297.0005692582867
0.0045                    0.0085                   296.9918379308724
0.0045                    0.0095                   296.9819708615288
0.0045                    0.0105                   295.5531610098353
0.0045                    0.0115                   294.2205646534037
0.0045                    0.0125                   294.09818233859573
0.0045                    0.0135                   294.13323960096193
0.0045                    0.0145                   294.1673794117237
0.0045                    0.0155                   294.0680791242438
0.0045                    0.0165                   293.8843240402135
0.0045                    0.0175                   293.53299373873244
0.0045                    0.0185                   293.22553925624044
0.0045                    0.0195                   293.1773911793522
0.0045                    0.0205                   293.1579817537106
0.0045                    0.0215                   293.1574411412535
0.0045                    0.0225                   293.1602290932437
0.0045                    0.0235                   293.1900842427155
0.0045                    0.0245                   293.3830256641884
0.0045                    0.0255                   294.32098775070807
0.0045                    0.0265                   295.481697377508
0.0045                    0.0275                   295.4838259388993
0.0045                    0.0285                   295.4865144598656
0.0045                    0.0295                   295.48961121309935
0.0045                    0.0305                   295.49307345758695
0.0045                    0.0315                   295.49472500602144
0.0055                    -0.0315                  297.5191790790284
0.0055                    -0.0305                  297.51751291958846
0.0055                    -0.0295                  297.5158594117445
0.0055                    -0.0285                  297.5142675142317
0.0055                    -0.0275                  297.5100723308814
0.0055                    -0.0265                  297.50433060613966
0.0055                    -0.0255                  297.49858888139795
0.0055                    -0.0245                  297.49284715665624
0.0055                    -0.0235                  297.4855155948162
0.0055                    -0.0225                  297.4766326433765
0.0055                    -0.0215                  297.4670735540816
0.0055                    -0.0205                  297.45750868560754
0.0055                    -0.0195                  297.4461551568361
0.0055                    -0.0185                  297.4338556872903
0.0055                    -0.0175                  297.4207230974344
0.0055                    -0.0165                  297.40744514789253
0.0055                    -0.0155                  297.3928074921612
0.0055                    -0.0145                  297.37754339487117
0.0055                    -0.0135                  297.3608998332585
0.0055                    -0.0125                  297.3442562716458
0.0055                    -0.0115                  297.32679200903704
0.0055                    -0.0105                  297.30849406791293
0.0055                    -0.0095                  297.2894873745265
0.0055                    -0.0085                  297.2694588017799
0.0055                    -0.0075                  297.24930658464984
0.0055                    -0.0065                  297.2293712061954
0.0055                    -0.0055                  297.20750387438443
0.0055                    -0.0045                  297.1856897207352
0.0055                    -0.0035                  297.1639130856503
0.0055                    -0.0025                  297.14348582760624
0.0055                    -0.0015                  297.1231129755803
0.0055                    -5.0E-4                  297.10269126004016
0.0055                    5.0E-4                   297.0849649745971
0.0055                    0.0015                   297.0690684376067
0.0055                    0.0025                   297.0541601060792
0.0055                    0.0035                   297.03935495750477
0.0055                    0.0045                   297.02368900030984
0.0055                    0.0055                   297.0099844576322
0.0055                    0.0065                   296.99873246828867
0.0055                    0.0075                   296.98878246450425
0.0055                    0.0085                   296.9761130856878
0.0055                    0.0095                   295.8688180562449
0.0055                    0.0105                   294.3286474494514
0.0055                    0.0115                   294.02001352926084
0.0055                    0.0125                   294.1114561982476
0.0055                    0.0135                   294.12789186659035
0.0055                    0.0145                   293.9652455916101
0.0055                    0.0155                   293.77058607807226
0.0055                    0.0165                   293.5559078871936
0.0055                    0.0175                   293.29789658811603
0.0055                    0.0185                   293.1651717092455
0.0055                    0.0195                   293.16158925482887
0.0055                    0.0205                   293.1606627695153
0.0055                    0.0215                   293.1672185823736
0.0055                    0.0225                   293.18807937953454
0.0055                    0.0235                   293.2985992866428
0.0055                    0.0245                   293.7835761518126
0.0055                    0.0255                   295.0190915847662
0.0055                    0.0265                   295.49850402635724
0.0055                    0.0275                   295.5006523867221
0.0055                    0.0285                   295.50361893095857
0.0055                    0.0295                   295.5067825018655
0.0055                    0.0305                   295.50905952294886
0.0055                    0.0315                   295.5105409635735
0.0065                    -0.0315                  297.51869565032666
0.0065                    -0.0305                  297.5170294908867
0.0065                    -0.0295                  297.51536333144685
0.0065                    -0.0285                  297.51368966865937
0.0065                    -0.0275                  297.50914754690393
0.0065                    -0.0265                  297.5033768386442
0.0065                    -0.0255                  297.49760613038455
0.0065                    -0.0245                  297.49183542212495
0.0065                    -0.0235                  297.4850007844039
0.0065                    -0.0225                  297.47543003237826
0.0065                    -0.0215                  297.46587094308336
0.0065                    -0.0205                  297.45631185378846
0.0065                    -0.0195                  297.44540220459345
0.0065                    -0.0185                  297.43226961473755
0.0065                    -0.0175                  297.41913702488165
0.0065                    -0.0165                  297.4060044350257
0.0065                    -0.0155                  297.3919144000554
0.0065                    -0.0145                  297.37550757993154
0.0065                    -0.0135                  297.35886401831885
0.0065                    -0.0125                  297.3422204567062
0.0065                    -0.0115                  297.3244490169872
0.0065                    -0.0105                  297.3054422514209
0.0065                    -0.0095                  297.2864355580345
0.0065                    -0.0085                  297.26636434581053
0.0065                    -0.0075                  297.24591274907687
0.0065                    -0.0065                  297.22416054313663
0.0065                    -0.0055                  297.20226793193797
0.0065                    -0.0045                  297.17984621161014
0.0065                    -0.0035                  297.1573190651445
0.0065                    -0.0025                  297.1327937437596
0.0065                    -0.0015                  297.1102320714856
0.0065                    -5.0E-4                  297.08994260576605
0.0065                    5.0E-4                   297.07134531545597
0.0065                    0.0015                   297.05651579142864
0.0065                    0.0025                   297.044135646699
0.0065                    0.0035                   297.03065966415863
0.0065                    0.0045                   297.00978602087866
0.0065                    0.0055                   296.99347344617706
0.0065                    0.0065                   296.97805954702767
0.0065                    0.0075                   296.2834863870249
0.0065                    0.0085                   295.3768643665485
0.0065                    0.0095                   294.3445889240818
0.0065                    0.0105                   293.96420198186354
0.0065                    0.0115                   293.97497159511494