% Model:              模型结构导入comsolBench.mph
% Version:            COMSOL 6.2.0.339
% Date:               May 14 2026, 09:45
% Dimension:          2
% Nodes:              4096
% Expressions:        1
% Description:        温度
% Length unit:        m
% x                       y                        T (K)
5.0E-4                    -0.0315                  295.0996626718617
5.0E-4                    -0.0305                  295.09877849480165
5.0E-4                    -0.0295                  295.0978943177416
5.0E-4                    -0.0285                  295.0966251815462
5.0E-4                    -0.0275                  295.09453116864967
5.0E-4                    -0.0265                  295.0922996571816
5.0E-4                    -0.0255                  295.0896137809175
5.0E-4                    -0.0245                  295.0867724856527
5.0E-4                    -0.0235                  295.08394569059544
5.0E-4                    -0.0225                  295.0814853678973
5.0E-4                    -0.0215                  295.07983428788054
5.0E-4                    -0.0205                  295.0160465666433
5.0E-4                    -0.0195                  294.7972386101868
5.0E-4                    -0.0185                  294.56685689733706
5.0E-4                    -0.0175                  294.4522053851597
5.0E-4                    -0.0165                  294.43579326725273
5.0E-4                    -0.0155                  294.4378074325733
5.0E-4                    -0.0145                  294.45092970789284
5.0E-4                    -0.0135                  294.4594231454384
5.0E-4                    -0.0125                  294.20681768795026
5.0E-4                    -0.0115                  293.17184184436314
5.0E-4                    -0.0105                  293.1513758557488
5.0E-4                    -0.0095                  293.15101409725463
5.0E-4                    -0.0085                  293.15092850719407
5.0E-4                    -0.0075                  293.1509309074401
5.0E-4                    -0.0065                  293.1509890166809
5.0E-4                    -0.0055                  293.1512133425937
5.0E-4                    -0.0045                  293.1655320541841
5.0E-4                    -0.0035                  293.9521428058149
5.0E-4                    -0.0025                  294.11442746170377
5.0E-4                    -0.0015                  294.0881720384182
5.0E-4                    -5.0E-4                  294.06265268766606
5.0E-4                    5.0E-4                   294.0396422161739
5.0E-4                    0.0015                   294.02423764586774
5.0E-4                    0.0025                   294.0111054020432
5.0E-4                    0.0035                   294.00731438232026
5.0E-4                    0.0045                   294.00454470492707
5.0E-4                    0.0055                   294.0199374239792
5.0E-4                    0.0065                   294.04204446112647
5.0E-4                    0.0075                   294.09505264786947
5.0E-4                    0.0085                   294.16884123108986
5.0E-4                    0.0095                   294.25162235539415
5.0E-4                    0.0105                   294.34574274092415
5.0E-4                    0.0115                   294.45528499001966
5.0E-4                    0.0125                   294.58440619279077
5.0E-4                    0.0135                   294.68060586229217
5.0E-4                    0.0145                   294.73663987190776
5.0E-4                    0.0155                   294.7749433494422
5.0E-4                    0.0165                   294.88194864636125
5.0E-4                    0.0175                   295.0926604158685
5.0E-4                    0.0185                   295.32646266032634
5.0E-4                    0.0195                   295.42114059428104
5.0E-4                    0.0205                   295.42366447802317
5.0E-4                    0.0215                   295.4276410455024
5.0E-4                    0.0225                   295.43240234702967
5.0E-4                    0.0235                   295.4374198729788
5.0E-4                    0.0245                   295.4423649148742
5.0E-4                    0.0255                   295.4470515653737
5.0E-4                    0.0265                   295.4510852893738
5.0E-4                    0.0275                   295.4545379230648
5.0E-4                    0.0285                   295.4577357610155
5.0E-4                    0.0295                   295.4593530683072
5.0E-4                    0.0305                   295.460706716339
5.0E-4                    0.0315                   295.4620422374788
0.0015                    -0.0315                  295.09874104464234
0.0015                    -0.0305                  295.0983540709835
0.0015                    -0.0295                  295.09746989392335
0.0015                    -0.0285                  295.09590952281826
0.0015                    -0.0275                  295.09415977629294
0.0015                    -0.0265                  295.0916504478895
0.0015                    -0.0255                  295.0888910598609
0.0015                    -0.0245                  295.08571038521455
0.0015                    -0.0235                  295.08248842775436
0.0015                    -0.0225                  295.07969583483595
0.0015                    -0.0215                  295.07718615372426
0.0015                    -0.0205                  294.82286460388144
0.0015                    -0.0195                  294.25369289124677
0.0015                    -0.0185                  293.99661668427694
0.0015                    -0.0175                  293.97324886536825
0.0015                    -0.0165                  294.02027182109765
0.0015                    -0.0155                  294.0660756445068
0.0015                    -0.0145                  294.13866905045205
0.0015                    -0.0135                  294.1647229842005
0.0015                    -0.0125                  293.7784435364262
0.0015                    -0.0115                  293.17168152365497
0.0015                    -0.0105                  293.1540351615322
0.0015                    -0.0095                  293.15301843710944
0.0015                    -0.0085                  293.15270965295906
0.0015                    -0.0075                  293.15270620459285
0.0015                    -0.0065                  293.15290105326017
0.0015                    -0.0055                  293.15310053812505
0.0015                    -0.0045                  293.1648960366971
0.0015                    -0.0035                  293.6796007790573
0.0015                    -0.0025                  293.99718857359056
0.0015                    -0.0015                  293.97883160317605
0.0015                    -5.0E-4                  293.9481176736401
0.0015                    5.0E-4                   293.9214434344486
0.0015                    0.0015                   293.8804019906705
0.0015                    0.0025                   293.85399408334627
0.0015                    0.0035                   293.8057702845349
0.0015                    0.0045                   293.7819790165804
0.0015                    0.0055                   293.7217237484716
0.0015                    0.0065                   293.7151959666489
0.0015                    0.0075                   293.64968282806313
0.0015                    0.0085                   293.66742569267666
0.0015                    0.0095                   293.7332496076222
0.0015                    0.0105                   293.7977968585262
0.0015                    0.0115                   293.872964622635
0.0015                    0.0125                   293.93874536244584
0.0015                    0.0135                   294.1183436128856
0.0015                    0.0145                   294.25609156440953
0.0015                    0.0155                   294.3074267556316
0.0015                    0.0165                   294.30975809254744
0.0015                    0.0175                   294.49416638199966
0.0015                    0.0185                   295.07146436312485
0.0015                    0.0195                   295.4178149418234
0.0015                    0.0205                   295.4212354183875
0.0015                    0.0215                   295.4258990836377
0.0015                    0.0225                   295.4311002876133
0.0015                    0.0235                   295.43661878442373
0.0015                    0.0245                   295.4418252221236
0.0015                    0.0255                   295.4464767352591
0.0015                    0.0265                   295.45079940708496
0.0015                    0.0275                   295.4543068243378
0.0015                    0.0285                   295.4571108475261
0.0015                    0.0295                   295.4592751696947
0.0015                    0.0305                   295.46057443705024
0.0015                    0.0315                   295.46140120778
0.0025                    -0.0315                  295.09781615344735
0.0025                    -0.0305                  295.0974389717152
0.0025                    -0.0295                  295.0966846263229
0.0025                    -0.0285                  295.09480623971035
0.0025                    -0.0275                  295.09275610231475
0.0025                    -0.0265                  295.0901061614529
0.0025                    -0.0255                  295.08712690331845
0.0025                    -0.0245                  295.0837929848974
0.0025                    -0.0235                  295.08022291690554
0.0025                    -0.0225                  295.07653914740587
0.0025                    -0.0215                  295.07253300311805
0.0025                    -0.0205                  294.32035125847943
0.0025                    -0.0195                  293.7953053584287
0.0025                    -0.0185                  293.7493302857963
0.0025                    -0.0175                  293.79767232086635
0.0025                    -0.0165                  293.8593016830546
0.0025                    -0.0155                  293.92379823460635
0.0025                    -0.0145                  293.9254738242837
0.0025                    -0.0135                  293.80220189171007
0.0025                    -0.0125                  293.41308049757515
0.0025                    -0.0115                  293.17288552653883
0.0025                    -0.0105                  293.1565896632592
0.0025                    -0.0095                  293.15515638244824
0.0025                    -0.0085                  293.15468818654296
0.0025                    -0.0075                  293.1546163605227
0.0025                    -0.0065                  293.1548975354507
0.0025                    -0.0055                  293.15513971016657
0.0025                    -0.0045                  293.1653206264278
0.0025                    -0.0035                  293.3452106093672
0.0025                    -0.0025                  293.7761199937803
0.0025                    -0.0015                  293.90290878469364
0.0025                    -5.0E-4                  293.87351606603517
0.0025                    5.0E-4                   293.827380640393
0.0025                    0.0015                   293.8022083779588
0.0025                    0.0025                   293.7384957779615
0.0025                    0.0035                   293.7076180722994
0.0025                    0.0045                   293.6432410059906
0.0025                    0.0055                   293.6050351630736
0.0025                    0.0065                   293.5502089633403
0.0025                    0.0075                   293.51670687500973
0.0025                    0.0085                   293.4954510984064
0.0025                    0.0095                   293.4864175129855
0.0025                    0.0105                   293.4872255172389
0.0025                    0.0115                   293.4911306847242
0.0025                    0.0125                   293.524387444427
0.0025                    0.0135                   293.6022468055836
0.0025                    0.0145                   293.7288224528744
0.0025                    0.0155                   293.7963957012379
0.0025                    0.0165                   293.85596193290036
0.0025                    0.0175                   294.0332229954736
0.0025                    0.0185                   294.80361243121604
0.0025                    0.0195                   295.41125618322934
0.0025                    0.0205                   295.4165094037107
0.0025                    0.0215                   295.4225429254176
0.0025                    0.0225                   295.42890132323765
0.0025                    0.0235                   295.434922755166
0.0025                    0.0245                   295.44035232604887
0.0025                    0.0255                   295.4454660660245
0.0025                    0.0265                   295.44987089839736
0.0025                    0.0275                   295.4536100335949
0.0025                    0.0285                   295.4564449291905
0.0025                    0.0295                   295.4590933840665
0.0025                    0.0305                   295.4599334073515
0.0025                    0.0315                   295.4607601780813
0.0035                    -0.0315                  295.0965681208762
0.0035                    -0.0305                  295.09581497775497
0.0035                    -0.0295                  295.0947818338883
0.0035                    -0.0285                  295.09330981122395
0.0035                    -0.0275                  295.09106314214006
0.0035                    -0.0265                  295.08843961424407
0.0035                    -0.0255                  295.08495524623277
0.0035                    -0.0245                  295.08112237535033
0.0035                    -0.0235                  295.07661955786483
0.0035                    -0.0225                  295.07213986695723
0.0035                    -0.0215                  294.4523505059779
0.0035                    -0.0205                  293.71270610979917
0.0035                    -0.0195                  293.7086597254118
0.0035                    -0.0185                  293.7584458815945
0.0035                    -0.0175                  293.8011561253504
0.0035                    -0.0165                  293.78396317848615
0.0035                    -0.0155                  293.77461353463684
0.0035                    -0.0145                  293.6211072256298
0.0035                    -0.0135                  293.36522592417447
0.0035                    -0.0125                  293.2143088786968
0.0035                    -0.0115                  293.1666877437324
0.0035                    -0.0105                  293.1590091836505
0.0035                    -0.0095                  293.1574585065281
0.0035                    -0.0085                  293.15692482826
0.0035                    -0.0075                  293.15675594287904
0.0035                    -0.0065                  293.15700557569096
0.0035                    -0.0055                  293.15795196735854
0.0035                    -0.0045                  293.16842745549224
0.0035                    -0.0035                  293.2514887696408
0.0035                    -0.0025                  293.4153575534485
0.0035                    -0.0015                  293.639910781802
0.0035                    -5.0E-4                  293.71668640224004
0.0035                    5.0E-4                   293.74820894595825
0.0035                    0.0015                   293.69838981515693
0.0035                    0.0025                   293.6671422398883
0.0035                    0.0035                   293.59800185713607
0.0035                    0.0045                   293.535782464322
0.0035                    0.0055                   293.48775111312153
0.0035                    0.0065                   293.44266633606503
0.0035                    0.0075                   293.4213155875873
0.0035                    0.0085                   293.39799751266753
0.0035                    0.0095                   293.39310501039836
0.0035                    0.0105                   293.387029116539
0.0035                    0.0115                   293.39632092588687
0.0035                    0.0125                   293.4031265675612
0.0035                    0.0135                   293.431798080239
0.0035                    0.0145                   293.47378923224926
0.0035                    0.0155                   293.5306303089244
0.0035                    0.0165                   293.6203902777455
0.0035                    0.0175                   293.7737839756683
0.0035                    0.0185                   294.5936646956676
0.0035                    0.0195                   295.40134180167877
0.0035                    0.0205                   295.4101720976395
0.0035                    0.0215                   295.4181486171949
0.0035                    0.0225                   295.4256099394993
0.0035                    0.0235                   295.43239537048004
0.0035                    0.0245                   295.43876979755714
0.0035                    0.0255                   295.4443028667399
0.0035                    0.0265                   295.4486279907769
0.0035                    0.0275                   295.4528115789825
0.0035                    0.0285                   295.4555368618786
0.0035                    0.0295                   295.4580273567793
0.0035                    0.0305                   295.45905525811895
0.0035                    0.0315                   295.4600831594587
0.0045                    -0.0315                  295.0943129985411
0.0045                    -0.0305                  295.09402508182876
0.0045                    -0.0295                  295.0928644083653
0.0045                    -0.0285                  295.09121243792066
0.0045                    -0.0275                  295.0888932214975
0.0045                    -0.0265                  295.0861242259306
0.0045                    -0.0255                  295.082417070554
0.0045                    -0.0245                  295.07791309115805
0.0045                    -0.0235                  295.0724206905338
0.0045                    -0.0225                  295.0644732898299
0.0045                    -0.0215                  293.9514818035234
0.0045                    -0.0205                  293.6405407383457
0.0045                    -0.0195                  293.71791097840224
0.0045                    -0.0185                  293.71237569826616
0.0045                    -0.0175                  293.67640987228054
0.0045                    -0.0165                  293.5592549495593
0.0045                    -0.0155                  293.38837161128043
0.0045                    -0.0145                  293.2401358052332
0.0045                    -0.0135                  293.20659335412654
0.0045                    -0.0125                  293.1735237935342
0.0045                    -0.0115                  293.1642093294524
0.0045                    -0.0105                  293.1617901859586
0.0045                    -0.0095                  293.1605493284804
0.0045                    -0.0085                  293.1598654682124
0.0045                    -0.0075                  293.1592802827953
0.0045                    -0.0065                  293.1594937196993
0.0045                    -0.0055                  293.1608569139565
0.0045                    -0.0045                  293.1645730441265
0.0045                    -0.0035                  293.17217483405136
0.0045                    -0.0025                  293.2373357254989
0.0045                    -0.0015                  293.3406985253338
0.0045                    -5.0E-4                  293.4439353080248
0.0045                    5.0E-4                   293.4988651692723
0.0045                    0.0015                   293.4920283736736
0.0045                    0.0025                   293.4553340686997
0.0045                    0.0035                   293.41004264655544
0.0045                    0.0045                   293.3653284943947
0.0045                    0.0055                   293.33758194479094
0.0045                    0.0065                   293.32907875730984
0.0045                    0.0075                   293.323817684649
0.0045                    0.0085                   293.33055137103383
0.0045                    0.0095                   293.32851916351603
0.0045                    0.0105                   293.3370952087745
0.0045                    0.0115                   293.3421374581303
0.0045                    0.0125                   293.35403961942916
0.0045                    0.0135                   293.36564082859314
0.0045                    0.0145                   293.38368412437956
0.0045                    0.0155                   293.41842400151205
0.0045                    0.0165                   293.4600125132205
0.0045                    0.0175                   293.54013547486517
0.0045                    0.0185                   294.2840008868783
0.0045                    0.0195                   295.3907855238836
0.0045                    0.0205                   295.40367538455854
0.0045                    0.0215                   295.41309054996697
0.0045                    0.0225                   295.42192992738507
0.0045                    0.0235                   295.4297608531941
0.0045                    0.0245                   295.43662145183504
0.0045                    0.0255                   295.44279027748837
0.0045                    0.0265                   295.447462360284
0.0045                    0.0275                   295.4515945004871
0.0045                    0.0285                   295.45443127407657
0.0045                    0.0295                   295.45696132949206
0.0045                    0.0305                   295.45797714082613
0.0045                    0.0315                   295.4587792748319
0.0055                    -0.0315                  295.0919114811081
0.0055                    -0.0305                  295.0914106117344
0.0055                    -0.0295                  295.0903276659894
0.0055                    -0.0285                  295.0887915550336
0.0055                    -0.0275                  295.0863880390557
0.0055                    -0.0265                  295.08346655638576
0.0055                    -0.0255                  295.07951152489306
0.0055                    -0.0245                  295.0746125651932
0.0055                    -0.0235                  295.06858578974453
0.0055                    -0.0225                  294.2657316780553
0.0055                    -0.0215                  293.6032553031559
0.0055                    -0.0205                  293.57104075124454
0.0055                    -0.0195                  293.5331922972223
0.0055                    -0.0185                  293.459863658695
0.0055                    -0.0175                  293.37229807999455
0.0055                    -0.0165                  293.2811583559686
0.0055                    -0.0155                  293.22145574265556
0.0055                    -0.0145                  293.18648301754297
0.0055                    -0.0135                  293.1734293294996
0.0055                    -0.0125                  293.16946757652215
0.0055                    -0.0115                  293.1688678660987
0.0055                    -0.0105                  293.1667159771613
0.0055                    -0.0095                  293.1668142956868
0.0055                    -0.0085                  293.16483104679617
0.0055                    -0.0075                  293.1633810865279
0.0055                    -0.0065                  293.16275285211975
0.0055                    -0.0055                  293.1632329120797
0.0055                    -0.0045                  293.1644102490663
0.0055                    -0.0035                  293.16775761735863
0.0055                    -0.0025                  293.179754418164
0.0055                    -0.0015                  293.2204691536251
0.0055                    -5.0E-4                  293.24888011345627
0.0055                    5.0E-4                   293.2868308285248
0.0055                    0.0015                   293.28989061103346
0.0055                    0.0025                   293.2668561923752
0.0055                    0.0035                   293.25932086525916
0.0055                    0.0045                   293.2595195163818
0.0055                    0.0055                   293.26312539892655
0.0055                    0.0065                   293.2720904217617
0.0055                    0.0075                   293.28146690353833
0.0055                    0.0085                   293.2935932880175
0.0055                    0.0095                   293.29775707785507
0.0055                    0.0105                   293.3057503327215
0.0055                    0.0115                   293.31168467284266
0.0055                    0.0125                   293.32263503710055
0.0055                    0.0135                   293.3347414542836
0.0055                    0.0145                   293.34777687079924
0.0055                    0.0155                   293.3649201290115
0.0055                    0.0165                   293.3934466226524
0.0055                    0.0175                   293.43434167484776
0.0055                    0.0185                   293.57104866460253
0.0055                    0.0195                   294.75417337106893
0.0055                    0.0205                   295.396061446776
0.0055                    0.0215                   295.4075796247864
0.0055                    0.0225                   295.4180971420464
0.0055                    0.0235                   295.4270396290338
0.0055                    0.0245                   295.43468564674964
0.0055                    0.0255                   295.4409844264815
0.0055                    0.0265                   295.44614930175595
0.0055                    0.0275                   295.45018918372784
0.0055                    0.0285                   295.4530858414648
0.0055                    0.0295                   295.45558015934915
0.0055                    0.0305                   295.4564975305451
0.0055                    0.0315                   295.4572996645509
0.0065                    -0.0315                  295.0889473477808
0.0065                    -0.0305                  295.08850364863474
0.0065                    -0.0295                  295.087325902854
0.0065                    -0.0285                  295.0860188866037
0.0065                    -0.0275                  295.0836493589253
0.0065                    -0.0265                  295.0806086447063
0.0065                    -0.0255                  295.07653226465834
0.0065                    -0.0245                  295.07140274923904
0.0065                    -0.0235                  294.36612686170605
0.0065                    -0.0225                  293.59777035551343
0.0065                    -0.0215                  293.48084945709513
0.0065                    -0.0205                  293.4321248837349
0.0065                    -0.0195                  293.3705024762776
0.0065                    -0.0185                  293.30824037204076
0.0065                    -0.0175                  293.256209322804
0.0065                    -0.0165                  293.2082196295262
0.0065                    -0.0155                  293.19933438895686
0.0065                    -0.0145                  293.2079308464805
0.0065                    -0.0135                  293.2424633023079
0.0065                    -0.0125                  293.30061273900463
0.0065                    -0.0115                  293.32541434270286
0.0065                    -0.0105                  293.3167771021696
0.0065                    -0.0095                  293.29665804107634
0.0065                    -0.0085                  293.18242089408056
0.0065                    -0.0075                  293.1750244736966
0.0065                    -0.0065                  293.1736176964464
0.0065                    -0.0055                  293.17178295748397
0.0065                    -0.0045                  293.1700133090393
0.0065                    -0.0035                  293.1688255135414
0.0065                    -0.0025                  293.1696566433703
0.0065                    -0.0015                  293.17557064206613
0.0065                    -5.0E-4                  293.18267771410683
0.0065                    5.0E-4                   293.19901949010944
0.0065                    0.0015                   293.2047597063188
0.0065                    0.0025                   293.2094555035185
0.0065                    0.0035                   293.2434991434329
0.0065                    0.0045                   293.2694618198509
0.0065                    0.0055                   293.27577571705933
0.0065                    0.0065                   293.292303153774
0.0065                    0.0075                   293.3047500836283
0.0065                    0.0085                   293.3076213452169
0.0065                    0.0095                   293.3099407831949
0.0065                    0.0105                   293.3193264446032