% Model:              模型结构导入comsolBench.mph
% Version:            COMSOL 6.2.0.339
% Date:               May 14 2026, 09:34
% Dimension:          2
% Nodes:              4096
% Expressions:        1
% Description:        温度
% Length unit:        m
% x                       y                        T (K)
5.0E-4                    -0.0315                  298.7167678692316
5.0E-4                    -0.0305                  298.71309840447964
5.0E-4                    -0.0295                  298.7094186182178
5.0E-4                    -0.0285                  298.70573883195584
5.0E-4                    -0.0275                  298.69983374344974
5.0E-4                    -0.0265                  298.68842094549154
5.0E-4                    -0.0255                  298.6768603179136
5.0E-4                    -0.0245                  298.6652996903357
5.0E-4                    -0.0235                  298.6525646364686
5.0E-4                    -0.0225                  298.63387411587763
5.0E-4                    -0.0215                  298.61440049872107
5.0E-4                    -0.0205                  298.59492688156456
5.0E-4                    -0.0195                  298.57474707215766
5.0E-4                    -0.0185                  298.5485633201903
5.0E-4                    -0.0175                  298.5203579581518
5.0E-4                    -0.0165                  298.4921525961133
5.0E-4                    -0.0155                  298.46366634860226
5.0E-4                    -0.0145                  298.428176472112
5.0E-4                    -0.0135                  298.38933670342
5.0E-4                    -0.0125                  298.3504969347278
5.0E-4                    -0.0115                  298.31023532968754
5.0E-4                    -0.0105                  298.260467448682
5.0E-4                    -0.0095                  298.21007165394735
5.0E-4                    -0.0085                  298.1578238334147
5.0E-4                    -0.0075                  298.0964544707591
5.0E-4                    -0.0065                  298.033403773191
5.0E-4                    -0.0055                  297.9633830056108
5.0E-4                    -0.0045                  297.8893201760244
5.0E-4                    -0.0035                  297.81414447315836
5.0E-4                    -0.0025                  297.7438574046761
5.0E-4                    -0.0015                  297.6939792741107
5.0E-4                    -5.0E-4                  296.1896739033917
5.0E-4                    5.0E-4                   293.9078856826688
5.0E-4                    0.0015                   293.38623242874803
5.0E-4                    0.0025                   293.34064853871246
5.0E-4                    0.0035                   293.3250691202511
5.0E-4                    0.0045                   293.3159614947722
5.0E-4                    0.0055                   293.30796324046753
5.0E-4                    0.0065                   293.3013532497148
5.0E-4                    0.0075                   293.29606428254635
5.0E-4                    0.0085                   293.29192079738414
5.0E-4                    0.0095                   293.28874692717716
5.0E-4                    0.0105                   293.2877447616072
5.0E-4                    0.0115                   293.2894658992486
5.0E-4                    0.0125                   293.29256612439684
5.0E-4                    0.0135                   293.29726665321846
5.0E-4                    0.0145                   293.30226478609967
5.0E-4                    0.0155                   293.3078229788654
5.0E-4                    0.0165                   293.31445656214873
5.0E-4                    0.0175                   293.32233274005
5.0E-4                    0.0185                   293.3320056542549
5.0E-4                    0.0195                   293.34586505189156
5.0E-4                    0.0205                   293.3588549695269
5.0E-4                    0.0215                   293.31083207473694
5.0E-4                    0.0225                   293.15388994689147
5.0E-4                    0.0235                   293.15048705078834
5.0E-4                    0.0245                   293.15036410970663
5.0E-4                    0.0255                   293.2157482080862
5.0E-4                    0.0265                   293.9705629759153
5.0E-4                    0.0275                   294.18015658660966
5.0E-4                    0.0285                   294.2803181546148
5.0E-4                    0.0295                   294.2535289146399
5.0E-4                    0.0305                   294.22761645456495
5.0E-4                    0.0315                   294.22764947601513
0.0015                    -0.0315                  298.7182326380047
0.0015                    -0.0305                  298.7150491299384
0.0015                    -0.0295                  298.7114003082063
0.0015                    -0.0285                  298.70743446362496
0.0015                    -0.0275                  298.69970420501033
0.0015                    -0.0265                  298.69079932024
0.0015                    -0.0255                  298.67923869266207
0.0015                    -0.0245                  298.6669077193064
0.0015                    -0.0235                  298.65296383245743
0.0015                    -0.0225                  298.6366972364852
0.0015                    -0.0215                  298.6172236193286
0.0015                    -0.0205                  298.5977500021721
0.0015                    -0.0195                  298.57528495748846
0.0015                    -0.0185                  298.5516981635535
0.0015                    -0.0175                  298.5234928015151
0.0015                    -0.0165                  298.49528743947656
0.0015                    -0.0155                  298.46535858593734
0.0015                    -0.0145                  298.4311224627677
0.0015                    -0.0135                  298.39329189003143
0.0015                    -0.0125                  298.35445212133936
0.0015                    -0.0115                  298.3121592846421
0.0015                    -0.0105                  298.26539019882205
0.0015                    -0.0095                  298.21409673034407
0.0015                    -0.0085                  298.16003604259697
0.0015                    -0.0075                  298.1023212888652
0.0015                    -0.0065                  298.0354130343955
0.0015                    -0.0055                  297.9672805056371
0.0015                    -0.0045                  297.89154364818137
0.0015                    -0.0035                  297.8077630410566
0.0015                    -0.0025                  297.72469416262317
0.0015                    -0.0015                  297.64660490302026
0.0015                    -5.0E-4                  295.31033621615643
0.0015                    5.0E-4                   293.43744417288025
0.0015                    0.0015                   293.3250316635633
0.0015                    0.0025                   293.30873159030347
0.0015                    0.0035                   293.30255524094287
0.0015                    0.0045                   293.29709935930987
0.0015                    0.0055                   293.2896339364354
0.0015                    0.0065                   293.28579468097064
0.0015                    0.0075                   293.2803163044287
0.0015                    0.0085                   293.27691085690407
0.0015                    0.0095                   293.2745169981496
0.0015                    0.0105                   293.2744757404721
0.0015                    0.0115                   293.2787482703434
0.0015                    0.0125                   293.2902597264835
0.0015                    0.0135                   293.2983072768921
0.0015                    0.0145                   293.30407731045335
0.0015                    0.0155                   293.3077391572288
0.0015                    0.0165                   293.3114467117317
0.0015                    0.0175                   293.31540539933644
0.0015                    0.0185                   293.3197955533309
0.0015                    0.0195                   293.32602318776463
0.0015                    0.0205                   293.3295436454353
0.0015                    0.0215                   293.2656060355498
0.0015                    0.0225                   293.1530827528712
0.0015                    0.0235                   293.1512751967789
0.0015                    0.0245                   293.15581468909
0.0015                    0.0255                   293.3280268713475
0.0015                    0.0265                   293.7567534638916
0.0015                    0.0275                   293.9204829082595
0.0015                    0.0285                   294.14610008066916
0.0015                    0.0295                   294.22624580714444
0.0015                    0.0305                   294.22653856404366
0.0015                    0.0315                   294.22661171460686
0.0025                    -0.0315                  298.71969740677775
0.0025                    -0.0305                  298.71651389871147
0.0025                    -0.0295                  298.7133303906452
0.0025                    -0.0285                  298.7073049251855
0.0025                    -0.0275                  298.6995746665709
0.0025                    -0.0265                  298.69184440795635
0.0025                    -0.0255                  298.6812508021441
0.0025                    -0.0245                  298.66730691529517
0.0025                    -0.0235                  298.6533630284463
0.0025                    -0.0225                  298.6394191415974
0.0025                    -0.0215                  298.6200467399362
0.0025                    -0.0205                  298.5985828503641
0.0025                    -0.0195                  298.5758228428192
0.0025                    -0.0185                  298.5530628352744
0.0025                    -0.0175                  298.5266276448783
0.0025                    -0.0165                  298.4970177008048
0.0025                    -0.0155                  298.4670508232723
0.0025                    -0.0145                  298.4328269063626
0.0025                    -0.0135                  298.39714312146765
0.0025                    -0.0125                  298.35659701533393
0.0025                    -0.0115                  298.3140832395967
0.0025                    -0.0105                  298.2703129489621
0.0025                    -0.0095                  298.2171539642992
0.0025                    -0.0085                  298.16526974784364
0.0025                    -0.0075                  298.1104345584705
0.0025                    -0.0065                  298.0452045282217
0.0025                    -0.0055                  297.9765088403287
0.0025                    -0.0045                  297.8982139576693
0.0025                    -0.0035                  297.8061580217095
0.0025                    -0.0025                  297.69554965075946
0.0025                    -0.0015                  297.56770034388717
0.0025                    -5.0E-4                  295.07888730199244
0.0025                    5.0E-4                   293.4009996382837
0.0025                    0.0015                   293.31476367066784
0.0025                    0.0025                   293.30758710912846
0.0025                    0.0035                   293.3070607025543
0.0025                    0.0045                   293.3044279835164
0.0025                    0.0055                   293.29778479180476
0.0025                    0.0065                   293.29407013016646
0.0025                    0.0075                   293.2829336895544
0.0025                    0.0085                   293.27508497679077
0.0025                    0.0095                   293.26977059863026
0.0025                    0.0105                   293.2680298092682
0.0025                    0.0115                   293.27099067645145
0.0025                    0.0125                   293.29150358099093
0.0025                    0.0135                   293.3076027396739
0.0025                    0.0145                   293.31940245408816
0.0025                    0.0155                   293.3253990870552
0.0025                    0.0165                   293.32461916475955
0.0025                    0.0175                   293.3236029067184
0.0025                    0.0185                   293.32443977581613
0.0025                    0.0195                   293.32698978779143
0.0025                    0.0205                   293.32351822399335
0.0025                    0.0215                   293.2348585244084
0.0025                    0.0225                   293.1581405208687
0.0025                    0.0235                   293.1522022334751
0.0025                    0.0245                   293.16291589200466
0.0025                    0.0255                   293.37880071272235
0.0025                    0.0265                   293.7102194537829
0.0025                    0.0275                   293.8029839167803
0.0025                    0.0285                   294.08612125264017
0.0025                    0.0295                   294.22400698698505
0.0025                    0.0305                   294.2243723899986
0.0025                    0.0315                   294.2246298502498
0.0035                    -0.0315                  298.72116217555083
0.0035                    -0.0305                  298.7180865823991
0.0035                    -0.0295                  298.71561099873657
0.0035                    -0.0285                  298.7105274411612
0.0035                    -0.0275                  298.7026104760039
0.0035                    -0.0265                  298.6946935108465
0.0035                    -0.0255                  298.6840103746499
0.0035                    -0.0245                  298.6691519507367
0.0035                    -0.0235                  298.6542935268236
0.0035                    -0.0225                  298.63981833758623
0.0035                    -0.0215                  298.6218807432397
0.0035                    -0.0205                  298.5991207356949
0.0035                    -0.0195                  298.5769714632863
0.0035                    -0.0185                  298.5549589462737
0.0035                    -0.0175                  298.5302532455505
0.0035                    -0.0165                  298.5005253353536
0.0035                    -0.0155                  298.4708751646632
0.0035                    -0.0145                  298.43699066157717
0.0035                    -0.0135                  298.40203384724174
0.0035                    -0.0125                  298.36382366381685
0.0035                    -0.0115                  298.32196134473116
0.0035                    -0.0105                  298.27895486500097
0.0035                    -0.0095                  298.2291250563311
0.0035                    -0.0085                  298.17731127678223
0.0035                    -0.0075                  298.12136341529816
0.0035                    -0.0065                  298.0577088539869
0.0035                    -0.0055                  297.99109962162845
0.0035                    -0.0045                  297.9135017830434
0.0035                    -0.0035                  297.82027310835093
0.0035                    -0.0025                  297.6922717263558
0.0035                    -0.0015                  297.47702340036426
0.0035                    -5.0E-4                  295.1152559029791
0.0035                    5.0E-4                   293.2974283649352
0.0035                    0.0015                   293.31381756675285
0.0035                    0.0025                   293.32218228546066
0.0035                    0.0035                   293.3276075964045
0.0035                    0.0045                   293.33790937017574
0.0035                    0.0055                   293.3437023861383
0.0035                    0.0065                   293.330997242152
0.0035                    0.0075                   293.31544342197896
0.0035                    0.0085                   293.2896659971594
0.0035                    0.0095                   293.2735126408006
0.0035                    0.0105                   293.2648368269788
0.0035                    0.0115                   293.2643657811474
0.0035                    0.0125                   293.27747877243013
0.0035                    0.0135                   293.30327869411195
0.0035                    0.0145                   293.32175572050716
0.0035                    0.0155                   293.33719085250965
0.0035                    0.0165                   293.3361714459361
0.0035                    0.0175                   293.3331882185007
0.0035                    0.0185                   293.33057213157747
0.0035                    0.0195                   293.32860725205956
0.0035                    0.0205                   293.29246064128796
0.0035                    0.0215                   293.21846822995764
0.0035                    0.0225                   293.1594719954192
0.0035                    0.0235                   293.1536853756055
0.0035                    0.0245                   293.2235875384707
0.0035                    0.0255                   293.40514896317796
0.0035                    0.0265                   293.6743782190234
0.0035                    0.0275                   293.7415487991344
0.0035                    0.0285                   294.0469095884938
0.0035                    0.0295                   294.22085324994106
0.0035                    0.0305                   294.2215484596142
0.0035                    0.0315                   294.221927199097
0.0045                    -0.0315                  298.7233095132342
0.0045                    -0.0305                  298.72083392957165
0.0045                    -0.0295                  298.7183583459091
0.0045                    -0.0285                  298.7147207035954
0.0045                    -0.0275                  298.706803738438
0.0045                    -0.0265                  298.6976289382291
0.0045                    -0.0255                  298.6873145737426
0.0045                    -0.0245                  298.6736979774684
0.0045                    -0.0235                  298.6588395535552
0.0045                    -0.0225                  298.64412475179444
0.0045                    -0.0215                  298.62671913512077
0.0045                    -0.0205                  298.6052299467759
0.0045                    -0.0195                  298.5832174297633
0.0045                    -0.0185                  298.56120491275067
0.0045                    -0.0175                  298.53623466716266
0.0045                    -0.0165                  298.5068812755667
0.0045                    -0.0155                  298.47686472721875
0.0045                    -0.0145                  298.4435933588767
0.0045                    -0.0135                  298.40968632285274
0.0045                    -0.0125                  298.3718529300662
0.0045                    -0.0115                  298.33163589616487
0.0045                    -0.0105                  298.28760397409644
0.0045                    -0.0095                  298.24123390098737
0.0045                    -0.0085                  298.1915523206975
0.0045                    -0.0075                  298.1369095480429
0.0045                    -0.0065                  298.0779731700127
0.0045                    -0.0055                  298.01416099250724
0.0045                    -0.0045                  297.9456856899409
0.0045                    -0.0035                  297.86767409452017
0.0045                    -0.0025                  297.4161476098355
0.0045                    -0.0015                  296.00926166184223
0.0045                    -5.0E-4                  293.80949776543616
0.0045                    5.0E-4                   293.28399784964216
0.0045                    0.0015                   293.337673147491
0.0045                    0.0025                   293.3577706322739
0.0045                    0.0035                   293.38778957318004
0.0045                    0.0045                   293.4057008588033
0.0045                    0.0055                   293.41514630598783
0.0045                    0.0065                   293.408998234454
0.0045                    0.0075                   293.38412517836264
0.0045                    0.0085                   293.350978566183
0.0045                    0.0095                   293.31017435434774
0.0045                    0.0105                   293.2658407945149
0.0045                    0.0115                   293.2591293353536
0.0045                    0.0125                   293.2568155698528
0.0045                    0.0135                   293.275638139727
0.0045                    0.0145                   293.3030526439625
0.0045                    0.0155                   293.31765843064716
0.0045                    0.0165                   293.3315790083528
0.0045                    0.0175                   293.33252511722867
0.0045                    0.0185                   293.325739124786
0.0045                    0.0195                   293.3105023270208
0.0045                    0.0205                   293.2583739701539
0.0045                    0.0215                   293.1910241335553
0.0045                    0.0225                   293.1595012153397
0.0045                    0.0235                   293.1569584993152
0.0045                    0.0245                   293.2592944915728
0.0045                    0.0255                   293.45961777770026
0.0045                    0.0265                   293.6363643442598
0.0045                    0.0275                   293.71395680742404
0.0045                    0.0285                   294.0454910733523
0.0045                    0.0295                   294.2169967700205
0.0045                    0.0305                   294.2180241580551
0.0045                    0.0315                   294.2184825877432
0.0055                    -0.0315                  298.7282468898279
0.0055                    -0.0305                  298.72453407152426
0.0055                    -0.0295                  298.72110569308165
0.0055                    -0.0285                  298.71863010941917
0.0055                    -0.0275                  298.71056320643424
0.0055                    -0.0265                  298.70024884194765
0.0055                    -0.0255                  298.6899344774611
0.0055                    -0.0245                  298.6782440042
0.0055                    -0.0235                  298.66362803665146
0.0055                    -0.0225                  298.6490491100743
0.0055                    -0.0215                  298.6307656620186
0.0055                    -0.0205                  298.61143505546227
0.0055                    -0.0195                  298.58946339624026
0.0055                    -0.0185                  298.5661542434839
0.0055                    -0.0175                  298.54106367034456
0.0055                    -0.0165                  298.51368901038734
0.0055                    -0.0155                  298.4837556896414
0.0055                    -0.0145                  298.4524014592917
0.0055                    -0.0135                  298.41785665330013
0.0055                    -0.0125                  298.38077376645356
0.0055                    -0.0115                  298.34258782349457
0.0055                    -0.0105                  298.3008410746577
0.0055                    -0.0095                  298.25626284856804
0.0055                    -0.0085                  298.2085978844511
0.0055                    -0.0075                  298.1565818514094
0.0055                    -0.0065                  298.1000904099771
0.0055                    -0.0055                  298.0422240077077
0.0055                    -0.0045                  297.9848203039128
0.0055                    -0.0035                  297.1352475207507
0.0055                    -0.0025                  295.5396674953559
0.0055                    -0.0015                  294.01254459757797
0.0055                    -5.0E-4                  293.35784986499806
0.0055                    5.0E-4                   293.3349623281665
0.0055                    0.0015                   293.38116446068136
0.0055                    0.0025                   293.4238753817593
0.0055                    0.0035                   293.4693579399584
0.0055                    0.0045                   293.52218871581914
0.0055                    0.0055                   293.54382886889874
0.0055                    0.0065                   293.5433028991979
0.0055                    0.0075                   293.510541357094
0.0055                    0.0085                   293.45133664437844
0.0055                    0.0095                   293.38356854934443
0.0055                    0.0105                   293.33682079987625
0.0055                    0.0115                   293.2858834841057
0.0055                    0.0125                   293.2484245020237
0.0055                    0.0135                   293.25137811353727
0.0055                    0.0145                   293.26263442672166
0.0055                    0.0155                   293.2866170844778
0.0055                    0.0165                   293.3114829294411
0.0055                    0.0175                   293.31084214216105
0.0055                    0.0185                   293.3054544312424
0.0055                    0.0195                   293.27405455222515
0.0055                    0.0205                   293.22480883832503
0.0055                    0.0215                   293.18476171764075
0.0055                    0.0225                   293.15925947607144
0.0055                    0.0235                   293.1735371332492
0.0055                    0.0245                   293.28443303937587
0.0055                    0.0255                   293.4852127865873
0.0055                    0.0265                   293.6071104604558
0.0055                    0.0275                   293.77948884357227
0.0055                    0.0285                   294.0952212535918
0.0055                    0.0295                   294.21232948196746
0.0055                    0.0305                   294.2138713670514
0.0055                    0.0315                   294.21468838386306
0.0065                    -0.0315                  298.7332300506417
0.0065                    -0.0305                  298.729517232338
0.0065                    -0.0295                  298.72580441403437
0.0065                    -0.0285                  298.72211407118147
0.0065                    -0.0275                  298.7141896555118
0.0065                    -0.0265                  298.704454374437
0.0065                    -0.0255                  298.6947190933621
0.0065                    -0.0245                  298.6837308230423
0.0065                    -0.0235                  298.66869902728723
0.0065                    -0.0225                  298.65397346835414
0.0065                    -0.0215                  298.6348121889165
0.0065                    -0.0205                  298.6154815823602
0.0065                    -0.0195                  298.59570936271723
0.0065                    -0.0185                  298.5709832466657
0.0065                    -0.0175                  298.5464918447121
0.0065                    -0.0165                  298.5214740439784
0.0065                    -0.0155                  298.4913003884659
0.0065                    -0.0145                  298.4617735909252
0.0065                    -0.0135                  298.42808763238463
0.0065                    -0.0125                  298.3931351858572
0.0065                    -0.0115                  298.3552377890172
0.0065                    -0.0105                  298.31597305656464
0.0065                    -0.0095                  298.2741756828229
0.0065                    -0.0085                  298.2296811027731
0.0065                    -0.0075                  298.18055564624444
0.0065                    -0.0065                  298.1238332210607
0.0065                    -0.0055                  298.06755972216996
0.0065                    -0.0045                  297.0647387793935
0.0065                    -0.0035                  295.3533870927728
0.0065                    -0.0025                  294.1340100538833
0.0065                    -0.0015                  293.46359107411416
0.0065                    -5.0E-4                  293.3467988044491
0.0065                    5.0E-4                   293.38182642560724
0.0065                    0.0015                   293.4452594840333
0.0065                    0.0025                   293.50972968664814
0.0065                    0.0035                   293.58710104091585
0.0065                    0.0045                   293.6592509972527
0.0065                    0.0055                   293.72147122647425
0.0065                    0.0065                   293.73552029177574
0.0065                    0.0075                   293.73257068043586
0.0065                    0.0085                   293.65876756910797
0.0065                    0.0095                   293.5443071546564
0.0065                    0.0105                   293.44396713392894
0.0065                    0.0115                   293.36520472503014