% Model:              模型结构导入comsolBench.mph
% Version:            COMSOL 6.2.0.339
% Date:               May 14 2026, 09:50
% Dimension:          2
% Nodes:              4096
% Expressions:        1
% Description:        温度
% Length unit:        m
% x                       y                        T (K)
5.0E-4                    -0.0315                  293.58887582863224
5.0E-4                    -0.0305                  293.5865324898281
5.0E-4                    -0.0295                  293.5822222086148
5.0E-4                    -0.0285                  293.574638207481
5.0E-4                    -0.0275                  293.56347091295055
5.0E-4                    -0.0265                  293.54952818445935
5.0E-4                    -0.0255                  293.27988032263823
5.0E-4                    -0.0245                  293.15412371682135
5.0E-4                    -0.0235                  293.14937894412964
5.0E-4                    -0.0225                  293.1494976231215
5.0E-4                    -0.0215                  293.15006491802296
5.0E-4                    -0.0205                  293.1506136545994
5.0E-4                    -0.0195                  293.1507880088136
5.0E-4                    -0.0185                  293.1506547193245
5.0E-4                    -0.0175                  293.1505375561452
5.0E-4                    -0.0165                  293.15739342301595
5.0E-4                    -0.0155                  293.6843788067463
5.0E-4                    -0.0145                  293.86333219695473
5.0E-4                    -0.0135                  293.8502160438393
5.0E-4                    -0.0125                  293.8312282448283
5.0E-4                    -0.0115                  293.81521955217625
5.0E-4                    -0.0105                  293.8026147673337
5.0E-4                    -0.0095                  293.7926078986453
5.0E-4                    -0.0085                  293.7830512808205
5.0E-4                    -0.0075                  293.7778529930048
5.0E-4                    -0.0065                  293.77272960865054
5.0E-4                    -0.0055                  293.77179830511807
5.0E-4                    -0.0045                  293.7713218988307
5.0E-4                    -0.0035                  293.76659917189244
5.0E-4                    -0.0025                  293.76667802152986
5.0E-4                    -0.0015                  293.7712882750235
5.0E-4                    -5.0E-4                  293.7807848731822
5.0E-4                    5.0E-4                   293.7959529468711
5.0E-4                    0.0015                   293.81426774414825
5.0E-4                    0.0025                   293.83571851790583
5.0E-4                    0.0035                   293.86168732186087
5.0E-4                    0.0045                   293.8837891895074
5.0E-4                    0.0055                   293.8976460670267
5.0E-4                    0.0065                   293.9077471237579
5.0E-4                    0.0075                   293.91136578228554
5.0E-4                    0.0085                   293.91469699603385
5.0E-4                    0.0095                   293.9218624132693
5.0E-4                    0.0105                   293.9249950350835
5.0E-4                    0.0115                   293.9237992178955
5.0E-4                    0.0125                   293.9250143440382
5.0E-4                    0.0135                   294.0228518042113
5.0E-4                    0.0145                   294.2231563337503
5.0E-4                    0.0155                   294.417774184359
5.0E-4                    0.0165                   294.4561697648006
5.0E-4                    0.0175                   294.4593593172867
5.0E-4                    0.0185                   294.46445442921765
5.0E-4                    0.0195                   294.4706579352777
5.0E-4                    0.0205                   294.4775742556153
5.0E-4                    0.0215                   294.4845493394142
5.0E-4                    0.0225                   294.49142374476037
5.0E-4                    0.0235                   294.49798650545983
5.0E-4                    0.0245                   294.5043044097439
5.0E-4                    0.0255                   294.5093801800102
5.0E-4                    0.0265                   294.5141830256784
5.0E-4                    0.0275                   294.5189053195369
5.0E-4                    0.0285                   294.52189584188693
5.0E-4                    0.0295                   294.52369196989497
5.0E-4                    0.0305                   294.52548809790306
5.0E-4                    0.0315                   294.52724172220167
0.0015                    -0.0315                  293.5901124638904
0.0015                    -0.0305                  293.58828841713904
0.0015                    -0.0295                  293.58438213868186
0.0015                    -0.0285                  293.57880846778465
0.0015                    -0.0275                  293.5716722992518
0.0015                    -0.0265                  293.5642570199509
0.0015                    -0.0255                  293.31109815356274
0.0015                    -0.0245                  293.16223713399893
0.0015                    -0.0235                  293.1511975554595
0.0015                    -0.0225                  293.1505580438377
0.0015                    -0.0215                  293.15097839469877
0.0015                    -0.0205                  293.1514645561721
0.0015                    -0.0195                  293.15166689311195
0.0015                    -0.0185                  293.1516377307929
0.0015                    -0.0175                  293.1517120740019
0.0015                    -0.0165                  293.158989199047
0.0015                    -0.0155                  293.5163195629865
0.0015                    -0.0145                  293.74676900704173
0.0015                    -0.0135                  293.7484804093614
0.0015                    -0.0125                  293.7401928173805
0.0015                    -0.0115                  293.72799323316633
0.0015                    -0.0105                  293.7120854401482
0.0015                    -0.0095                  293.6884974931366
0.0015                    -0.0085                  293.67737738649606
0.0015                    -0.0075                  293.6492913285837
0.0015                    -0.0065                  293.63648280776795
0.0015                    -0.0055                  293.60115457287856
0.0015                    -0.0045                  293.5935401142438
0.0015                    -0.0035                  293.5807005151346
0.0015                    -0.0025                  293.56332892582066
0.0015                    -0.0015                  293.5553322078194
0.0015                    -5.0E-4                  293.56164892353775
0.0015                    5.0E-4                   293.5631857860801
0.0015                    0.0015                   293.5676860798511
0.0015                    0.0025                   293.5828107348449
0.0015                    0.0035                   293.5945239716247
0.0015                    0.0045                   293.61963927991064
0.0015                    0.0055                   293.6454622483553
0.0015                    0.0065                   293.66635825296424
0.0015                    0.0075                   293.68263043063166
0.0015                    0.0085                   293.6912850796107
0.0015                    0.0095                   293.6909944435003
0.0015                    0.0105                   293.6740521896158
0.0015                    0.0115                   293.6448136103461
0.0015                    0.0125                   293.5906098406075
0.0015                    0.0135                   293.5621945754374
0.0015                    0.0145                   293.7295880518561
0.0015                    0.0155                   294.24633997187
0.0015                    0.0165                   294.45172464652796
0.0015                    0.0175                   294.4564178374449
0.0015                    0.0185                   294.46225502139976
0.0015                    0.0195                   294.4692084402971
0.0015                    0.0205                   294.47658794116813
0.0015                    0.0215                   294.4837746939056
0.0015                    0.0225                   294.49084391391904
0.0015                    0.0235                   294.4974697135958
0.0015                    0.0245                   294.5035240019971
0.0015                    0.0255                   294.509482046195
0.0015                    0.0265                   294.5142848918632
0.0015                    0.0275                   294.51820886072437
0.0015                    0.0285                   294.5220482263157
0.0015                    0.0295                   294.5238443543237
0.0015                    0.0305                   294.5255129712035
0.0015                    0.0315                   294.5267544221523
0.0025                    -0.0315                  293.5920620265767
0.0025                    -0.0305                  293.5909155585479
0.0025                    -0.0295                  293.5879979293036
0.0025                    -0.0285                  293.5836629516431
0.0025                    -0.0275                  293.57868738515356
0.0025                    -0.0265                  293.5739908763382
0.0025                    -0.0255                  293.3382634039131
0.0025                    -0.0245                  293.1677044553562
0.0025                    -0.0235                  293.15278218972236
0.0025                    -0.0225                  293.1516842548084
0.0025                    -0.0215                  293.15195959045985
0.0025                    -0.0205                  293.15232442974445
0.0025                    -0.0195                  293.15255649276247
0.0025                    -0.0185                  293.152601675461
0.0025                    -0.0175                  293.152323056637
0.0025                    -0.0165                  293.1587375025584
0.0025                    -0.0155                  293.33084214501656
0.0025                    -0.0145                  293.62100378985895
0.0025                    -0.0135                  293.67703108688863
0.0025                    -0.0125                  293.66896901741933
0.0025                    -0.0115                  293.6533817100503
0.0025                    -0.0105                  293.63703177952885
0.0025                    -0.0095                  293.6173388072215
0.0025                    -0.0085                  293.5984737025156
0.0025                    -0.0075                  293.57420232280526
0.0025                    -0.0065                  293.55707690180463
0.0025                    -0.0055                  293.5372227707633
0.0025                    -0.0045                  293.51806434714
0.0025                    -0.0035                  293.4947976644547
0.0025                    -0.0025                  293.4834819961609
0.0025                    -0.0015                  293.4637213085655
0.0025                    -5.0E-4                  293.4438065736975
0.0025                    5.0E-4                   293.44151955430834
0.0025                    0.0015                   293.43205878650247
0.0025                    0.0025                   293.4231124616351
0.0025                    0.0035                   293.4291578841371
0.0025                    0.0045                   293.42990115081216
0.0025                    0.0055                   293.43992771532976
0.0025                    0.0065                   293.4501903173868
0.0025                    0.0075                   293.46664869958073
0.0025                    0.0085                   293.4832414326485
0.0025                    0.0095                   293.496330716179
0.0025                    0.0105                   293.51596371098697
0.0025                    0.0115                   293.53134547299294
0.0025                    0.0125                   293.5282740868048
0.0025                    0.0135                   293.50176444003637
0.0025                    0.0145                   293.48931406927164
0.0025                    0.0155                   293.91337924493644
0.0025                    0.0165                   294.443961779426
0.0025                    0.0175                   294.45135144245376
0.0025                    0.0185                   294.4586165812581
0.0025                    0.0195                   294.46626680497917
0.0025                    0.0205                   294.47402052095384
0.0025                    0.0215                   294.481759913276
0.0025                    0.0225                   294.4890700211888
0.0025                    0.0235                   294.49649585587645
0.0025                    0.0245                   294.5025844760324
0.0025                    0.0255                   294.5086730961883
0.0025                    0.0265                   294.5136516593026
0.0025                    0.0275                   294.51753063583385
0.0025                    0.0285                   294.5214352301406
0.0025                    0.0295                   294.52378422020536
0.0025                    0.0305                   294.52502567115414
0.0025                    0.0315                   294.5262671221029
0.0035                    -0.0315                  293.59470039494556
0.0035                    -0.0305                  293.5937188925102
0.0035                    -0.0295                  293.5916948631372
0.0035                    -0.0285                  293.58861822981976
0.0035                    -0.0275                  293.5848609177076
0.0035                    -0.0265                  293.58013810538677
0.0035                    -0.0255                  293.36090859781666
0.0035                    -0.0245                  293.17801931113934
0.0035                    -0.0235                  293.15451196836955
0.0035                    -0.0225                  293.1529501515535
0.0035                    -0.0215                  293.15296735537663
0.0035                    -0.0205                  293.15322311075045
0.0035                    -0.0195                  293.15347799690164
0.0035                    -0.0185                  293.15357598166884
0.0035                    -0.0175                  293.15257422146067
0.0035                    -0.0165                  293.16569859117834
0.0035                    -0.0155                  293.231015285931
0.0035                    -0.0145                  293.41459353270824
0.0035                    -0.0135                  293.5431272500405
0.0035                    -0.0125                  293.57028894896547
0.0035                    -0.0115                  293.57697729457266
0.0035                    -0.0105                  293.5751404388535
0.0035                    -0.0095                  293.57099478075247
0.0035                    -0.0085                  293.5483591733107
0.0035                    -0.0075                  293.52382673029996
0.0035                    -0.0065                  293.5060204381156
0.0035                    -0.0055                  293.48245760674706
0.0035                    -0.0045                  293.46593460266513
0.0035                    -0.0035                  293.4476699100086
0.0035                    -0.0025                  293.42419539541345
0.0035                    -0.0015                  293.40643218163615
0.0035                    -5.0E-4                  293.3911215704223
0.0035                    5.0E-4                   293.3801773424492
0.0035                    0.0015                   293.36901643456827
0.0035                    0.0025                   293.3588572641668
0.0035                    0.0035                   293.3523049417229
0.0035                    0.0045                   293.34735161811096
0.0035                    0.0055                   293.34493203159434
0.0035                    0.0065                   293.34252307576094
0.0035                    0.0075                   293.34835428248414
0.0035                    0.0085                   293.3602222604667
0.0035                    0.0095                   293.36681294344106
0.0035                    0.0105                   293.3964521061188
0.0035                    0.0115                   293.42008305946155
0.0035                    0.0125                   293.45025836678354
0.0035                    0.0135                   293.46570550388566
0.0035                    0.0145                   293.4648737733209
0.0035                    0.0155                   293.4814905385441
0.0035                    0.0165                   294.0262418173355
0.0035                    0.0175                   294.4443620930357
0.0035                    0.0185                   294.45326646619657
0.0035                    0.0195                   294.4623808254852
0.0035                    0.0205                   294.47116414084496
0.0035                    0.0215                   294.4795846779815
0.0035                    0.0225                   294.4872082497063
0.0035                    0.0235                   294.49489494949273
0.0035                    0.0245                   294.50146821298034
0.0035                    0.0255                   294.50739592813414
0.0035                    0.0265                   294.51315571435816
0.0035                    0.0275                   294.51710178111307
0.0035                    0.0285                   294.5208326114024
0.0035                    0.0295                   294.5231799303237
0.0035                    0.0305                   294.5245149121042
0.0035                    0.0315                   294.52577982205355
0.0045                    -0.0315                  293.5973850885207
0.0045                    -0.0305                  293.59670858241145
0.0045                    -0.0295                  293.59525970124815
0.0045                    -0.0285                  293.5931157380431
0.0045                    -0.0275                  293.5906771449601
0.0045                    -0.0265                  293.58683447895936
0.0045                    -0.0255                  293.3616885217248
0.0045                    -0.0245                  293.1832236661768
0.0045                    -0.0235                  293.15742495034425
0.0045                    -0.0225                  293.1542998922625
0.0045                    -0.0215                  293.1540458936122
0.0045                    -0.0205                  293.15420854782644
0.0045                    -0.0195                  293.1544236762879
0.0045                    -0.0185                  293.15458055354895
0.0045                    -0.0175                  293.15338944259247
0.0045                    -0.0165                  293.16070735468156
0.0045                    -0.0155                  293.18662170302457
0.0045                    -0.0145                  293.2489468177389
0.0045                    -0.0135                  293.3400685288192
0.0045                    -0.0125                  293.3979878860888
0.0045                    -0.0115                  293.4178706806245
0.0045                    -0.0105                  293.43020051401066
0.0045                    -0.0095                  293.4282365075919
0.0045                    -0.0085                  293.4192289563616
0.0045                    -0.0075                  293.40570272869604
0.0045                    -0.0065                  293.3961521008167
0.0045                    -0.0055                  293.38372227865676
0.0045                    -0.0045                  293.36789353041445
0.0045                    -0.0035                  293.35223853423076
0.0045                    -0.0025                  293.33002630194136
0.0045                    -0.0015                  293.3244116630557
0.0045                    -5.0E-4                  293.31116273823756
0.0045                    5.0E-4                   293.3010852725455
0.0045                    0.0015                   293.2933388874873
0.0045                    0.0025                   293.28698051183216
0.0045                    0.0035                   293.28341588809315
0.0045                    0.0045                   293.2807051675884
0.0045                    0.0055                   293.28086413357346
0.0045                    0.0065                   293.28148676343017
0.0045                    0.0075                   293.2852564310387
0.0045                    0.0085                   293.28762754651024
0.0045                    0.0095                   293.30158403113904
0.0045                    0.0105                   293.3126591519291
0.0045                    0.0115                   293.33069873680927
0.0045                    0.0125                   293.3502712597957
0.0045                    0.0135                   293.36942169780787
0.0045                    0.0145                   293.3934642812144
0.0045                    0.0155                   293.4171734644236
0.0045                    0.0165                   293.7170890325263
0.0045                    0.0175                   294.43167983130604
0.0045                    0.0185                   294.44719565450305
0.0045                    0.0195                   294.4580250561592
0.0045                    0.0205                   294.4673134843365
0.0045                    0.0215                   294.47619945740644
0.0045                    0.0225                   294.48469049842896
0.0045                    0.0235                   294.49280325829056
0.0045                    0.0245                   294.5003015362605
0.0045                    0.0255                   294.5061363218018
0.0045                    0.0265                   294.5119973259086
0.0045                    0.0275                   294.5164458251948
0.0045                    0.0285                   294.52012343275317
0.0045                    0.0295                   294.5224880926808
0.0045                    0.0305                   294.5238230744613
0.0045                    0.0315                   294.52511337337563
0.0055                    -0.0315                  293.5997752783959
0.0055                    -0.0305                  293.5994969256961
0.0055                    -0.0295                  293.59838673871303
0.0055                    -0.0285                  293.59704497208304
0.0055                    -0.0275                  293.59565293455455
0.0055                    -0.0265                  293.63071215586496
0.0055                    -0.0255                  293.3483799952305
0.0055                    -0.0245                  293.1834124328368
0.0055                    -0.0235                  293.15987050937565
0.0055                    -0.0225                  293.15581378913805
0.0055                    -0.0215                  293.155181611015
0.0055                    -0.0205                  293.15523779598175
0.0055                    -0.0195                  293.1554596250779
0.0055                    -0.0185                  293.1555030359882
0.0055                    -0.0175                  293.1550590168371
0.0055                    -0.0165                  293.1577959642943
0.0055                    -0.0155                  293.17020886526547
0.0055                    -0.0145                  293.1900458940709
0.0055                    -0.0135                  293.2190920997694
0.0055                    -0.0125                  293.23449244833307
0.0055                    -0.0115                  293.2564828840452
0.0055                    -0.0105                  293.25309647537597
0.0055                    -0.0095                  293.25397200260875
0.0055                    -0.0085                  293.25860772799086
0.0055                    -0.0075                  293.25339214866347
0.0055                    -0.0065                  293.2476985443431
0.0055                    -0.0055                  293.24055328518716
0.0055                    -0.0045                  293.24489055865433
0.0055                    -0.0035                  293.24669541076
0.0055                    -0.0025                  293.2461240961052
0.0055                    -0.0015                  293.23910309665524
0.0055                    -5.0E-4                  293.23943153128636
0.0055                    5.0E-4                   293.23855736172754
0.0055                    0.0015                   293.2370888334124
0.0055                    0.0025                   293.23488398676943
0.0055                    0.0035                   293.236945547306
0.0055                    0.0045                   293.2411164901145
0.0055                    0.0055                   293.2443106345187
0.0055                    0.0065                   293.247717644418
0.0055                    0.0075                   293.2501114882844
0.0055                    0.0085                   293.25877739081653
0.0055                    0.0095                   293.26354877078023
0.0055                    0.0105                   293.2716107849363
0.0055                    0.0115                   293.27833078630283
0.0055                    0.0125                   293.29035044487307
0.0055                    0.0135                   293.3100083071522
0.0055                    0.0145                   293.3299238544434
0.0055                    0.0155                   293.3524978196673
0.0055                    0.0165                   293.3789021208692
0.0055                    0.0175                   293.8750867516505
0.0055                    0.0185                   294.4440272567257
0.0055                    0.0195                   294.4539971688381
0.0055                    0.0205                   294.46282478598124
0.0055                    0.0215                   294.4724107755382
0.0055                    0.0225                   294.4817057057699
0.0055                    0.0235                   294.4904393621596
0.0055                    0.0245                   294.49902179899414
0.0055                    0.0255                   294.50533302080686
0.0055                    0.0265                   294.5112779229163
0.0055                    0.0275                   294.515299811412
0.0055                    0.0285                   294.51931190410966
0.0055                    0.0295                   294.5217515790869
0.0055                    0.0305                   294.5229615821257
0.0055                    0.0315                   294.52417158516437
0.0065                    -0.0315                  293.6017609163104
0.0065                    -0.0305                  293.60151137337834
0.0065                    -0.0295                  293.60102086509056
0.0065                    -0.0285                  293.6002799484244
0.0065                    -0.0275                  293.64982766517676
0.0065                    -0.0265                  293.6280994118459
0.0065                    -0.0255                  293.3137826441048
0.0065                    -0.0245                  293.18594160790775
0.0065                    -0.0235                  293.16318202680145
0.0065                    -0.0225                  293.15746468127855
0.0065                    -0.0215                  293.15642451922275
0.0065                    -0.0205                  293.15635634950536
0.0065                    -0.0195                  293.1565471198579
0.0065                    -0.0185                  293.1570673328268
0.0065                    -0.0175                  293.1568785725731
0.0065                    -0.0165                  293.1576970876414
0.0065                    -0.0155                  293.1612526665807
0.0065                    -0.0145                  293.1676117368062
0.0065                    -0.0135                  293.1740125910217
0.0065                    -0.0125                  293.1809403241318
0.0065                    -0.0115                  293.18769873785504
0.0065                    -0.0105                  293.19022560832167
0.0065                    -0.0095                  293.191134808126
0.0065                    -0.0085                  293.1951802121477
0.0065                    -0.0075                  293.19576906393115
0.0065                    -0.0065                  293.1975303576018
0.0065                    -0.0055                  293.19911389030165
0.0065                    -0.0045                  293.1998055640149
0.0065                    -0.0035                  293.2056797717703
0.0065                    -0.0025                  293.20817538344346
0.0065                    -0.0015                  293.2134027939509
0.0065                    -5.0E-4                  293.2130637632318
0.0065                    5.0E-4                   293.21846862763374
0.0065                    0.0015                   293.2241675006428
0.0065                    0.0025                   293.23008567781284
0.0065                    0.0035                   293.2338559586298
0.0065                    0.0045                   293.23686048170936
0.0065                    0.0055                   293.2407293678001
0.0065                    0.0065                   293.2443146394507
0.0065                    0.0075                   293.2463273866157
0.0065                    0.0085                   293.2509471770399
0.0065                    0.0095                   293.2524349348498
0.0065                    0.0105                   293.2550521394627