% Model:              模型结构导入comsolBench.mph
% Version:            COMSOL 6.2.0.339
% Date:               May 14 2026, 09:48
% Dimension:          2
% Nodes:              4096
% Expressions:        1
% Description:        温度
% Length unit:        m
% x                       y                        T (K)
5.0E-4                    -0.0315                  296.5393249398196
5.0E-4                    -0.0305                  296.53839733555645
5.0E-4                    -0.0295                  296.53746973129336
5.0E-4                    -0.0285                  296.5365421270302
5.0E-4                    -0.0275                  296.53510530673003
5.0E-4                    -0.0265                  296.53279210665323
5.0E-4                    -0.0255                  296.5304789065765
5.0E-4                    -0.0245                  296.5280899969219
5.0E-4                    -0.0235                  296.5249866733442
5.0E-4                    -0.0225                  296.5216614288149
5.0E-4                    -0.0215                  296.51823240244283
5.0E-4                    -0.0205                  296.51449297876326
5.0E-4                    -0.0195                  296.51076742288996
5.0E-4                    -0.0185                  296.507170643169
5.0E-4                    -0.0175                  296.50405688723487
5.0E-4                    -0.0165                  296.5018461385216
5.0E-4                    -0.0155                  296.364198647448
5.0E-4                    -0.0145                  296.05645182578576
5.0E-4                    -0.0135                  295.83331707609943
5.0E-4                    -0.0125                  295.7558957723833
5.0E-4                    -0.0115                  295.6630105345084
5.0E-4                    -0.0105                  295.14687085273476
5.0E-4                    -0.0095                  293.97148936568175
5.0E-4                    -0.0085                  293.2365946795684
5.0E-4                    -0.0075                  293.15565876404355
5.0E-4                    -0.0065                  293.1545656017778
5.0E-4                    -0.0055                  293.15431736150356
5.0E-4                    -0.0045                  293.1540419439923
5.0E-4                    -0.0035                  293.15370516303386
5.0E-4                    -0.0025                  293.1535049231999
5.0E-4                    -0.0015                  293.153301095948
5.0E-4                    -5.0E-4                  293.1530649322873
5.0E-4                    5.0E-4                   293.15288212465595
5.0E-4                    0.0015                   293.1523984957864
5.0E-4                    0.0025                   293.15197514475346
5.0E-4                    0.0035                   293.15173173598237
5.0E-4                    0.0045                   293.1516147662147
5.0E-4                    0.0055                   293.1515929444702
5.0E-4                    0.0065                   293.15171024540786
5.0E-4                    0.0075                   293.1517873587244
5.0E-4                    0.0085                   294.2882832487351
5.0E-4                    0.0095                   295.4590143086798
5.0E-4                    0.0105                   295.4552456473419
5.0E-4                    0.0115                   295.5139317573897
5.0E-4                    0.0125                   295.7233813106878
5.0E-4                    0.0135                   296.06133088583306
5.0E-4                    0.0145                   296.37741247410474
5.0E-4                    0.0155                   296.48986751750544
5.0E-4                    0.0165                   296.49160425924526
5.0E-4                    0.0175                   296.49421565146747
5.0E-4                    0.0185                   296.49716404974254
5.0E-4                    0.0195                   296.5003354712703
5.0E-4                    0.0205                   296.5034687169927
5.0E-4                    0.0215                   296.50657644785883
5.0E-4                    0.0225                   296.50944578611814
5.0E-4                    0.0235                   296.51213766171395
5.0E-4                    0.0245                   296.5147430456159
5.0E-4                    0.0255                   296.5167043879905
5.0E-4                    0.0265                   296.51846749641606
5.0E-4                    0.0275                   296.52023060484163
5.0E-4                    0.0285                   296.52163355347204
5.0E-4                    0.0295                   296.5223742068928
5.0E-4                    0.0305                   296.5231148603135
5.0E-4                    0.0315                   296.52384740978334
0.0015                    -0.0315                  296.53801114666976
0.0015                    -0.0305                  296.5376126159175
0.0015                    -0.0295                  296.5366850116544
0.0015                    -0.0285                  296.53574818975653
0.0015                    -0.0275                  296.5340330523293
0.0015                    -0.0265                  296.53199226605
0.0015                    -0.0255                  296.52967906597314
0.0015                    -0.0245                  296.5270162953559
0.0015                    -0.0235                  296.5242071880755
0.0015                    -0.0225                  296.5208484045073
0.0015                    -0.0215                  296.5173536626578
0.0015                    -0.0205                  296.5137354850166
0.0015                    -0.0195                  296.50963930416003
0.0015                    -0.0185                  296.50565767113795
0.0015                    -0.0175                  296.50207307460875
0.0015                    -0.0165                  296.4989600811067
0.0015                    -0.0155                  296.0638697271276
0.0015                    -0.0145                  295.4051114214911
0.0015                    -0.0135                  295.225207824786
0.0015                    -0.0125                  295.3948383508069
0.0015                    -0.0115                  295.03130574424415
0.0015                    -0.0105                  294.05901599100866
0.0015                    -0.0095                  293.3013217253471
0.0015                    -0.0085                  293.17078748568963
0.0015                    -0.0075                  293.163129144865
0.0015                    -0.0065                  293.1626674453981
0.0015                    -0.0055                  293.1620136300215
0.0015                    -0.0045                  293.1612773540029
0.0015                    -0.0035                  293.16067169445813
0.0015                    -0.0025                  293.16028305902705
0.0015                    -0.0015                  293.1589801798925
0.0015                    -5.0E-4                  293.15930458091907
0.0015                    5.0E-4                   293.16154389179724
0.0015                    0.0015                   293.15696576332687
0.0015                    0.0025                   293.156471462384
0.0015                    0.0035                   293.15551556430324
0.0015                    0.0045                   293.1549222023172
0.0015                    0.0055                   293.15476519017494
0.0015                    0.0065                   293.15479768521595
0.0015                    0.0075                   293.1534313028463
0.0015                    0.0085                   293.2804911984909
0.0015                    0.0095                   294.87810944907216
0.0015                    0.0105                   294.9436077572701
0.0015                    0.0115                   294.8163354211127
0.0015                    0.0125                   294.9178346861627
0.0015                    0.0135                   295.370819665304
0.0015                    0.0145                   296.14850998433303
0.0015                    0.0155                   296.4872878614856
0.0015                    0.0165                   296.4900306906152
0.0015                    0.0175                   296.4928628899691
0.0015                    0.0185                   296.4960376199191
0.0015                    0.0195                   296.4994362997548
0.0015                    0.0205                   296.5026896390447
0.0015                    0.0215                   296.50572683096493
0.0015                    0.0225                   296.50860408349035
0.0015                    0.0235                   296.51136158141816
0.0015                    0.0245                   296.51365446957135
0.0015                    0.0255                   296.5158392554315
0.0015                    0.0265                   296.5176593748497
0.0015                    0.0275                   296.5193270750447
0.0015                    0.0285                   296.520622989616
0.0015                    0.0295                   296.52159001119605
0.0015                    0.0305                   296.522306352764
0.0015                    0.0315                   296.52232282248957
0.0025                    -0.0315                  296.5366545665642
0.0025                    -0.0305                  296.5363843966791
0.0025                    -0.0295                  296.5359002920153
0.0025                    -0.0285                  296.5346223873968
0.0025                    -0.0275                  296.5329072499696
0.0025                    -0.0265                  296.53119211254227
0.0025                    -0.0255                  296.5287112565416
0.0025                    -0.0245                  296.52594259378986
0.0025                    -0.0235                  296.5229716944929
0.0025                    -0.0225                  296.51938720999453
0.0025                    -0.0215                  296.5155140543228
0.0025                    -0.0205                  296.51150974834803
0.0025                    -0.0195                  296.5074128387555
0.0025                    -0.0185                  296.50313211304393
0.0025                    -0.0175                  296.4987204838179
0.0025                    -0.0165                  296.4940801120566
0.0025                    -0.0155                  295.66610213967215
0.0025                    -0.0145                  294.7318772903215
0.0025                    -0.0135                  294.67531998274603
0.0025                    -0.0125                  294.3230142515478
0.0025                    -0.0115                  293.76612297984553
0.0025                    -0.0105                  293.29323783457323
0.0025                    -0.0095                  293.1863578530421
0.0025                    -0.0085                  293.17275368459013
0.0025                    -0.0075                  293.17101026669206
0.0025                    -0.0065                  293.16988574335693
0.0025                    -0.0055                  293.16902196430624
0.0025                    -0.0045                  293.16845506063135
0.0025                    -0.0035                  293.16838668246817
0.0025                    -0.0025                  293.16976061327387
0.0025                    -0.0015                  293.17782199785887
0.0025                    -5.0E-4                  293.18171328228283
0.0025                    5.0E-4                   293.20340716878167
0.0025                    0.0015                   293.1657696547942
0.0025                    0.0025                   293.1594140374735
0.0025                    0.0035                   293.16034356522397
0.0025                    0.0045                   293.1590162134482
0.0025                    0.0055                   293.1581926344802
0.0025                    0.0065                   293.15803730077613
0.0025                    0.0075                   293.15784006035085
0.0025                    0.0085                   293.1834336015434
0.0025                    0.0095                   293.65482665836623
0.0025                    0.0105                   294.3491753544857
0.0025                    0.0115                   294.4729829496294
0.0025                    0.0125                   294.3612689247204
0.0025                    0.0135                   294.6092751883832
0.0025                    0.0145                   295.6228905702042
0.0025                    0.0155                   296.4831614196706
0.0025                    0.0165                   296.48694911938054
0.0025                    0.0175                   296.4904165059347
0.0025                    0.0185                   296.4938248454797
0.0025                    0.0195                   296.4972207676217
0.0025                    0.0205                   296.5006029701267
0.0025                    0.0215                   296.50385814275467
0.0025                    0.0225                   296.50703504891067
0.0025                    0.0235                   296.5100302265161
0.0025                    0.0245                   296.51249070160327
0.0025                    0.0255                   296.51475067938696
0.0025                    0.0265                   296.5168512532833
0.0025                    0.0275                   296.51825724229434
0.0025                    0.0285                   296.51955315686564
0.0025                    0.0295                   296.52076529574464
0.0025                    0.0305                   296.5207817654702
0.0025                    0.0315                   296.5207982351958
0.0035                    -0.0315                  296.53529798645866
0.0035                    -0.0305                  296.5350278165736
0.0035                    -0.0295                  296.5343879238628
0.0035                    -0.0285                  296.5329815455918
0.0035                    -0.0275                  296.53120633453483
0.0035                    -0.0265                  296.5294311234779
0.0035                    -0.0255                  296.52678873687887
0.0035                    -0.0245                  296.52367116761025
0.0035                    -0.0235                  296.5205448790985
0.0035                    -0.0225                  296.5170163023942
0.0035                    -0.0215                  296.513235933943
0.0035                    -0.0205                  296.5090166817325
0.0035                    -0.0195                  296.50435423266856
0.0035                    -0.0185                  296.49966604658033
0.0035                    -0.0175                  296.4944234591647
0.0035                    -0.0165                  296.48752065264836
0.0035                    -0.0155                  295.24696462015214
0.0035                    -0.0145                  294.1994950423762
0.0035                    -0.0135                  293.9919730094264
0.0035                    -0.0125                  293.57058119846744
0.0035                    -0.0115                  293.3961897601494
0.0035                    -0.0105                  293.1918941372248
0.0035                    -0.0095                  293.18235526740347
0.0035                    -0.0085                  293.17962049322483
0.0035                    -0.0075                  293.17756049902755
0.0035                    -0.0065                  293.1763445516715
0.0035                    -0.0055                  293.1757651385244
0.0035                    -0.0045                  293.17919030986906
0.0035                    -0.0035                  293.20170071612756
0.0035                    -0.0025                  293.3274618045309
0.0035                    -0.0015                  293.62599797446086
0.0035                    -5.0E-4                  293.7181409411872
0.0035                    5.0E-4                   293.69231869244686
0.0035                    0.0015                   293.60915383683283
0.0035                    0.0025                   293.2176781209066
0.0035                    0.0035                   293.16477080295357
0.0035                    0.0045                   293.1635826257834
0.0035                    0.0055                   293.1624575032596
0.0035                    0.0065                   293.1616109525052
0.0035                    0.0075                   293.16112692773385
0.0035                    0.0085                   293.16827427582376
0.0035                    0.0095                   293.26700288376986
0.0035                    0.0105                   293.6891845565903
0.0035                    0.0115                   294.0690044669959
0.0035                    0.0125                   294.25809221905047
0.0035                    0.0135                   294.21844663415277
0.0035                    0.0145                   294.5809619432744
0.0035                    0.0155                   295.7282167215912
0.0035                    0.0165                   296.4832296771152
0.0035                    0.0175                   296.4867267176906
0.0035                    0.0185                   296.4904436995336
0.0035                    0.0195                   296.49416532512316
0.0035                    0.0205                   296.49808425554215
0.0035                    0.0215                   296.5014858818997
0.0035                    0.0225                   296.5045703823652
0.0035                    0.0235                   296.5075097374333
0.0035                    0.0245                   296.5100334243232
0.0035                    0.0255                   296.5124938994103
0.0035                    0.0265                   296.5145037142106
0.0035                    0.0275                   296.51588839706193
0.0035                    0.0285                   296.5169823786057
0.0035                    0.0295                   296.518017010488
0.0035                    0.0305                   296.51888148301214
0.0035                    0.0315                   296.5192736479019
0.0045                    -0.0315                  296.53314312154333
0.0045                    -0.0305                  296.53227470593987
0.0045                    -0.0295                  296.5314062903364
0.0045                    -0.0285                  296.53025422767473
0.0045                    -0.0275                  296.5286282882447
0.0045                    -0.0265                  296.52649552219543
0.0045                    -0.0255                  296.52396037555246
0.0045                    -0.0245                  296.5212354873163
0.0045                    -0.0235                  296.51800968757675
0.0045                    -0.0225                  296.5142286282928
0.0045                    -0.0215                  296.51002167648755
0.0045                    -0.0205                  296.50556699275717
0.0045                    -0.0195                  296.5006960335865
0.0045                    -0.0185                  296.49534918779386
0.0045                    -0.0175                  296.4897268776192
0.0045                    -0.0165                  295.70479163610395
0.0045                    -0.0155                  294.2660296670883
0.0045                    -0.0145                  293.7730744426357
0.0045                    -0.0135                  293.5140872474366
0.0045                    -0.0125                  293.3386994271479
0.0045                    -0.0115                  293.2002922812909
0.0045                    -0.0105                  293.1953409311185
0.0045                    -0.0095                  293.18837460492904
0.0045                    -0.0085                  293.18562224267157
0.0045                    -0.0075                  293.185709371623
0.0045                    -0.0065                  293.1905693289479
0.0045                    -0.0055                  293.20863538887187
0.0045                    -0.0045                  293.26695219717703
0.0045                    -0.0035                  293.5181145273666
0.0045                    -0.0025                  294.03152968155524
0.0045                    -0.0015                  294.35659454757604
0.0045                    -5.0E-4                  294.3496733117935
0.0045                    5.0E-4                   294.3439471548486
0.0045                    0.0015                   294.33756646789243
0.0045                    0.0025                   293.8202171619933
0.0045                    0.0035                   293.25152270209344
0.0045                    0.0045                   293.17246694130324
0.0045                    0.0055                   293.1687653694474
0.0045                    0.0065                   293.1662478069282
0.0045                    0.0075                   293.164696204206
0.0045                    0.0085                   293.1655742888683
0.0045                    0.0095                   293.18550714551316
0.0045                    0.0105                   293.4115267187525
0.0045                    0.0115                   293.7033757290645
0.0045                    0.0125                   294.0103756729577
0.0045                    0.0135                   294.10227178590924
0.0045                    0.0145                   294.11404084079606
0.0045                    0.0155                   294.5030736413616
0.0045                    0.0165                   295.96461066194115
0.0045                    0.0175                   296.48142497571126
0.0045                    0.0185                   296.4859655557162
0.0045                    0.0195                   296.49050314323966
0.0045                    0.0205                   296.49449457685955
0.0045                    0.0215                   296.49834627107236
0.0045                    0.0225                   296.50168175337257
0.0045                    0.0235                   296.5049039580136
0.0045                    0.0245                   296.507375303373
0.0045                    0.0255                   296.5093961004377
0.0045                    0.0265                   296.511300666124
0.0045                    0.0275                   296.51293702326666
0.0045                    0.0285                   296.5141994469616
0.0045                    0.0295                   296.5151902967904
0.0045                    0.0305                   296.5160547693147
0.0045                    0.0315                   296.516823399181
0.0055                    -0.0315                  296.5295209681303
0.0055                    -0.0305                  296.5292930724135
0.0055                    -0.0295                  296.5284124058642
0.0055                    -0.0285                  296.5272320995921
0.0055                    -0.0275                  296.5257077729407
0.0055                    -0.0265                  296.52354571992265
0.0055                    -0.0255                  296.5210421409336
0.0055                    -0.0245                  296.51800949200555
0.0055                    -0.0235                  296.51454223258696
0.0055                    -0.0225                  296.51059099669413
0.0055                    -0.0215                  296.50630967501877
0.0055                    -0.0205                  296.50157342963814
0.0055                    -0.0195                  296.49635492817663
0.0055                    -0.0185                  296.4905432583455
0.0055                    -0.0175                  296.48295714776543
0.0055                    -0.0165                  294.7902056884689
0.0055                    -0.0155                  293.7079024140827
0.0055                    -0.0145                  293.4466903790476
0.0055                    -0.0135                  293.29582482688215
0.0055                    -0.0125                  293.2152667985439
0.0055                    -0.0115                  293.19441337042235
0.0055                    -0.0105                  293.1948561704315
0.0055                    -0.0095                  293.1950177697595
0.0055                    -0.0085                  293.1999070021119
0.0055                    -0.0075                  293.21381503549446
0.0055                    -0.0065                  293.26617022662526
0.0055                    -0.0055                  293.43708632196706
0.0055                    -0.0045                  293.8292038666847
0.0055                    -0.0035                  294.1947807258451
0.0055                    -0.0025                  294.39851509535197
0.0055                    -0.0015                  294.3848038178025
0.0055                    -5.0E-4                  294.3754412355769
0.0055                    5.0E-4                   294.3700807649422
0.0055                    0.0015                   294.36904170127804
0.0055                    0.0025                   294.3741616673455
0.0055                    0.0035                   293.8082673002182
0.0055                    0.0045                   293.2679242100622
0.0055                    0.0055                   293.1935227418461
0.0055                    0.0065                   293.1774828599512
0.0055                    0.0075                   293.17094910880996
0.0055                    0.0085                   293.16682861222085
0.0055                    0.0095                   293.1722255420359
0.0055                    0.0105                   293.22573830166436
0.0055                    0.0115                   293.4071810580079
0.0055                    0.0125                   293.63440419967594
0.0055                    0.0135                   293.9152017420308
0.0055                    0.0145                   294.04573543513874
0.0055                    0.0155                   294.0307611831012
0.0055                    0.0165                   295.18050457544757
0.0055                    0.0175                   296.47369257725586
0.0055                    0.0185                   296.4806896301865
0.0055                    0.0195                   296.4859164314459
0.0055                    0.0205                   296.49055860418474
0.0055                    0.0215                   296.4943806627767
0.0055                    0.0225                   296.49783920996197
0.0055                    0.0235                   296.50093171587105
0.0055                    0.0245                   296.5036790283492
0.0055                    0.0255                   296.50616754310363
0.0055                    0.0265                   296.5080976180375
0.0055                    0.0275                   296.50973397518004
0.0055                    0.0285                   296.5113703323227
0.0055                    0.0295                   296.51226680972394
0.0055                    0.0305                   296.51235641543065
0.0055                    0.0315                   296.5124460211373
0.0065                    -0.0315                  296.5257514526593
0.0065                    -0.0305                  296.52566178303016
0.0065                    -0.0295                  296.5252801165335
0.0065                    -0.0285                  296.5234654169556
0.0065                    -0.0275                  296.5216507173778
0.0065                    -0.0265                  296.51958927887193
0.0065                    -0.0255                  296.5170852589964
0.0065                    -0.0245                  296.51410725636
0.0065                    -0.0235                  296.51060176978876
0.0065                    -0.0225                  296.50659912927154
0.0065                    -0.0215                  296.5019636400591
0.0065                    -0.0205                  296.4968809081293
0.0065                    -0.0195                  296.4915165069025
0.0065                    -0.0185                  296.4860245600891
0.0065                    -0.0175                  295.3878171373456
0.0065                    -0.0165                  293.80523036504064
0.0065                    -0.0155                  293.379049097999
0.0065                    -0.0145                  293.27332180035353
0.0065                    -0.0135                  293.2233599540468
0.0065                    -0.0125                  293.2084321469407
0.0065                    -0.0115                  293.2034836947311
0.0065                    -0.0105                  293.2067306776971
0.0065                    -0.0095                  293.21799908335856
0.0065                    -0.0085                  293.2528931906921
0.0065                    -0.0075                  293.3440266520528
0.0065                    -0.0065                  293.59124849822393
0.0065                    -0.0055                  294.0805249558638
0.0065                    -0.0045                  294.4392080148426
0.0065                    -0.0035                  294.4290624945507
0.0065                    -0.0025                  294.4162454642802
0.0065                    -0.0015                  294.40519556162513
0.0065                    -5.0E-4                  294.39685252866667
0.0065                    5.0E-4                   294.39106653623
0.0065                    0.0015                   294.3887265601127
0.0065                    0.0025                   294.3886168106521
0.0065                    0.0035                   294.38907490843917
0.0065                    0.0045                   293.84851946450476
0.0065                    0.0055                   293.4659565828515
0.0065                    0.0065                   293.27746594022403
0.0065                    0.0075                   293.18247510920014
0.0065                    0.0085                   293.17453080032885
0.0065                    0.0095                   293.172913029591
0.0065                    0.0105                   293.1773951588343