% Model:              模型结构导入comsolBench.mph
% Version:            COMSOL 6.2.0.339
% Date:               May 14 2026, 09:42
% Dimension:          2
% Nodes:              4096
% Expressions:        1
% Description:        温度
% Length unit:        m
% x                       y                        T (K)
5.0E-4                    -0.0315                  296.179332067464
5.0E-4                    -0.0305                  296.17830650146203
5.0E-4                    -0.0295                  296.1772809354601
5.0E-4                    -0.0285                  296.1756776604096
5.0E-4                    -0.0275                  296.1729895806059
5.0E-4                    -0.0265                  296.1703015008021
5.0E-4                    -0.0255                  296.166988153781
5.0E-4                    -0.0245                  296.16337599240524
5.0E-4                    -0.0235                  296.15961949346865
5.0E-4                    -0.0225                  296.15593848334186
5.0E-4                    -0.0215                  296.15264601163307
5.0E-4                    -0.0205                  296.1500306720984
5.0E-4                    -0.0195                  296.1485833763841
5.0E-4                    -0.0185                  296.12561249493046
5.0E-4                    -0.0175                  295.94245372881954
5.0E-4                    -0.0165                  295.5877551571332
5.0E-4                    -0.0155                  295.0849153883263
5.0E-4                    -0.0145                  294.55815036668514
5.0E-4                    -0.0135                  294.19683207067794
5.0E-4                    -0.0125                  294.0055541507951
5.0E-4                    -0.0115                  293.90425046426117
5.0E-4                    -0.0105                  293.8438219853992
5.0E-4                    -0.0095                  293.80009783869696
5.0E-4                    -0.0085                  293.7654001330253
5.0E-4                    -0.0075                  293.73935358971966
5.0E-4                    -0.0065                  293.71715461102997
5.0E-4                    -0.0055                  293.69800951562695
5.0E-4                    -0.0045                  293.6834207986507
5.0E-4                    -0.0035                  293.66974016935865
5.0E-4                    -0.0025                  293.65804248129893
5.0E-4                    -0.0015                  293.65006497371917
5.0E-4                    -5.0E-4                  293.6422677759381
5.0E-4                    5.0E-4                   293.63885677256076
5.0E-4                    0.0015                   293.6426965815272
5.0E-4                    0.0025                   293.6456390906634
5.0E-4                    0.0035                   293.6462240539037
5.0E-4                    0.0045                   293.65150560412667
5.0E-4                    0.0055                   293.65921003283324
5.0E-4                    0.0065                   293.6654713136288
5.0E-4                    0.0075                   293.672279370432
5.0E-4                    0.0085                   293.68020893348637
5.0E-4                    0.0095                   293.6896882564833
5.0E-4                    0.0105                   293.700751677206
5.0E-4                    0.0115                   293.7124858029373
5.0E-4                    0.0125                   293.72602012114163
5.0E-4                    0.0135                   293.74332798921563
5.0E-4                    0.0145                   293.7636481296096
5.0E-4                    0.0155                   293.78765670724175
5.0E-4                    0.0165                   293.8160789423371
5.0E-4                    0.0175                   293.84916751016937
5.0E-4                    0.0185                   293.8803704524593
5.0E-4                    0.0195                   293.77990319257964
5.0E-4                    0.0205                   293.16661003892216
5.0E-4                    0.0215                   293.1512164642016
5.0E-4                    0.0225                   293.150939812792
5.0E-4                    0.0235                   293.15089972250195
5.0E-4                    0.0245                   293.1509043499579
5.0E-4                    0.0255                   293.151013707626
5.0E-4                    0.0265                   293.1512879294979
5.0E-4                    0.0275                   293.19543191532637
5.0E-4                    0.0285                   293.8886644400426
5.0E-4                    0.0295                   293.97185599830595
5.0E-4                    0.0305                   293.98332354788465
5.0E-4                    0.0315                   293.8763849030555
0.0015                    -0.0315                  296.1786453524743
0.0015                    -0.0305                  296.1780861448959
0.0015                    -0.0295                  296.1770403580157
0.0015                    -0.0285                  296.17495674422514
0.0015                    -0.0275                  296.1725526618884
0.0015                    -0.0265                  296.1695866328082
0.0015                    -0.0255                  296.1662453301462
0.0015                    -0.0245                  296.16261414017475
0.0015                    -0.0235                  296.15877694807284
0.0015                    -0.0225                  296.15469091455634
0.0015                    -0.0215                  296.150974156494
0.0015                    -0.0205                  296.1479458701775
0.0015                    -0.0195                  296.14586560844384
0.0015                    -0.0185                  295.9479830483762
0.0015                    -0.0175                  295.55933761333506
0.0015                    -0.0165                  295.1129926678419
0.0015                    -0.0155                  294.56895012014695
0.0015                    -0.0145                  294.14356070470626
0.0015                    -0.0135                  293.9124364893022
0.0015                    -0.0125                  293.78071793187746
0.0015                    -0.0115                  293.70634858331255
0.0015                    -0.0105                  293.64781571806145
0.0015                    -0.0095                  293.60879034921027
0.0015                    -0.0085                  293.5830664181401
0.0015                    -0.0075                  293.55533257546483
0.0015                    -0.0065                  293.5368433959022
0.0015                    -0.0055                  293.52633823077775
0.0015                    -0.0045                  293.5109917760069
0.0015                    -0.0035                  293.50470213342857
0.0015                    -0.0025                  293.50135968777204
0.0015                    -0.0015                  293.49536024738455
0.0015                    -5.0E-4                  293.4978447527982
0.0015                    5.0E-4                   293.50111088561283
0.0015                    0.0015                   293.50801046555057
0.0015                    0.0025                   293.51640806886587
0.0015                    0.0035                   293.5252187885748
0.0015                    0.0045                   293.5361182551079
0.0015                    0.0055                   293.5457862931405
0.0015                    0.0065                   293.5562282763389
0.0015                    0.0075                   293.5676131779768
0.0015                    0.0085                   293.58464412485694
0.0015                    0.0095                   293.59926618389744
0.0015                    0.0105                   293.61158461934224
0.0015                    0.0115                   293.62879009823996
0.0015                    0.0125                   293.64800388648655
0.0015                    0.0135                   293.66386513682437
0.0015                    0.0145                   293.6854487804808
0.0015                    0.0155                   293.7093591408342
0.0015                    0.0165                   293.731205801013
0.0015                    0.0175                   293.7610512343695
0.0015                    0.0185                   293.7840180837456
0.0015                    0.0195                   293.65755187290677
0.0015                    0.0205                   293.1732449132528
0.0015                    0.0215                   293.15376527823014
0.0015                    0.0225                   293.15281083056294
0.0015                    0.0235                   293.1525825310974
0.0015                    0.0245                   293.1526389109255
0.0015                    0.0255                   293.1530533613441
0.0015                    0.0265                   293.15233239489106
0.0015                    0.0275                   293.2873501743437
0.0015                    0.0285                   293.78942650986426
0.0015                    0.0295                   293.78817466550856
0.0015                    0.0305                   293.85882403317703
0.0015                    0.0315                   293.87405186598704
0.0025                    -0.0315                  296.17794921436047
0.0025                    -0.0305                  296.1773732216297
0.0025                    -0.0295                  296.17618065772035
0.0025                    -0.0285                  296.1741611571451
0.0025                    -0.0275                  296.17210716732757
0.0025                    -0.0265                  296.1685396988088
0.0025                    -0.0255                  296.16496442387995
0.0025                    -0.0245                  296.1606525784082
0.0025                    -0.0235                  296.15643467561245
0.0025                    -0.0225                  296.1520471968427
0.0025                    -0.0215                  296.14773992569724
0.0025                    -0.0205                  296.1440418739914
0.0025                    -0.0195                  296.1408425456127
0.0025                    -0.0185                  295.63274690741355
0.0025                    -0.0175                  294.8887889949354
0.0025                    -0.0165                  294.3553485569878
0.0025                    -0.0155                  293.99111229199525
0.0025                    -0.0145                  293.7652314333561
0.0025                    -0.0135                  293.6479103516432
0.0025                    -0.0125                  293.5788939573523
0.0025                    -0.0115                  293.53080462152917
0.0025                    -0.0105                  293.49139759997456
0.0025                    -0.0095                  293.46409212096324
0.0025                    -0.0085                  293.4488298557968
0.0025                    -0.0075                  293.431623155402
0.0025                    -0.0065                  293.42060452431
0.0025                    -0.0055                  293.4134869978173
0.0025                    -0.0045                  293.40631840332935
0.0025                    -0.0035                  293.40258162994445
0.0025                    -0.0025                  293.4014712737572
0.0025                    -0.0015                  293.4013565054517
0.0025                    -5.0E-4                  293.40341056982436
0.0025                    5.0E-4                   293.40747187528075
0.0025                    0.0015                   293.41669141266965
0.0025                    0.0025                   293.42766124995444
0.0025                    0.0035                   293.4393980382905
0.0025                    0.0045                   293.4576707941225
0.0025                    0.0055                   293.47570699597406
0.0025                    0.0065                   293.4905278324268
0.0025                    0.0075                   293.5153880155284
0.0025                    0.0085                   293.53329682352
0.0025                    0.0095                   293.55043246085495
0.0025                    0.0105                   293.5778213965584
0.0025                    0.0115                   293.6044589068517
0.0025                    0.0125                   293.6290188677443
0.0025                    0.0135                   293.6587654567187
0.0025                    0.0145                   293.6722584797816
0.0025                    0.0155                   293.68821421527394
0.0025                    0.0165                   293.70633055310725
0.0025                    0.0175                   293.7277018596909
0.0025                    0.0185                   293.73576025561954
0.0025                    0.0195                   293.5304245852188
0.0025                    0.0205                   293.19949817574906
0.0025                    0.0215                   293.15536917770726
0.0025                    0.0225                   293.15469712140316
0.0025                    0.0235                   293.1543831044958
0.0025                    0.0245                   293.1545130743174
0.0025                    0.0255                   293.15491015961584
0.0025                    0.0265                   293.15643425355773
0.0025                    0.0275                   293.3139081865685
0.0025                    0.0285                   293.6458831363188
0.0025                    0.0295                   293.704011903888
0.0025                    0.0305                   293.75708310522515
0.0025                    0.0315                   293.8700052906563
0.0035                    -0.0315                  296.1768071455043
0.0035                    -0.0305                  296.17615721025345
0.0035                    -0.0295                  296.1748122495047
0.0035                    -0.0285                  296.1729191032077
0.0035                    -0.0275                  296.1703541093112
0.0035                    -0.0265                  296.16682093202667
0.0035                    -0.0255                  296.1630964187447
0.0035                    -0.0245                  296.1585781796117
0.0035                    -0.0235                  296.153242281305
0.0035                    -0.0225                  296.1480822279748
0.0035                    -0.0215                  296.1428317650001
0.0035                    -0.0205                  296.1383229986847
0.0035                    -0.0195                  296.13420760183124
0.0035                    -0.0185                  295.2358720313448
0.0035                    -0.0175                  294.2478082483184
0.0035                    -0.0165                  293.86271299743987
0.0035                    -0.0155                  293.65635707888
0.0035                    -0.0145                  293.5587981240034
0.0035                    -0.0135                  293.5114302858284
0.0035                    -0.0125                  293.45723092953006
0.0035                    -0.0115                  293.4373166978015
0.0035                    -0.0105                  293.4178153099191
0.0035                    -0.0095                  293.4006057075
0.0035                    -0.0085                  293.38804591545704
0.0035                    -0.0075                  293.37694587003625
0.0035                    -0.0065                  293.3688701544837
0.0035                    -0.0055                  293.36506760677537
0.0035                    -0.0045                  293.3581163437617
0.0035                    -0.0035                  293.35447616898637
0.0035                    -0.0025                  293.3527772534337
0.0035                    -0.0015                  293.348862214914
0.0035                    -5.0E-4                  293.3496382772583
0.0035                    5.0E-4                   293.3522098333177
0.0035                    0.0015                   293.3506072788121
0.0035                    0.0025                   293.36008076490947
0.0035                    0.0035                   293.3677157759223
0.0035                    0.0045                   293.37655510692986
0.0035                    0.0055                   293.38973375306045
0.0035                    0.0065                   293.40876689849307
0.0035                    0.0075                   293.42943809721726
0.0035                    0.0085                   293.4533964928857
0.0035                    0.0095                   293.47517695997965
0.0035                    0.0105                   293.503785985653
0.0035                    0.0115                   293.5319725144807
0.0035                    0.0125                   293.5491459354553
0.0035                    0.0135                   293.5991084514094
0.0035                    0.0145                   293.6504935684188
0.0035                    0.0155                   293.6628681053312
0.0035                    0.0165                   293.69178153322855
0.0035                    0.0175                   293.66354732033943
0.0035                    0.0185                   293.5942867595318
0.0035                    0.0195                   293.3671408610008
0.0035                    0.0205                   293.1854657821874
0.0035                    0.0215                   293.1580960865154
0.0035                    0.0225                   293.15658906502017
0.0035                    0.0235                   293.15620018554927
0.0035                    0.0245                   293.1562637326245
0.0035                    0.0255                   293.1568654916044
0.0035                    0.0265                   293.1603299715189
0.0035                    0.0275                   293.2650726404735
0.0035                    0.0285                   293.62246368332046
0.0035                    0.0295                   293.64114340829974
0.0035                    0.0305                   293.68401021124464
0.0035                    0.0315                   293.8648171000968
0.0045                    -0.0315                  296.1752251424118
0.0045                    -0.0305                  296.17472046133946
0.0045                    -0.0295                  296.1732588043259
0.0045                    -0.0285                  296.1712484792003
0.0045                    -0.0275                  296.1685733834326
0.0045                    -0.0265                  296.1650197557377
0.0045                    -0.0255                  296.1605062790624
0.0045                    -0.0245                  296.15528961587273
0.0045                    -0.0235                  296.1499191697726
0.0045                    -0.0225                  296.1429707383692
0.0045                    -0.0215                  296.13633554752806
0.0045                    -0.0205                  296.1303361292873
0.0045                    -0.0195                  295.53008549211285
0.0045                    -0.0185                  294.38174346876264
0.0045                    -0.0175                  293.7859387675287
0.0045                    -0.0165                  293.61078875706323
0.0045                    -0.0155                  293.50828300335246
0.0045                    -0.0145                  293.4684945393899
0.0045                    -0.0135                  293.4262232124056
0.0045                    -0.0125                  293.4115895579442
0.0045                    -0.0115                  293.3928165749207
0.0045                    -0.0105                  293.3806533004219
0.0045                    -0.0095                  293.3713243414219
0.0045                    -0.0085                  293.36343222927314
0.0045                    -0.0075                  293.35747881397793
0.0045                    -0.0065                  293.3523835347303
0.0045                    -0.0055                  293.3452060577591
0.0045                    -0.0045                  293.34060266173867
0.0045                    -0.0035                  293.3363291014996
0.0045                    -0.0025                  293.3304716709704
0.0045                    -0.0015                  293.3275128139562
0.0045                    -5.0E-4                  293.32315093766204
0.0045                    5.0E-4                   293.31984309851
0.0045                    0.0015                   293.3195016260863
0.0045                    0.0025                   293.31664991827324
0.0045                    0.0035                   293.3143214043927
0.0045                    0.0045                   293.3125634452002
0.0045                    0.0055                   293.32486082335765
0.0045                    0.0065                   293.32688216131544
0.0045                    0.0075                   293.34361309304074
0.0045                    0.0085                   293.35708988645393
0.0045                    0.0095                   293.36956953873255
0.0045                    0.0105                   293.38877114489986
0.0045                    0.0115                   293.40854310718566
0.0045                    0.0125                   293.4241438196571
0.0045                    0.0135                   293.43620261331074
0.0045                    0.0145                   293.46067269491806
0.0045                    0.0155                   293.4756329508217
0.0045                    0.0165                   293.4768932536531
0.0045                    0.0175                   293.45755819406594
0.0045                    0.0185                   293.35768525601713
0.0045                    0.0195                   293.25673196339983
0.0045                    0.0205                   293.1723789927163
0.0045                    0.0215                   293.1604328573088
0.0045                    0.0225                   293.1586239595037
0.0045                    0.0235                   293.15816647313244
0.0045                    0.0245                   293.15831784768415
0.0045                    0.0255                   293.1595128365954
0.0045                    0.0265                   293.16642122007494
0.0045                    0.0275                   293.2703757159808
0.0045                    0.0285                   293.5507452098381
0.0045                    0.0295                   293.5996928123694
0.0045                    0.0305                   293.6353638072276
0.0045                    0.0315                   293.85900443478397
0.0055                    -0.0315                  296.17336669596284
0.0055                    -0.0305                  296.17270860521876
0.0055                    -0.0295                  296.17133043588484
0.0055                    -0.0285                  296.1693286004434
0.0055                    -0.0275                  296.1664345881607
0.0055                    -0.0265                  296.16286958392425
0.0055                    -0.0255                  296.1580379598791
0.0055                    -0.0245                  296.15244150749476
0.0055                    -0.0235                  296.1453914968887
0.0055                    -0.0225                  296.13771697499175
0.0055                    -0.0215                  296.1280467208571
0.0055                    -0.0205                  296.1159596112444
0.0055                    -0.0195                  295.049265481718
0.0055                    -0.0185                  293.8627542254447
0.0055                    -0.0175                  293.58509415683284
0.0055                    -0.0165                  293.4946431892415
0.0055                    -0.0155                  293.4463201435955
0.0055                    -0.0145                  293.41873304997375
0.0055                    -0.0135                  293.4024629248816
0.0055                    -0.0125                  293.38803912839705
0.0055                    -0.0115                  293.37901076619573
0.0055                    -0.0105                  293.37266518736436
0.0055                    -0.0095                  293.3659802877749
0.0055                    -0.0085                  293.3613593617491
0.0055                    -0.0075                  293.3564911115101
0.0055                    -0.0065                  293.35054458840295
0.0055                    -0.0055                  293.3452346869366
0.0055                    -0.0045                  293.34016566829234
0.0055                    -0.0035                  293.33318339269084
0.0055                    -0.0025                  293.3268498044154
0.0055                    -0.0015                  293.321414445276
0.0055                    -5.0E-4                  293.3157390927941
0.0055                    5.0E-4                   293.31072120587976
0.0055                    0.0015                   293.3060914361531
0.0055                    0.0025                   293.29917380035533
0.0055                    0.0035                   293.29463610328776
0.0055                    0.0045                   293.29090464869836
0.0055                    0.0055                   293.28577109368246
0.0055                    0.0065                   293.28439594609813
0.0055                    0.0075                   293.27927893102174
0.0055                    0.0085                   293.27617349512377
0.0055                    0.0095                   293.27876170826204
0.0055                    0.0105                   293.28941516297255
0.0055                    0.0115                   293.29725668210443
0.0055                    0.0125                   293.31022894100386
0.0055                    0.0135                   293.3012238612635
0.0055                    0.0145                   293.32139442887205
0.0055                    0.0155                   293.31074145578657
0.0055                    0.0165                   293.31368181115386
0.0055                    0.0175                   293.2739289610764
0.0055                    0.0185                   293.2466648705412
0.0055                    0.0195                   293.19459285618495
0.0055                    0.0205                   293.1727664276862
0.0055                    0.0215                   293.16282084717
0.0055                    0.0225                   293.16088193694065
0.0055                    0.0235                   293.16025920755203
0.0055                    0.0245                   293.16020267214657
0.0055                    0.0255                   293.1618067282118
0.0055                    0.0265                   293.1678508498209
0.0055                    0.0275                   293.2456213297723
0.0055                    0.0285                   293.4421967289309
0.0055                    0.0295                   293.5485504645655
0.0055                    0.0305                   293.58093462600175
0.0055                    0.0315                   293.8530357146301
0.0065                    -0.0315                  296.1710558271291
0.0065                    -0.0305                  296.1704344171759
0.0065                    -0.0295                  296.1690276373571
0.0065                    -0.0285                  296.1671472279771
0.0065                    -0.0275                  296.1642017407003
0.0065                    -0.0265                  296.1604749062752
0.0065                    -0.0255                  296.1554746506027
0.0065                    -0.0245                  296.14908172784624
0.0065                    -0.0235                  296.1415800952498
0.0065                    -0.0225                  296.13272303745634
0.0065                    -0.0215                  296.1214797171993
0.0065                    -0.0205                  296.0984911561629
0.0065                    -0.0195                  294.83152705225035
0.0065                    -0.0185                  293.64154224941825
0.0065                    -0.0175                  293.5032158686583
0.0065                    -0.0165                  293.4475134183332
0.0065                    -0.0155                  293.4191295196681
0.0065                    -0.0145                  293.40677988354315
0.0065                    -0.0135                  293.3949904262872
0.0065                    -0.0125                  293.3883042213969
0.0065                    -0.0115                  293.38487364473633
0.0065                    -0.0105                  293.38025481948904
0.0065                    -0.0095                  293.3784369472162
0.0065                    -0.0085                  293.3809865368396
0.0065                    -0.0075                  293.3756127867739
0.0065                    -0.0065                  293.37024154735445
0.0065                    -0.0055                  293.365602119781
0.0065                    -0.0045                  293.358659851837
0.0065                    -0.0035                  293.3513769848337
0.0065                    -0.0025                  293.34504241636307
0.0065                    -0.0015                  293.33696951108095
0.0065                    -5.0E-4                  293.3287883848758
0.0065                    5.0E-4                   293.32185693435554
0.0065                    0.0015                   293.31084065094666
0.0065                    0.0025                   293.3036920789058
0.0065                    0.0035                   293.30085813280346
0.0065                    0.0045                   293.2920854920128
0.0065                    0.0055                   293.28598738714567
0.0065                    0.0065                   293.2772630487157
0.0065                    0.0075                   293.26906925270663
0.0065                    0.0085                   293.26137536822006
0.0065                    0.0095                   293.2551891589354
0.0065                    0.0105                   293.2487271984871