% Model:              SIMBench260525.mph
% Version:            COMSOL 6.2.0.339
% Date:               May 27 2026, 17:52
% Dimension:          2
% Nodes:              4096
% Expressions:        1
% Description:        温度
% Length unit:        m
% x                       y                        T (K)
5.0E-4                    -0.0315                  323.9384678543256
5.0E-4                    -0.0305                  322.5896080871244
5.0E-4                    -0.0295                  321.2428051215666
5.0E-4                    -0.0285                  319.7259078748847
5.0E-4                    -0.0275                  318.39293674914506
5.0E-4                    -0.0265                  317.20790231278977
5.0E-4                    -0.0255                  316.6557067995255
5.0E-4                    -0.0245                  316.07538605368643
5.0E-4                    -0.0235                  315.57533895213095
5.0E-4                    -0.0225                  315.20628724166863
5.0E-4                    -0.0215                  314.8290704634433
5.0E-4                    -0.0205                  314.46180157810034
5.0E-4                    -0.0195                  314.19296438563407
5.0E-4                    -0.0185                  313.9333511054896
5.0E-4                    -0.0175                  313.54075459054326
5.0E-4                    -0.0165                  313.4192802313117
5.0E-4                    -0.0155                  313.29780587208006
5.0E-4                    -0.0145                  313.0041113544655
5.0E-4                    -0.0135                  312.83507130416376
5.0E-4                    -0.0125                  312.66564175782145
5.0E-4                    -0.0115                  312.53526158006775
5.0E-4                    -0.0105                  312.46659860311934
5.0E-4                    -0.0095                  312.4108569638077
5.0E-4                    -0.0085                  312.44320474974506
5.0E-4                    -0.0075                  312.5018138303084
5.0E-4                    -0.0065                  312.57918380296735
5.0E-4                    -0.0055                  312.708613982973
5.0E-4                    -0.0045                  312.84418800776626
5.0E-4                    -0.0035                  313.0091852838917
5.0E-4                    -0.0025                  313.1426501359887
5.0E-4                    -0.0015                  313.27416208919317
5.0E-4                    -5.0E-4                  313.4916260932688
5.0E-4                    5.0E-4                   313.68000421763736
5.0E-4                    0.0015                   313.868382342006
5.0E-4                    0.0025                   314.0999007707196
5.0E-4                    0.0035                   314.1668388551207
5.0E-4                    0.0045                   314.2416582261852
5.0E-4                    0.0055                   314.0884676969618
5.0E-4                    0.0065                   313.623631928603
5.0E-4                    0.0075                   313.2195151554692
5.0E-4                    0.0085                   311.8846073689652
5.0E-4                    0.0095                   310.00932233200473
5.0E-4                    0.0105                   308.57345988866797
5.0E-4                    0.0115                   305.2012841462772
5.0E-4                    0.0125                   301.3814497273586
5.0E-4                    0.0135                   298.1329762639593
5.0E-4                    0.0145                   297.53772035926596
5.0E-4                    0.0155                   296.9424644545727
5.0E-4                    0.0165                   295.02719585688413
5.0E-4                    0.0175                   294.1545659663819
5.0E-4                    0.0185                   293.3455222529229
5.0E-4                    0.0195                   293.1529884946731
5.0E-4                    0.0205                   293.1433178252002
5.0E-4                    0.0215                   293.14573500381914
5.0E-4                    0.0225                   293.15005280385014
5.0E-4                    0.0235                   293.1530287903809
5.0E-4                    0.0245                   293.1549106853275
5.0E-4                    0.0255                   293.1548080047679
5.0E-4                    0.0265                   293.1550282223912
5.0E-4                    0.0275                   293.1563347234592
5.0E-4                    0.0285                   293.15698799043753
5.0E-4                    0.0295                   293.16288121561104
5.0E-4                    0.0305                   293.17419288149193
5.0E-4                    0.0315                   293.18558062157194
0.0015                    -0.0315                  323.3937016085633
0.0015                    -0.0305                  321.92326173737996
0.0015                    -0.0295                  320.4544070668438
0.0015                    -0.0285                  318.8118727393098
0.0015                    -0.0275                  317.36151776658596
0.0015                    -0.0265                  316.7124897264963
0.0015                    -0.0255                  316.1959708602457
0.0015                    -0.0245                  315.61745867384013
0.0015                    -0.0235                  315.264218325513
0.0015                    -0.0225                  314.91328999370273
0.0015                    -0.0215                  314.53849188132017
0.0015                    -0.0205                  314.1807011538312
0.0015                    -0.0195                  313.8529901289913
0.0015                    -0.0185                  313.52067070435163
0.0015                    -0.0175                  313.02307543828556
0.0015                    -0.0165                  312.7077038596613
0.0015                    -0.0155                  312.4587518256841
0.0015                    -0.0145                  312.0740892865843
0.0015                    -0.0135                  311.832216270473
0.0015                    -0.0125                  311.65717468849886
0.0015                    -0.0115                  311.4790055559346
0.0015                    -0.0105                  311.392670979277
0.0015                    -0.0095                  311.3732695994916
0.0015                    -0.0085                  311.3650569867791
0.0015                    -0.0075                  311.4236660673425
0.0015                    -0.0065                  311.530109432074
0.0015                    -0.0055                  311.64211826564144
0.0015                    -0.0045                  311.78658434767647
0.0015                    -0.0035                  311.9740591741942
0.0015                    -0.0025                  312.1410572275945
0.0015                    -0.0015                  312.31725782038654
0.0015                    -5.0E-4                  312.5784112214503
0.0015                    5.0E-4                   312.8001393776054
0.0015                    0.0015                   313.0591335035181
0.0015                    0.0025                   313.3835486170099
0.0015                    0.0035                   313.5232687907976
0.0015                    0.0045                   313.64827229191565
0.0015                    0.0055                   313.7988055855104
0.0015                    0.0065                   313.4001492117997
0.0015                    0.0075                   313.13066228008756
0.0015                    0.0085                   312.7803495394893
0.0015                    0.0095                   310.95498395281504
0.0015                    0.0105                   310.0597862622155
0.0015                    0.0115                   308.4431151459153
0.0015                    0.0125                   304.816542115822
0.0015                    0.0135                   301.7922450347261
0.0015                    0.0145                   299.8357812901498
0.0015                    0.0155                   298.2823789515154
0.0015                    0.0165                   295.55677576620474
0.0015                    0.0175                   294.089975497084
0.0015                    0.0185                   293.55722404981043
0.0015                    0.0195                   293.1374972755845
0.0015                    0.0205                   293.1303108427577
0.0015                    0.0215                   293.145974654007
0.0015                    0.0225                   293.1572053559443
0.0015                    0.0235                   293.1598820268132
0.0015                    0.0245                   293.1621769929736
0.0015                    0.0255                   293.1628510407841
0.0015                    0.0265                   293.1644492387469
0.0015                    0.0275                   293.16654311010814
0.0015                    0.0285                   293.1690719930757
0.0015                    0.0295                   293.18013762632006
0.0015                    0.0305                   293.19153744953576
0.0015                    0.0315                   293.23873962869357
0.0025                    -0.0315                  322.84893536280094
0.0025                    -0.0305                  321.3522095357436
0.0025                    -0.0295                  319.7813136090543
0.0025                    -0.0285                  318.1175897873353
0.0025                    -0.0275                  316.95985994088153
0.0025                    -0.0265                  316.39111289262235
0.0025                    -0.0255                  315.8246212284242
0.0025                    -0.0245                  315.4216766363566
0.0025                    -0.0235                  315.07067210060376
0.0025                    -0.0225                  314.71966756485085
0.0025                    -0.0215                  314.286979774471
0.0025                    -0.0205                  313.9301952120866
0.0025                    -0.0195                  313.5734106497022
0.0025                    -0.0185                  312.9791133012742
0.0025                    -0.0175                  312.4814125961933
0.0025                    -0.0165                  311.9775738460535
0.0025                    -0.0155                  311.57331410916845
0.0025                    -0.0145                  311.1887903708539
0.0025                    -0.0135                  310.85802086693815
0.0025                    -0.0125                  310.67938011591923
0.0025                    -0.0115                  310.5007393649003
0.0025                    -0.0105                  310.3932705826777
0.0025                    -0.0095                  310.3834779533589
0.0025                    -0.0085                  310.3736853240401
0.0025                    -0.0075                  310.42265081377377
0.0025                    -0.0065                  310.52863481534223
0.0025                    -0.0055                  310.6346188169107
0.0025                    -0.0045                  310.7846322773392
0.0025                    -0.0035                  310.9718492058076
0.0025                    -0.0025                  311.1590661342759
0.0025                    -0.0015                  311.39322691571783
0.0025                    -5.0E-4                  311.6543826912696
0.0025                    5.0E-4                   311.9075223566051
0.0025                    0.0015                   312.22442097136604
0.0025                    0.0025                   312.5488450225211
0.0025                    0.0035                   312.8463643170021
0.0025                    0.0045                   312.9966546668803
0.0025                    0.0055                   313.14694501675865
0.0025                    0.0065                   313.20677429254107
0.0025                    0.0075                   312.9650024860938
0.0025                    0.0085                   312.7232306796466
0.0025                    0.0095                   312.20887922923737
0.0025                    0.0105                   311.30538641890075
0.0025                    0.0115                   310.4018936085642
0.0025                    0.0125                   308.0724311128931
0.0025                    0.0135                   305.03122990040373
0.0025                    0.0145                   301.91004316153834
0.0025                    0.0155                   298.98724875396397
0.0025                    0.0165                   296.2524506762482
0.0025                    0.0175                   294.12551003110514
0.0025                    0.0185                   293.69954958841015
0.0025                    0.0195                   293.27358914571516
0.0025                    0.0205                   293.1309119967629
0.0025                    0.0215                   293.1465801880229
0.0025                    0.0225                   293.1622102367977
0.0025                    0.0235                   293.16696224264024
0.0025                    0.0245                   293.1692633821739
0.0025                    0.0255                   293.171572419377
0.0025                    0.0265                   293.1736264051423
0.0025                    0.0275                   293.17568039090753
0.0025                    0.0285                   293.18491136842823
0.0025                    0.0295                   293.1955894442218
0.0025                    0.0305                   293.23325329348546
0.0025                    0.0315                   293.2918986358152
0.0035                    -0.0315                  322.3558367677273
0.0035                    -0.0305                  320.7413956343249
0.0035                    -0.0295                  319.20968980331594
0.0035                    -0.0285                  317.82345633173264
0.0035                    -0.0275                  317.1019084628348
0.0035                    -0.0265                  316.4490402829913
0.0035                    -0.0255                  315.9679535141598
0.0035                    -0.0245                  315.77149770932795
0.0035                    -0.0235                  315.45568632752634
0.0035                    -0.0225                  314.96682348176404
0.0035                    -0.0215                  314.21452667409574
0.0035                    -0.0205                  313.82939765016636
0.0035                    -0.0195                  313.12937761675954
0.0035                    -0.0185                  312.1805331523967
0.0035                    -0.0175                  311.68283244731583
0.0035                    -0.0165                  311.1416514577485
0.0035                    -0.0155                  310.6338733086246
0.0035                    -0.0145                  310.24934957030996
0.0035                    -0.0135                  310.03815494285845
0.0035                    -0.0125                  309.85321023475655
0.0035                    -0.0115                  309.6829320651957
0.0035                    -0.0105                  309.657721999704
0.0035                    -0.0095                  309.6424325288876
0.0035                    -0.0085                  309.64476588832287
0.0035                    -0.0075                  309.69046466373413
0.0035                    -0.0065                  309.7854374414202
0.0035                    -0.0055                  309.88316668369043
0.0035                    -0.0045                  309.96764860310174
0.0035                    -0.0035                  310.15403417207324
0.0035                    -0.0025                  310.31149597207065
0.0035                    -0.0015                  310.4661918878912
0.0035                    -5.0E-4                  310.72734766344297
0.0035                    5.0E-4                   310.94033259366296
0.0035                    0.0015                   311.17929926147275
0.0035                    0.0025                   311.5037233126278
0.0035                    0.0035                   311.79529396598747
0.0035                    0.0045                   312.01208598355396
0.0035                    0.0055                   312.1717999666005
0.0035                    0.0065                   312.45371836745517
0.0035                    0.0075                   312.3746832903021
0.0035                    0.0085                   312.18061721319793
0.0035                    0.0095                   312.1265072261836
0.0035                    0.0105                   311.33714699920745
0.0035                    0.0115                   310.34349807325
0.0035                    0.0125                   309.132069169833
0.0035                    0.0135                   306.0908679573436
0.0035                    0.0145                   302.3544261328017
0.0035                    0.0155                   298.69895098412064
0.0035                    0.0165                   295.9688872299764
0.0035                    0.0175                   294.4653662733102
0.0035                    0.0185                   293.5856847424982
0.0035                    0.0195                   293.2626078855901
0.0035                    0.0205                   293.1422145267686
0.0035                    0.0215                   293.1484808819414
0.0035                    0.0225                   293.1637443758175
0.0035                    0.0235                   293.17525027449136
0.0035                    0.0245                   293.1775514140251
0.0035                    0.0255                   293.1799951601404
0.0035                    0.0265                   293.18221805997587
0.0035                    0.0275                   293.18777600433714
0.0035                    0.0285                   293.19877846042976
0.0035                    0.0295                   293.2095720185181
0.0035                    0.0305                   293.25879458987924
0.0035                    0.0315                   293.3270149285196
0.0045                    -0.0315                  322.0996051747671
0.0045                    -0.0305                  320.39150510619515
0.0045                    -0.0295                  318.72934645404405
0.0045                    -0.0285                  317.9573460141839
0.0045                    -0.0275                  317.2412060564669
0.0045                    -0.0265                  316.5224091158901
0.0045                    -0.0255                  316.25897603777173
0.0045                    -0.0245                  316.0625202329399
0.0045                    -0.0235                  315.8407005544489
0.0045                    -0.0225                  315.108086245375
0.0045                    -0.0215                  314.3557894377067
0.0045                    -0.0205                  313.637052202328
0.0045                    -0.0195                  312.63369685189446
0.0045                    -0.0185                  311.63034150146086
0.0045                    -0.0175                  310.86365783959326
0.0045                    -0.0165                  310.3057290694435
0.0045                    -0.0155                  309.74780029929383
0.0045                    -0.0145                  309.40954051135697
0.0045                    -0.0135                  309.21905466322914
0.0045                    -0.0125                  309.02856881510127
0.0045                    -0.0115                  308.95109756357374
0.0045                    -0.0105                  308.92588749808203
0.0045                    -0.0095                  308.90138710441624
0.0045                    -0.0085                  308.93764873121927
0.0045                    -0.0075                  308.98334750663054
0.0045                    -0.0065                  309.042240067498
0.0045                    -0.0055                  309.1269032719879
0.0045                    -0.0045                  309.21138519139924
0.0045                    -0.0035                  309.32776596033807
0.0045                    -0.0025                  309.4610922222214
0.0045                    -0.0015                  309.5944184841046
0.0045                    -5.0E-4                  309.7786145579123
0.0045                    5.0E-4                   309.9731428307208
0.0045                    0.0015                   310.1676711035292
0.0045                    0.0025                   310.4403671533825
0.0045                    0.0035                   310.72813455126845
0.0045                    0.0045                   311.0159019491543
0.0045                    0.0055                   311.26623559454356
0.0045                    0.0065                   311.54815399539825
0.0045                    0.0075                   311.78436409451035
0.0045                    0.0085                   311.7030733921805
0.0045                    0.0095                   311.6489634051661
0.0045                    0.0105                   311.35483506296737
0.0045                    0.0115                   310.256938045648
0.0045                    0.0125                   309.1590410283285
0.0045                    0.0135                   306.82774302055094
0.0045                    0.0145                   302.79880910406507
0.0045                    0.0155                   298.76987518757915
0.0045                    0.0165                   296.4500762093613
0.0045                    0.0175                   294.94655525269513
0.0045                    0.0185                   293.47181989658617
0.0045                    0.0195                   293.3376701853674
0.0045                    0.0205                   293.2172768265459
0.0045                    0.0215                   293.15020091113564
0.0045                    0.0225                   293.16527851483727
0.0045                    0.0235                   293.180356118539
0.0045                    0.0245                   293.1859240614498
0.0045                    0.0255                   293.18836904457345
0.0045                    0.0265                   293.1908097148095
0.0045                    0.0275                   293.20152917622323
0.0045                    0.0285                   293.21247662795207
0.0045                    0.0295                   293.2233486720342
0.0045                    0.0305                   293.2980333736905
0.0045                    0.0315                   293.3738651824126
0.0055                    -0.0315                  321.84337358180693
0.0055                    -0.0305                  320.3654211037944
0.0055                    -0.0295                  318.9231178113363
0.0055                    -0.0285                  318.0099044793454
0.0055                    -0.0275                  317.28591579061356
0.0055                    -0.0265                  316.7187568113511
0.0055                    -0.0255                  316.40159895255425
0.0055                    -0.0245                  316.2132071714343
0.0055                    -0.0235                  315.4498868750953
0.0055                    -0.0225                  314.43610576850654
0.0055                    -0.0215                  313.6726554949904
0.0055                    -0.0205                  312.5291278641786
0.0055                    -0.0195                  311.4437267230123
0.0055                    -0.0185                  310.4386314123234
0.0055                    -0.0175                  310.018385511116
0.0055                    -0.0165                  309.47593115787765
0.0055                    -0.0155                  308.992005905585
0.0055                    -0.0145                  308.9655263686826
0.0055                    -0.0135                  308.77199601330904
0.0055                    -0.0125                  308.66097024657716
0.0055                    -0.0115                  308.71922850507417
0.0055                    -0.0105                  308.6913894510746
0.0055                    -0.0095                  308.71523760765723
0.0055                    -0.0085                  308.7833064363059
0.0055                    -0.0075                  308.8266968882539
0.0055                    -0.0065                  308.88306590363294
0.0055                    -0.0055                  308.9589226427516
0.0055                    -0.0045                  309.04146876818385
0.0055                    -0.0035                  309.1054539871958
0.0055                    -0.0025                  309.22214149658487
0.0055                    -0.0015                  309.35402249570865
0.0055                    -5.0E-4                  309.4291923059364
0.0055                    5.0E-4                   309.6191459655168
0.0055                    0.0015                   309.8041541276642
0.0055                    0.0025                   309.93514305467585
0.0055                    0.0035                   310.2231111910387
0.0055                    0.0045                   310.47442818102354
0.0055                    0.0055                   310.66865039884215
0.0055                    0.0065                   310.9519279195941
0.0055                    0.0075                   311.19355422273355
0.0055                    0.0085                   311.2661752880099
0.0055                    0.0095                   311.21264530227774
0.0055                    0.0105                   311.1092126906799
0.0055                    0.0115                   310.33492800903343
0.0055                    0.0125                   309.2400283309829
0.0055                    0.0135                   306.5715285019834
0.0055                    0.0145                   302.68174526413657
0.0055                    0.0155                   298.8953372827254
0.0055                    0.0165                   296.13179217007007
0.0055                    0.0175                   294.62269981897884
0.0055                    0.0185                   293.6570189437671
0.0055                    0.0195                   293.3074922545454
0.0055                    0.0205                   293.1876996042571
0.0055                    0.0215                   293.1611909898244
0.0055                    0.0225                   293.1716289496302
0.0055                    0.0235                   293.1854576634329
0.0055                    0.0245                   293.19405026507474
0.0055                    0.0255                   293.1964840666384
0.0055                    0.0265                   293.2011930586839
0.0055                    0.0275                   293.20992154023486
0.0055                    0.0285                   293.220793584317
0.0055                    0.0295                   293.24511781620964
0.0055                    0.0305                   293.329729118115
0.0055                    0.0315                   293.4207154363056
0.0065                    -0.0315                  321.988871145058
0.0065                    -0.0305                  320.5377299238681
0.0065                    -0.0295                  319.13921844812324
0.0065                    -0.0285                  318.2260051161322
0.0065                    -0.0275                  317.35661958843053
0.0065                    -0.0265                  316.9562125314617
0.0065                    -0.0255                  316.5558054744929
0.0065                    -0.0245                  316.25840404472365
0.0065                    -0.0235                  314.9601096861399
0.0065                    -0.0225                  313.66181532755616
0.0065                    -0.0215                  312.6697408629789
0.0065                    -0.0205                  311.3923122249701
0.0065                    -0.0195                  310.14049863602025
0.0065                    -0.0185                  309.4838195912097
0.0065                    -0.0175                  309.0903236982782
0.0065                    -0.0165                  308.64714621214597
0.0065                    -0.0155                  308.5045400102376
0.0065                    -0.0145                  308.49573807106015
0.0065                    -0.0135                  308.3947144296995
0.0065                    -0.0125                  308.46060392338177
0.0065                    -0.0115                  308.55160632766604
0.0065                    -0.0105                  308.56894541801756
0.0065                    -0.0095                  308.6571231000688
0.0065                    -0.0085                  308.74530078212
0.0065                    -0.0075                  308.7999458068158
0.0065                    -0.0065                  308.8648656027515
0.0065                    -0.0055                  308.9301758377752
0.0065                    -0.0045                  309.00367954514786
0.0065                    -0.0035                  309.0619397851086
0.0065                    -0.0025                  309.1345167967267
0.0065                    -0.0015                  309.2337771696099
0.0065                    -5.0E-4                  309.304685634718
0.0065                    5.0E-4                   309.4209070877128
0.0065                    0.0015                   309.552355778073
0.0065                    0.0025                   309.6573532206106
0.0065                    0.0035                   309.861505950122
0.0065                    0.0045                   310.03199279172793
0.0065                    0.0055                   310.1853852777249
0.0065                    0.0065                   310.42645028528904
0.0065                    0.0075                   310.61813690270696
0.0065                    0.0085                   310.80982352012484
0.0065                    0.0095                   310.7648105375057
0.0065                    0.0105                   310.6369501259412
0.0065                    0.0115                   310.44014368756