% Model:              SIMBench260525.mph
% Version:            COMSOL 6.2.0.339
% Date:               May 27 2026, 17:20
% Dimension:          2
% Nodes:              4096
% Expressions:        1
% Description:        温度
% Length unit:        m
% x                       y                        T (K)
5.0E-4                    -0.0315                  373.72166366119853
5.0E-4                    -0.0305                  372.7694150316987
5.0E-4                    -0.0295                  371.8008872364405
5.0E-4                    -0.0285                  369.90881418269777
5.0E-4                    -0.0275                  367.40690970931047
5.0E-4                    -0.0265                  364.90500523592317
5.0E-4                    -0.0255                  360.73358101419933
5.0E-4                    -0.0245                  356.08879049015496
5.0E-4                    -0.0235                  351.38751840394536
5.0E-4                    -0.0225                  345.3844133632409
5.0E-4                    -0.0215                  339.81309794466034
5.0E-4                    -0.0205                  334.3165937356887
5.0E-4                    -0.0195                  329.9320693917447
5.0E-4                    -0.0185                  326.01334905181807
5.0E-4                    -0.0175                  322.43179922084676
5.0E-4                    -0.0165                  320.601462813208
5.0E-4                    -0.0155                  318.72726618976395
5.0E-4                    -0.0145                  317.1432825184281
5.0E-4                    -0.0135                  316.3550629033465
5.0E-4                    -0.0125                  315.41293154650424
5.0E-4                    -0.0115                  314.66801763754273
5.0E-4                    -0.0105                  314.16423714588376
5.0E-4                    -0.0095                  313.5294332071246
5.0E-4                    -0.0085                  313.0813926108706
5.0E-4                    -0.0075                  312.6687596699353
5.0E-4                    -0.0065                  312.13619703064046
5.0E-4                    -0.0055                  311.82448021074913
5.0E-4                    -0.0045                  311.58416629291986
5.0E-4                    -0.0035                  311.27932825825246
5.0E-4                    -0.0025                  311.1129116682184
5.0E-4                    -0.0015                  310.84251227441575
5.0E-4                    -5.0E-4                  310.53013262446177
5.0E-4                    5.0E-4                   310.2434610483045
5.0E-4                    0.0015                   309.5622096035173
5.0E-4                    0.0025                   308.8475856636149
5.0E-4                    0.0035                   308.0690024768179
5.0E-4                    0.0045                   305.6431193229315
5.0E-4                    0.0055                   303.2029472386687
5.0E-4                    0.0065                   301.2031944166657
5.0E-4                    0.0075                   299.2545143021644
5.0E-4                    0.0085                   297.3058341876631
5.0E-4                    0.0095                   295.64187368491235
5.0E-4                    0.0105                   295.7382550584208
5.0E-4                    0.0115                   295.83463643192925
5.0E-4                    0.0125                   294.5688328795329
5.0E-4                    0.0135                   293.90641316101494
5.0E-4                    0.0145                   293.2868836816534
5.0E-4                    0.0155                   293.1333847788836
5.0E-4                    0.0165                   293.1307117294655
5.0E-4                    0.0175                   293.22433626638997
5.0E-4                    0.0185                   293.57136398615955
5.0E-4                    0.0195                   293.93801573555606
5.0E-4                    0.0205                   294.56794624511144
5.0E-4                    0.0215                   294.5891668994868
5.0E-4                    0.0225                   294.6103875538622
5.0E-4                    0.0235                   295.2160512697328
5.0E-4                    0.0245                   295.9841951889526
5.0E-4                    0.0255                   296.75233910817235
5.0E-4                    0.0265                   297.5276054009378
5.0E-4                    0.0275                   298.6719555538818
5.0E-4                    0.0285                   299.8163057068258
5.0E-4                    0.0295                   300.77721333031417
5.0E-4                    0.0305                   302.0779508909861
5.0E-4                    0.0315                   303.378688451658
0.0015                    -0.0315                  372.0343389141767
0.0015                    -0.0305                  371.6801725815658
0.0015                    -0.0295                  370.4466944510511
0.0015                    -0.0285                  368.5030584357249
0.0015                    -0.0275                  366.25724114136284
0.0015                    -0.0265                  362.77779350600224
0.0015                    -0.0255                  358.7637282251265
0.0015                    -0.0245                  354.31440475636657
0.0015                    -0.0235                  348.51276835419844
0.0015                    -0.0225                  342.2223091774406
0.0015                    -0.0215                  336.50625490557223
0.0015                    -0.0205                  331.5236112434601
0.0015                    -0.0195                  326.7328060983971
0.0015                    -0.0185                  322.69573146061816
0.0015                    -0.0175                  320.50126288306143
0.0015                    -0.0165                  318.720763249647
0.0015                    -0.0155                  316.8532179535792
0.0015                    -0.0145                  316.1126689790366
0.0015                    -0.0135                  315.5535163184774
0.0015                    -0.0125                  314.6135457513773
0.0015                    -0.0115                  314.30937471368213
0.0015                    -0.0105                  314.04182163525735
0.0015                    -0.0095                  313.40701769649826
0.0015                    -0.0085                  313.2963914269717
0.0015                    -0.0075                  313.1529141544074
0.0015                    -0.0065                  312.63517562271926
0.0015                    -0.0055                  312.6423741089278
0.0015                    -0.0045                  312.59351572895
0.0015                    -0.0035                  312.31532994209556
0.0015                    -0.0025                  312.3019509719935
0.0015                    -0.0015                  312.21517898377783
0.0015                    -5.0E-4                  311.9102233010781
0.0015                    5.0E-4                   311.6453665516713
0.0015                    0.0015                   311.2407514526792
0.0015                    0.0025                   310.5027186721854
0.0015                    0.0035                   309.6828016697252
0.0015                    0.0045                   308.2576494256737
0.0015                    0.0055                   306.01047216556424
0.0015                    0.0065                   304.2392923901627
0.0015                    0.0075                   302.3894554849346
0.0015                    0.0085                   300.44698097757015
0.0015                    0.0095                   298.51528833584314
0.0015                    0.0105                   297.67024884175044
0.0015                    0.0115                   296.83131541040973
0.0015                    0.0125                   294.9044885085437
0.0015                    0.0135                   293.8728381845613
0.0015                    0.0145                   293.44598395259686
0.0015                    0.0155                   293.10424854133146
0.0015                    0.0165                   293.1067555322932
0.0015                    0.0175                   293.3165712136671
0.0015                    0.0185                   293.5720721848421
0.0015                    0.0195                   294.1036057949928
0.0015                    0.0205                   295.0123387152979
0.0015                    0.0215                   295.46186371350814
0.0015                    0.0225                   295.73973160710443
0.0015                    0.0235                   296.50990090591563
0.0015                    0.0245                   297.27885486111995
0.0015                    0.0255                   297.9973356063764
0.0015                    0.0265                   298.64597345111923
0.0015                    0.0275                   299.60465373941616
0.0015                    0.0285                   300.6259332256243
0.0015                    0.0295                   301.3657095107313
0.0015                    0.0305                   302.48737660988115
0.0015                    0.0315                   303.8243837917233
0.0025                    -0.0315                  370.347014167155
0.0025                    -0.0305                  369.38753350852534
0.0025                    -0.0295                  367.9781570899789
0.0025                    -0.0285                  366.2245037647979
0.0025                    -0.0275                  363.72726924883943
0.0025                    -0.0265                  359.82662050476284
0.0025                    -0.0255                  355.904159424823
0.0025                    -0.0245                  351.21590743827085
0.0025                    -0.0235                  344.9972422456955
0.0025                    -0.0225                  338.77857705312016
0.0025                    -0.0215                  333.3202622961858
0.0025                    -0.0205                  328.5361773175234
0.0025                    -0.0195                  323.752092338861
0.0025                    -0.0185                  320.45123633433496
0.0025                    -0.0175                  318.66819887175427
0.0025                    -0.0165                  316.8851614091735
0.0025                    -0.0155                  315.76993651247784
0.0025                    -0.0145                  315.2072466919243
0.0025                    -0.0135                  314.64455687137064
0.0025                    -0.0125                  314.2943806088778
0.0025                    -0.0115                  314.04424718929255
0.0025                    -0.0105                  313.7941137697072
0.0025                    -0.0095                  313.6884592385099
0.0025                    -0.0085                  313.59440149221103
0.0025                    -0.0075                  313.5003437459122
0.0025                    -0.0065                  313.524216911786
0.0025                    -0.0055                  313.5311273501832
0.0025                    -0.0045                  313.5380377885804
0.0025                    -0.0035                  313.5503396445183
0.0025                    -0.0025                  313.53677795246733
0.0025                    -0.0015                  313.5232162604163
0.0025                    -5.0E-4                  313.29768159155725
0.0025                    5.0E-4                   313.03277869203015
0.0025                    0.0015                   312.76787579250305
0.0025                    0.0025                   312.0300614503617
0.0025                    0.0035                   311.20904712680186
0.0025                    0.0045                   310.388032803242
0.0025                    0.0055                   308.80389395035223
0.0025                    0.0065                   307.026679661675
0.0025                    0.0075                   305.2494653729977
0.0025                    0.0085                   303.36712136683445
0.0025                    0.0095                   301.43213340328737
0.0025                    0.0105                   299.3655717075851
0.0025                    0.0115                   297.36545247115754
0.0025                    0.0125                   295.43768997371546
0.0025                    0.0135                   293.9133423889966
0.0025                    0.0145                   293.5715069002505
0.0025                    0.0155                   293.22967141150434
0.0025                    0.0165                   293.1815986478589
0.0025                    0.0175                   293.3923738710097
0.0025                    0.0185                   293.60314909416047
0.0025                    0.0195                   294.3702227514985
0.0025                    0.0205                   295.28642116543887
0.0025                    0.0215                   296.2026195793793
0.0025                    0.0225                   297.0055128086719
0.0025                    0.0235                   297.7798612330847
0.0025                    0.0245                   298.55260290309
0.0025                    0.0255                   299.2190511377426
0.0025                    0.0265                   299.8676889824854
0.0025                    0.0275                   300.53735192495054
0.0025                    0.0285                   301.32835649225933
0.0025                    0.0295                   302.0200241501649
0.0025                    0.0305                   302.97733300350086
0.0025                    0.0315                   304.2708120837577
0.0035                    -0.0315                  367.356674452075
0.0035                    -0.0305                  366.04274400633824
0.0035                    -0.0295                  364.7645591989517
0.0035                    -0.0285                  362.6001279300701
0.0035                    -0.0275                  358.865454796073
0.0035                    -0.0265                  355.078797465531
0.0035                    -0.0255                  351.04774113290415
0.0035                    -0.0245                  345.13957414026765
0.0035                    -0.0235                  339.079870779144
0.0035                    -0.0225                  332.9835059891083
0.0035                    -0.0215                  329.002125214821
0.0035                    -0.0205                  324.55142656371856
0.0035                    -0.0195                  320.1434084632219
0.0035                    -0.0185                  318.9650764815615
0.0035                    -0.0175                  317.393411564451
0.0035                    -0.0165                  315.8268291886558
0.0035                    -0.0155                  315.56651016959785
0.0035                    -0.0145                  315.09023655687935
0.0035                    -0.0135                  314.62817160545654
0.0035                    -0.0125                  314.6232398485339
0.0035                    -0.0115                  314.4282776747879
0.0035                    -0.0105                  314.287920479894
0.0035                    -0.0095                  314.54333177908535
0.0035                    -0.0085                  314.5090764770928
0.0035                    -0.0075                  314.5400823455844
0.0035                    -0.0065                  314.91241744128934
0.0035                    -0.0055                  314.9599525542949
0.0035                    -0.0045                  315.00597224973626
0.0035                    -0.0035                  315.1322753406444
0.0035                    -0.0025                  315.12537976323097
0.0035                    -0.0015                  314.96383107246993
0.0035                    -5.0E-4                  314.5731417880651
0.0035                    5.0E-4                   314.30823888853797
0.0035                    0.0015                   313.7673816259298
0.0035                    0.0025                   312.89984375958886
0.0035                    0.0035                   312.0788294360291
0.0035                    0.0045                   311.11736809674454
0.0035                    0.0055                   309.9265159491439
0.0035                    0.0065                   308.14930166046673
0.0035                    0.0075                   306.47331017439404
0.0035                    0.0085                   304.7844424627507
0.0035                    0.0095                   302.84945449920366
0.0035                    0.0105                   299.97144688645625
0.0035                    0.0115                   297.26199758207883
0.0035                    0.0125                   295.33423508463676
0.0035                    0.0135                   294.1355127269473
0.0035                    0.0145                   293.48765305492367
0.0035                    0.0155                   293.2093437928685
0.0035                    0.0165                   293.17377093187406
0.0035                    0.0175                   293.3557275845213
0.0035                    0.0185                   293.74922128045955
0.0035                    0.0195                   294.4038826047682
0.0035                    0.0205                   295.32008101870866
0.0035                    0.0215                   296.3561963311341
0.0035                    0.0225                   297.3927143937133
0.0035                    0.0235                   298.16706281812606
0.0035                    0.0245                   298.90758661001445
0.0035                    0.0255                   299.61175591880544
0.0035                    0.0265                   300.3173919369783
0.0035                    0.0275                   300.7969317744703
0.0035                    0.0285                   301.79447505660426
0.0035                    0.0295                   302.56017761318594
0.0035                    0.0305                   303.5703704616866
0.0035                    0.0315                   304.690427427571
0.0045                    -0.0315                  364.34731796748196
0.0045                    -0.0305                  362.9495228431569
0.0045                    -0.0295                  361.4943056564997
0.0045                    -0.0285                  357.7796665496518
0.0045                    -0.0275                  354.03476194190387
0.0045                    -0.0265                  350.28985733415595
0.0045                    -0.0255                  344.94905287329874
0.0045                    -0.0245                  339.04088588066224
0.0045                    -0.0235                  333.1327188880257
0.0045                    -0.0225                  328.50796818697154
0.0045                    -0.0215                  324.5265874126842
0.0045                    -0.0205                  320.5452066383969
0.0045                    -0.0195                  318.49925285459466
0.0045                    -0.0185                  317.32092087293415
0.0045                    -0.0175                  316.11862425714776
0.0045                    -0.0165                  315.52513130725544
0.0045                    -0.0155                  315.2648122881975
0.0045                    -0.0145                  314.97322642183445
0.0045                    -0.0135                  314.8615923891312
0.0045                    -0.0125                  314.8566606322085
0.0045                    -0.0115                  314.8123081602833
0.0045                    -0.0105                  314.988509278506
0.0045                    -0.0095                  315.24392057769734
0.0045                    -0.0085                  315.42375146197446
0.0045                    -0.0075                  315.74483127077986
0.0045                    -0.0065                  316.11716636648475
0.0045                    -0.0055                  316.38877775840655
0.0045                    -0.0045                  316.5087357112026
0.0045                    -0.0035                  316.6350388021108
0.0045                    -0.0025                  316.7107902447448
0.0045                    -0.0015                  316.31788895288565
0.0045                    -5.0E-4                  315.9249876610264
0.0045                    5.0E-4                   315.539925680322
0.0045                    0.0015                   314.6682819708624
0.0045                    0.0025                   313.79663826140273
0.0045                    0.0035                   312.9113195681574
0.0045                    0.0045                   311.82064912446873
0.0045                    0.0055                   310.72997868078005
0.0045                    0.0065                   309.3100654102128
0.0045                    0.0075                   307.69938549631127
0.0045                    0.0085                   306.08870558240966
0.0045                    0.0095                   303.79147662047137
0.0045                    0.0105                   300.5773220653273
0.0045                    0.0115                   297.3631675101832
0.0045                    0.0125                   295.66954186263285
0.0045                    0.0135                   294.50365964552475
0.0045                    0.0145                   293.4037992095969
0.0045                    0.0155                   293.31043168797424
0.0045                    0.0165                   293.27485882697977
0.0045                    0.0175                   293.3383550796946
0.0045                    0.0185                   293.9574364808076
0.0045                    0.0195                   294.5765178819206
0.0045                    0.0205                   295.40533894676537
0.0045                    0.0215                   296.5287954690495
0.0045                    0.0225                   297.6522519913335
0.0045                    0.0235                   298.55426440316745
0.0045                    0.0245                   299.2625741714063
0.0045                    0.0255                   299.9654786650415
0.0045                    0.0265                   300.44863560432515
0.0045                    0.0275                   300.85128808969046
0.0045                    0.0285                   301.7993898861029
0.0045                    0.0295                   302.88006955263097
0.0045                    0.0305                   303.8250249823064
0.0045                    0.0315                   304.69134913669683
0.0055                    -0.0315                  361.33796148288894
0.0055                    -0.0305                  359.630147884556
0.0055                    -0.0295                  357.8679705943353
0.0055                    -0.0285                  353.3423985118274
0.0055                    -0.0275                  349.52501097901853
0.0055                    -0.0265                  345.2350466225789
0.0055                    -0.0255                  339.8655177801595
0.0055                    -0.0245                  333.8809034345634
0.0055                    -0.0235                  328.7220432274402
0.0055                    -0.0225                  325.3485809665408
0.0055                    -0.0215                  321.3631400365301
0.0055                    -0.0205                  318.64965907136377
0.0055                    -0.0195                  317.68609990450034
0.0055                    -0.0185                  316.49660562094016
0.0055                    -0.0175                  315.7639248126935
0.0055                    -0.0165                  315.5790990748908
0.0055                    -0.0155                  315.3140068341121
0.0055                    -0.0145                  315.2441341318381
0.0055                    -0.0135                  315.33113624908935
0.0055                    -0.0125                  315.324293919672
0.0055                    -0.0115                  315.5548861512297
0.0055                    -0.0105                  315.9194969711813
0.0055                    -0.0095                  316.174036326046
0.0055                    -0.0085                  316.5513927554981
0.0055                    -0.0075                  316.97161244205927
0.0055                    -0.0065                  317.3439214233863
0.0055                    -0.0055                  317.5797886313688
0.0055                    -0.0045                  317.70837544722906
0.0055                    -0.0035                  317.834855167686
0.0055                    -0.0025                  317.6089227135818
0.0055                    -0.0015                  317.20513408074044
0.0055                    -5.0E-4                  316.81241855007744
0.0055                    5.0E-4                   315.95718468416
0.0055                    0.0015                   315.04559753762186
0.0055                    0.0025                   314.17334178615255
0.0055                    0.0035                   312.87103563159553
0.0055                    0.0045                   311.7249994229416
0.0055                    0.0055                   310.62771911005365
0.0055                    0.0065                   309.3797593481424
0.0055                    0.0075                   307.77747310683117
0.0055                    0.0085                   306.1563506371538
0.0055                    0.0095                   303.85419689625064
0.0055                    0.0105                   300.6395023188604
0.0055                    0.0115                   297.58615923374657
0.0055                    0.0125                   295.5474129175617
0.0055                    0.0135                   294.3831009082137
0.0055                    0.0145                   293.5284495505008
0.0055                    0.0155                   293.307618389244
0.0055                    0.0165                   293.27231641596495
0.0055                    0.0175                   293.4182609456449
0.0055                    0.0185                   293.96090367176646
0.0055                    0.0195                   294.57868721427184
0.0055                    0.0205                   295.5957373885019
0.0055                    0.0215                   296.7157564330169
0.0055                    0.0225                   297.8357754775319
0.0055                    0.0235                   298.67100971223203
0.0055                    0.0245                   299.1489121215536
0.0055                    0.0255                   299.6772855814221
0.0055                    0.0265                   300.2769347429097
0.0055                    0.0275                   300.8835222949734
0.0055                    0.0285                   301.6578003706158
0.0055                    0.0295                   302.49407377504974
0.0055                    0.0305                   303.5355567894902
0.0055                    0.0315                   304.6821639703781
0.0065                    -0.0315                  358.0850388896162
0.0065                    -0.0305                  356.03786493790614
0.0065                    -0.0295                  354.0488739065086
0.0065                    -0.0285                  349.52330182400084
0.0065                    -0.0275                  345.00933027758634
0.0065                    -0.0265                  339.78475219169167
0.0065                    -0.0255                  334.56017410579705
0.0065                    -0.0245                  328.799418107084
0.0065                    -0.0235                  325.2955906291856
0.0065                    -0.0225                  322.1717750892834
0.0065                    -0.0215                  318.6440626505068
0.0065                    -0.0205                  317.8070350817345
0.0065                    -0.0195                  316.9700075129623
0.0065                    -0.0185                  315.95495479250644
0.0065                    -0.0175                  315.8302469010026
0.0065                    -0.0165                  315.70553900949875
0.0065                    -0.0155                  315.49879869441867
0.0065                    -0.0145                  315.6767906999076
0.0065                    -0.0135                  315.8547827053966
0.0065                    -0.0125                  315.918741081409
0.0065                    -0.0115                  316.41719470281356
0.0065                    -0.0105                  316.9156483242182
0.0065                    -0.0095                  317.2186064699064
0.0065                    -0.0085                  317.71204914989363
0.0065                    -0.0075                  318.20549182988077
0.0065                    -0.0065                  318.5323127774942
0.0065                    -0.0055                  318.6650496354828
0.0065                    -0.0045                  318.7974663895025
0.0065                    -0.0035                  318.78283235605846
0.0065                    -0.0025                  318.3496898593424
0.0065                    -0.0015                  317.92115678134206
0.0065                    -5.0E-4                  317.3184968363586
0.0065                    5.0E-4                   316.25807111725794
0.0065                    0.0015                   315.2314016177061
0.0065                    0.0025                   314.14361412547686
0.0065                    0.0035                   312.7045607162035
0.0065                    0.0045                   311.35102301816454
0.0065                    0.0055                   310.1703892714322
0.0065                    0.0065                   308.8957591528775
0.0065                    0.0075                   307.49528320916266
0.0065                    0.0085                   305.49800981854247
0.0065                    0.0095                   303.27649002807664
0.0065                    0.0105                   300.5416249376594
0.0065                    0.0115                   297.9987118664559