% Model:              SIMBench260525.mph
% Version:            COMSOL 6.2.0.339
% Date:               May 27 2026, 17:40
% Dimension:          2
% Nodes:              4096
% Expressions:        1
% Description:        温度
% Length unit:        m
% x                       y                        T (K)
5.0E-4                    -0.0315                  374.94937698122703
5.0E-4                    -0.0305                  373.13463257195383
5.0E-4                    -0.0295                  371.3165830906667
5.0E-4                    -0.0285                  367.7615719894336
5.0E-4                    -0.0275                  364.25581466038744
5.0E-4                    -0.0265                  360.7765383900129
5.0E-4                    -0.0255                  357.79435705698506
5.0E-4                    -0.0245                  355.0724356834867
5.0E-4                    -0.0235                  352.8673109122472
5.0E-4                    -0.0225                  351.2010116089931
5.0E-4                    -0.0215                  349.4920595038038
5.0E-4                    -0.0205                  348.42641193094454
5.0E-4                    -0.0195                  347.17549188354076
5.0E-4                    -0.0185                  345.92457183613703
5.0E-4                    -0.0175                  345.22024555502446
5.0E-4                    -0.0165                  344.152511331467
5.0E-4                    -0.0155                  343.08604638507904
5.0E-4                    -0.0145                  342.0184948667575
5.0E-4                    -0.0135                  340.6229639551092
5.0E-4                    -0.0125                  339.0862064542505
5.0E-4                    -0.0115                  335.7728876154164
5.0E-4                    -0.0105                  331.6491357090332
5.0E-4                    -0.0095                  327.4472658562714
5.0E-4                    -0.0085                  319.6441634836151
5.0E-4                    -0.0075                  310.983341176771
5.0E-4                    -0.0065                  304.0067641147426
5.0E-4                    -0.0055                  302.2882013650394
5.0E-4                    -0.0045                  300.56963861533615
5.0E-4                    -0.0035                  296.80853547967195
5.0E-4                    -0.0025                  295.1218545294382
5.0E-4                    -0.0015                  293.5328935419727
5.0E-4                    -5.0E-4                  293.11094108931036
5.0E-4                    5.0E-4                   293.10507956698416
5.0E-4                    0.0015                   293.3426036763893
5.0E-4                    0.0025                   294.32297505134943
5.0E-4                    0.0035                   295.36824556816947
5.0E-4                    0.0045                   297.7964072601857
5.0E-4                    0.0055                   298.8595255419898
5.0E-4                    0.0065                   299.92264382379386
5.0E-4                    0.0075                   306.0480385468376
5.0E-4                    0.0085                   313.35851068810956
5.0E-4                    0.0095                   319.8126154672177
5.0E-4                    0.0105                   324.192336067708
5.0E-4                    0.0115                   329.44342152080617
5.0E-4                    0.0125                   333.6568406693605
5.0E-4                    0.0135                   335.0679909412801
5.0E-4                    0.0145                   336.16978480947154
5.0E-4                    0.0155                   337.3803222873275
5.0E-4                    0.0165                   338.2635232371599
5.0E-4                    0.0175                   339.14672418699234
5.0E-4                    0.0185                   340.03378447521334
5.0E-4                    0.0195                   340.9754445765715
5.0E-4                    0.0205                   341.91362493940653
5.0E-4                    0.0215                   342.8225261384163
5.0E-4                    0.0225                   343.9905487744186
5.0E-4                    0.0235                   345.12796090246655
5.0E-4                    0.0245                   346.8131160393977
5.0E-4                    0.0255                   348.85809062474414
5.0E-4                    0.0265                   350.9851269661951
5.0E-4                    0.0275                   353.95552346765425
5.0E-4                    0.0285                   357.06748390614524
5.0E-4                    0.0295                   360.32931433334056
5.0E-4                    0.0305                   362.0771665082543
5.0E-4                    0.0315                   363.8250186831679
0.0015                    -0.0315                  374.3332861304976
0.0015                    -0.0305                  372.90617357165274
0.0015                    -0.0295                  370.30275623598095
0.0015                    -0.0285                  366.5185771134404
0.0015                    -0.0275                  362.9261386230988
0.0015                    -0.0265                  359.52383381458475
0.0015                    -0.0255                  356.1538904090902
0.0015                    -0.0245                  353.5054396370652
0.0015                    -0.0235                  352.0142842679864
0.0015                    -0.0225                  350.47684991582514
0.0015                    -0.0215                  349.0088223259816
0.0015                    -0.0205                  348.3573307499687
0.0015                    -0.0195                  347.46312002036154
0.0015                    -0.0185                  346.5654910139322
0.0015                    -0.0175                  346.16098189611967
0.0015                    -0.0165                  345.3501411770238
0.0015                    -0.0155                  344.41894645169475
0.0015                    -0.0145                  343.5724316726702
0.0015                    -0.0135                  342.2824131288042
0.0015                    -0.0125                  340.3251937870381
0.0015                    -0.0115                  338.22510554684186
0.0015                    -0.0105                  334.09906681551075
0.0015                    -0.0095                  329.78192573063745
0.0015                    -0.0085                  324.56299947075104
0.0015                    -0.0075                  316.4854574684205
0.0015                    -0.0065                  310.583314154321
0.0015                    -0.0055                  306.4101721075222
0.0015                    -0.0045                  303.2338832398604
0.0015                    -0.0035                  298.0143415153384
0.0015                    -0.0025                  295.12686270052944
0.0015                    -0.0015                  293.9879436301373
0.0015                    -5.0E-4                  293.06506865451394
0.0015                    5.0E-4                   293.0508376407831
0.0015                    0.0015                   293.5796797684465
0.0015                    0.0025                   294.25811006330116
0.0015                    0.0035                   296.12329885375635
0.0015                    0.0045                   299.5344683029575
0.0015                    0.0055                   301.54259513934977
0.0015                    0.0065                   305.15952604186845
0.0015                    0.0075                   310.49680285631723
0.0015                    0.0085                   317.4198377646937
0.0015                    0.0095                   321.3107862579516
0.0015                    0.0105                   324.3863213771142
0.0015                    0.0115                   329.6067619464437
0.0015                    0.0125                   332.2892190413229
0.0015                    0.0135                   334.63521476603637
0.0015                    0.0145                   335.77799164881066
0.0015                    0.0155                   337.0629777073274
0.0015                    0.0165                   338.1793900322608
0.0015                    0.0175                   339.05649469034785
0.0015                    0.0185                   339.92564295953645
0.0015                    0.0195                   340.8405708969236
0.0015                    0.0205                   341.63796761192435
0.0015                    0.0215                   342.35658742863575
0.0015                    0.0225                   343.466290264526
0.0015                    0.0235                   344.51550423859373
0.0015                    0.0245                   345.6833880066347
0.0015                    0.0255                   347.7534786968962
0.0015                    0.0265                   349.98267758507484
0.0015                    0.0275                   352.4933939024077
0.0015                    0.0285                   355.6683492793383
0.0015                    0.0295                   359.2035435732563
0.0015                    0.0305                   361.7332418785629
0.0015                    0.0315                   363.21029380301667
0.0025                    -0.0315                  373.71719527976813
0.0025                    -0.0305                  371.94993364856236
0.0025                    -0.0295                  369.2294709551088
0.0025                    -0.0285                  365.43221135362865
0.0025                    -0.0275                  361.6364995001148
0.0025                    -0.0265                  358.2541546569547
0.0025                    -0.0255                  354.87180981379464
0.0025                    -0.0245                  352.90116792626634
0.0025                    -0.0235                  351.3990110649321
0.0025                    -0.0225                  349.8968542035979
0.0025                    -0.0215                  349.3090786966494
0.0025                    -0.0205                  348.654991930356
0.0025                    -0.0195                  348.0353821582511
0.0025                    -0.0185                  347.8138769425832
0.0025                    -0.0175                  347.4003675282928
0.0025                    -0.0165                  346.96237755975073
0.0025                    -0.0155                  346.11743298786917
0.0025                    -0.0145                  345.2724884159877
0.0025                    -0.0135                  343.68525405242383
0.0025                    -0.0125                  341.59954220657437
0.0025                    -0.0115                  339.5138303607248
0.0025                    -0.0105                  335.89644535042294
0.0025                    -0.0095                  331.58056377183823
0.0025                    -0.0085                  327.2646821932536
0.0025                    -0.0075                  322.1370487768229
0.0025                    -0.0065                  316.23676970544693
0.0025                    -0.0055                  310.3207602990672
0.0025                    -0.0045                  304.8745607057755
0.0025                    -0.0035                  299.64867848081394
0.0025                    -0.0025                  295.25631572514953
0.0025                    -0.0015                  294.33251014240847
0.0025                    -5.0E-4                  293.4087045596674
0.0025                    5.0E-4                   293.2199941395827
0.0025                    0.0015                   293.749431304321
0.0025                    0.0025                   294.2788684690593
0.0025                    0.0035                   297.1069233256301
0.0025                    0.0045                   300.52568437162506
0.0025                    0.0055                   304.25291046281893
0.0025                    0.0065                   309.5876907552642
0.0025                    0.0075                   314.9236579616315
0.0025                    0.0085                   319.1539335985116
0.0025                    0.0095                   322.2064449632671
0.0025                    0.0105                   325.2589563280225
0.0025                    0.0115                   328.14960808398536
0.0025                    0.0125                   330.8304578487762
0.0025                    0.0135                   333.51130761356694
0.0025                    0.0145                   335.59508701525965
0.0025                    0.0155                   336.8812488866353
0.0025                    0.0165                   338.21671556434916
0.0025                    0.0175                   339.30317628704415
0.0025                    0.0185                   340.17333875245646
0.0025                    0.0195                   341.00122121816224
0.0025                    0.0205                   341.7154748031901
0.0025                    0.0215                   342.429728388218
0.0025                    0.0225                   343.10465846182694
0.0025                    0.0235                   344.133168992163
0.0025                    0.0245                   345.16167952249896
0.0025                    0.0255                   346.83008028735264
0.0025                    0.0265                   348.9996817663782
0.0025                    0.0275                   351.209427092133
0.0025                    0.0285                   354.4934825869151
0.0025                    0.0295                   358.1359874824674
0.0025                    0.0305                   361.01403305122045
0.0025                    0.0315                   362.58363837533847
0.0035                    -0.0315                  372.5783347896729
0.0035                    -0.0305                  370.47065357812187
0.0035                    -0.0295                  368.21131483015455
0.0035                    -0.0285                  364.4013915455791
0.0035                    -0.0275                  360.5577981152959
0.0035                    -0.0265                  356.9442786119623
0.0035                    -0.0255                  354.24916590703435
0.0035                    -0.0245                  353.1772753880529
0.0035                    -0.0235                  351.74664824561074
0.0035                    -0.0225                  351.01003946214695
0.0035                    -0.0215                  351.235980285113
0.0035                    -0.0205                  350.5818935188196
0.0035                    -0.0195                  350.71162221477346
0.0035                    -0.0185                  351.08913670014715
0.0035                    -0.0175                  350.67562728585676
0.0035                    -0.0165                  350.19783345443886
0.0035                    -0.0155                  349.55879718593184
0.0035                    -0.0145                  348.6332840949479
0.0035                    -0.0135                  345.5200640129487
0.0035                    -0.0125                  343.0420432545451
0.0035                    -0.0115                  340.27701650305653
0.0035                    -0.0105                  335.24695738888227
0.0035                    -0.0095                  330.8012759624592
0.0035                    -0.0085                  326.8176057944258
0.0035                    -0.0075                  323.22672289974685
0.0035                    -0.0065                  317.3264438283708
0.0035                    -0.0055                  311.0560141257166
0.0035                    -0.0045                  304.885322761526
0.0035                    -0.0035                  299.6594405365645
0.0035                    -0.0025                  296.21992169409623
0.0035                    -0.0015                  294.1780127376828
0.0035                    -5.0E-4                  293.40059563555445
0.0035                    5.0E-4                   293.2175813115026
0.0035                    0.0015                   293.61482244647664
0.0035                    0.0025                   294.7677156388921
0.0035                    0.0035                   296.7430538752469
0.0035                    0.0045                   300.16181492124196
0.0035                    0.0055                   304.81812093515856
0.0035                    0.0065                   309.9617800381952
0.0035                    0.0075                   315.2775602889437
0.0035                    0.0085                   317.44319972219273
0.0035                    0.0095                   320.15047504321853
0.0035                    0.0105                   323.19408085699706
0.0035                    0.0115                   326.20684936690327
0.0035                    0.0125                   328.94702258046954
0.0035                    0.0135                   332.18716847336725
0.0035                    0.0145                   336.0290707069455
0.0035                    0.0155                   337.3152325783211
0.0035                    0.0165                   339.19875832630447
0.0035                    0.0175                   341.04060909208164
0.0035                    0.0185                   341.91077155749394
0.0035                    0.0195                   342.6438284699212
0.0035                    0.0205                   343.3601999975927
0.0035                    0.0215                   343.96519757054193
0.0035                    0.0225                   344.0011910344543
0.0035                    0.0235                   344.833365483962
0.0035                    0.0245                   345.57693471949335
0.0035                    0.0255                   346.53809942279133
0.0035                    0.0265                   348.70770090181696
0.0035                    0.0275                   350.68799461916365
0.0035                    0.0285                   353.80263704191697
0.0035                    0.0295                   357.3509965590174
0.0035                    0.0305                   360.0243954653278
0.0035                    0.0315                   361.76192502960185
0.0045                    -0.0315                  371.856381037171
0.0045                    -0.0305                  369.50883990168927
0.0045                    -0.0295                  367.1771627656954
0.0045                    -0.0285                  363.3593129282116
0.0045                    -0.0275                  359.5055689276693
0.0045                    -0.0265                  355.6619754973861
0.0045                    -0.0255                  354.33776614594035
0.0045                    -0.0245                  353.2658756269589
0.0045                    -0.0235                  352.162051902375
0.0045                    -0.0225                  352.3965856348251
0.0045                    -0.0215                  352.6311193672752
0.0045                    -0.0205                  352.8040263296112
0.0045                    -0.0195                  353.38786227129594
0.0045                    -0.0185                  353.97169821298075
0.0045                    -0.0175                  353.91636512769054
0.0045                    -0.0165                  353.4263099969715
0.0045                    -0.0155                  352.93625486625245
0.0045                    -0.0145                  350.68697345392707
0.0045                    -0.0135                  347.5737533719279
0.0045                    -0.0125                  344.4845443025159
0.0045                    -0.0115                  339.92184793811845
0.0045                    -0.0105                  334.8917888239442
0.0045                    -0.0095                  330.0515631310573
0.0045                    -0.0085                  326.51048782581415
0.0045                    -0.0075                  322.9694125205711
0.0045                    -0.0065                  318.27304759846675
0.0045                    -0.0055                  311.79126795236596
0.0045                    -0.0045                  305.30948830626517
0.0045                    -0.0035                  300.6603592056229
0.0045                    -0.0025                  297.409334779515
0.0045                    -0.0015                  294.1583103534071
0.0045                    -5.0E-4                  293.680663451123
0.0045                    5.0E-4                   293.4976491270712
0.0045                    0.0015                   293.57565920610546
0.0045                    0.0025                   295.36505048188945
0.0045                    0.0035                   297.15444175767345
0.0045                    0.0045                   300.3662588429231
0.0045                    0.0055                   305.3833314074982
0.0045                    0.0065                   310.40040397207315
0.0045                    0.0075                   313.7498766887919
0.0045                    0.0085                   315.91551612204097
0.0045                    0.0095                   318.09450512317
0.0045                    0.0105                   321.1140765762332
0.0045                    0.0115                   324.12684508613944
0.0045                    0.0125                   327.1342279590946
0.0045                    0.0135                   331.0651484286522
0.0045                    0.0145                   334.99606889820984
0.0045                    0.0155                   338.00895787863624
0.0045                    0.0165                   340.1808010882598
0.0045                    0.0175                   342.35264429788333
0.0045                    0.0185                   343.5677738803043
0.0045                    0.0195                   344.28620451434256
0.0045                    0.0205                   345.0046351483809
0.0045                    0.0215                   345.1822143886418
0.0045                    0.0225                   345.2182078525541
0.0045                    0.0235                   345.45162887693397
0.0045                    0.0245                   345.8862636748277
0.0045                    0.0255                   346.3439501299373
0.0045                    0.0265                   348.1877381725352
0.0045                    0.0275                   350.13191736833056
0.0045                    0.0285                   353.3483078284611
0.0045                    0.0295                   356.7123526939335
0.0045                    0.0305                   359.2805776149348
0.0045                    0.0315                   361.26350688141645
0.0055                    -0.0315                  371.1344272846692
0.0055                    -0.0305                  368.98667377969264
0.0055                    -0.0295                  366.7423193104627
0.0055                    -0.0285                  362.65473143544546
0.0055                    -0.0275                  358.8008624828681
0.0055                    -0.0265                  356.1650188346447
0.0055                    -0.0255                  354.84897758995686
0.0055                    -0.0245                  353.75605818547444
0.0055                    -0.0235                  353.79762334470144
0.0055                    -0.0225                  354.2556343337449
0.0055                    -0.0215                  354.4953283163952
0.0055                    -0.0205                  355.6511564960314
0.0055                    -0.0195                  356.3948611625167
0.0055                    -0.0185                  356.9519035739507
0.0055                    -0.0175                  357.02958215597346
0.0055                    -0.0165                  356.5402080383575
0.0055                    -0.0155                  355.23607512037285
0.0055                    -0.0145                  351.7769374753887
0.0055                    -0.0135                  348.66717612629446
0.0055                    -0.0125                  343.8002146418932
0.0055                    -0.0115                  337.6718353462632
0.0055                    -0.0105                  332.64472361446064
0.0055                    -0.0095                  328.0725287417097
0.0055                    -0.0085                  324.2421807434811
0.0055                    -0.0075                  320.6990713920563
0.0055                    -0.0065                  318.1374735102071
0.0055                    -0.0055                  312.2919217864094
0.0055                    -0.0045                  305.8968456969178
0.0055                    -0.0035                  300.48984033028876
0.0055                    -0.0025                  297.2337053296138
0.0055                    -0.0015                  294.6520529416085
0.0055                    -5.0E-4                  293.65192896931694
0.0055                    5.0E-4                   293.468796990005
0.0055                    0.0015                   293.74767528369176
0.0055                    0.0025                   295.0915517431081
0.0055                    0.0035                   296.8843971274805
0.0055                    0.0045                   300.20940166923185
0.0055                    0.0055                   305.12801993730557
0.0055                    0.0065                   309.63129053251305
0.0055                    0.0075                   312.01888608080543
0.0055                    0.0085                   314.18413692712517
0.0055                    0.0095                   316.03146095761616
0.0055                    0.0105                   318.12494084603145
0.0055                    0.0115                   321.13327302707864
0.0055                    0.0125                   324.71949145782185
0.0055                    0.0135                   328.6264446568294
0.0055                    0.0145                   332.54765385812857
0.0055                    0.0155                   337.66250269343357
0.0055                    0.0165                   340.2699196503414
0.0055                    0.0175                   342.6101712311396
0.0055                    0.0185                   345.66238455017947
0.0055                    0.0195                   346.3812215678526
0.0055                    0.0205                   346.98088583569006
0.0055                    0.0215                   347.2588223543519
0.0055                    0.0225                   347.29285950902573
0.0055                    0.0235                   346.74815047868435
0.0055                    0.0245                   346.85433851025965
0.0055                    0.0255                   347.44710735357853
0.0055                    0.0265                   348.3293597150074
0.0055                    0.0275                   349.5758401174975
0.0055                    0.0285                   352.921352500119
0.0055                    0.0295                   356.3339288798577
0.0055                    0.0305                   358.8011237502649
0.0055                    0.0315                   360.76562841678094
0.0065                    -0.0315                  370.8343277065898
0.0065                    -0.0305                  368.6672126308325
0.0065                    -0.0295                  366.2509435876706
0.0065                    -0.0285                  362.15433578678676
0.0065                    -0.0275                  358.4033566132912
0.0065                    -0.0265                  356.9085927510558
0.0065                    -0.0255                  355.4138288888204
0.0065                    -0.0245                  354.6002550350179
0.0065                    -0.0235                  355.39128539126705
0.0065                    -0.0225                  356.18231574751604
0.0065                    -0.0215                  356.8986824943492
0.0065                    -0.0205                  358.243591376367
0.0065                    -0.0195                  359.4519133333412
0.0065                    -0.0185                  359.70712662881476
0.0065                    -0.0175                  359.7914856779647
0.0065                    -0.0165                  359.6360741027364
0.0065                    -0.0155                  356.4303786645797
0.0065                    -0.0145                  352.86850550518625
0.0065                    -0.0135                  349.31876115683644
0.0065                    -0.0125                  342.35533852549185
0.0065                    -0.0115                  335.39191589414725
0.0065                    -0.0105                  330.23660688276146
0.0065                    -0.0095                  325.9104196270852
0.0065                    -0.0085                  321.61749410769244
0.0065                    -0.0075                  318.60780726356546
0.0065                    -0.0065                  316.212009432989
0.0065                    -0.0055                  312.7516781311934
0.0065                    -0.0045                  306.8747628232475
0.0065                    -0.0035                  301.25496122476113
0.0065                    -0.0025                  296.83723217513227
0.0065                    -0.0015                  295.3184034704354
0.0065                    -5.0E-4                  293.8551213282676
0.0065                    5.0E-4                   293.5673069484862
0.0065                    0.0015                   294.08060069127555
0.0065                    0.0025                   294.6778833470459
0.0065                    0.0035                   297.3360564122758
0.0065                    0.0045                   300.75246742221077
0.0065                    0.0055                   304.7254126657103
0.0065                    0.0065                   307.69618727618405
0.0065                    0.0075                   310.13988938634867
0.0065                    0.0085                   312.38929076299553
0.0065                    0.0095                   313.81848472308053
0.0065                    0.0105                   315.24767868316553