% Model:              SIMBench260525.mph
% Version:            COMSOL 6.2.0.339
% Date:               May 27 2026, 17:19
% Dimension:          2
% Nodes:              4096
% Expressions:        1
% Description:        温度
% Length unit:        m
% x                       y                        T (K)
5.0E-4                    -0.0315                  347.0903490587357
5.0E-4                    -0.0305                  345.46357826257156
5.0E-4                    -0.0295                  343.8250484791909
5.0E-4                    -0.0285                  340.6699439082073
5.0E-4                    -0.0275                  337.2767175138279
5.0E-4                    -0.0265                  333.8834911194486
5.0E-4                    -0.0255                  330.370644580329
5.0E-4                    -0.0245                  327.3840362230285
5.0E-4                    -0.0235                  324.43511696510967
5.0E-4                    -0.0225                  322.6344730364679
5.0E-4                    -0.0215                  320.9658213118717
5.0E-4                    -0.0205                  319.38182765823854
5.0E-4                    -0.0195                  318.5358768095466
5.0E-4                    -0.0185                  317.6205136995517
5.0E-4                    -0.0175                  316.7897818123259
5.0E-4                    -0.0165                  316.2799343341405
5.0E-4                    -0.0155                  315.6546323234513
5.0E-4                    -0.0145                  315.1144129411411
5.0E-4                    -0.0135                  314.73408033554165
5.0E-4                    -0.0125                  314.25930035240185
5.0E-4                    -0.0115                  313.8722195172267
5.0E-4                    -0.0105                  313.54947522094886
5.0E-4                    -0.0095                  313.1465394331022
5.0E-4                    -0.0085                  312.8453722594413
5.0E-4                    -0.0075                  312.5587893779456
5.0E-4                    -0.0065                  312.205092447017
5.0E-4                    -0.0055                  311.96452433780746
5.0E-4                    -0.0045                  311.67567894333854
5.0E-4                    -0.0035                  311.3316685013208
5.0E-4                    -0.0025                  311.0824813875065
5.0E-4                    -0.0015                  310.7039098983108
5.0E-4                    -5.0E-4                  310.2870857543194
5.0E-4                    5.0E-4                   309.90030896374776
5.0E-4                    0.0015                   309.06635160210203
5.0E-4                    0.0025                   308.19447695751654
5.0E-4                    0.0035                   307.34093493206785
5.0E-4                    0.0045                   304.8828018453782
5.0E-4                    0.0055                   302.41028667527064
5.0E-4                    0.0065                   300.55363157374495
5.0E-4                    0.0075                   298.8226403093231
5.0E-4                    0.0085                   297.09164904490126
5.0E-4                    0.0095                   295.58676123611747
5.0E-4                    0.0105                   295.7534000504859
5.0E-4                    0.0115                   295.92003886485435
5.0E-4                    0.0125                   294.6321601375801
5.0E-4                    0.0135                   293.9435298406878
5.0E-4                    0.0145                   293.29862748746655
5.0E-4                    0.0155                   293.1357695357625
5.0E-4                    0.0165                   293.1322221493181
5.0E-4                    0.0175                   293.20754892999315
5.0E-4                    0.0185                   293.49186610959526
5.0E-4                    0.0195                   293.79246209633317
5.0E-4                    0.0205                   294.30651601700373
5.0E-4                    0.0215                   294.276257958216
5.0E-4                    0.0225                   294.2459998994282
5.0E-4                    0.0235                   294.66083708552117
5.0E-4                    0.0245                   295.109573901525
5.0E-4                    0.0255                   295.5583107175288
5.0E-4                    0.0265                   296.1367923883583
5.0E-4                    0.0275                   297.0181860319954
5.0E-4                    0.0285                   297.89957967563254
5.0E-4                    0.0295                   298.78023179504925
5.0E-4                    0.0305                   300.19862083455445
5.0E-4                    0.0315                   301.6170098740596
0.0015                    -0.0315                  346.13384282123195
0.0015                    -0.0305                  344.939086919933
0.0015                    -0.0295                  342.7274906304722
0.0015                    -0.0285                  339.19850922816613
0.0015                    -0.0275                  335.74300971676485
0.0015                    -0.0265                  332.10265101611265
0.0015                    -0.0255                  328.32713583659597
0.0015                    -0.0245                  325.09603862285184
0.0015                    -0.0235                  322.8813720744983
0.0015                    -0.0225                  320.99288790186733
0.0015                    -0.0215                  319.2799914819899
0.0015                    -0.0205                  318.2774941424585
0.0015                    -0.0195                  317.4920856439534
0.0015                    -0.0185                  316.5943592210156
0.0015                    -0.0175                  316.1117905907731
0.0015                    -0.0165                  315.7331299151134
0.0015                    -0.0155                  315.1253363885629
0.0015                    -0.0145                  314.8323893638366
0.0015                    -0.0135                  314.5926228572777
0.0015                    -0.0125                  314.119168834862
0.0015                    -0.0115                  313.92807864198005
0.0015                    -0.0105                  313.7499145954956
0.0015                    -0.0095                  313.34697880764895
0.0015                    -0.0085                  313.22967106525726
0.0015                    -0.0075                  313.0937114892682
0.0015                    -0.0065                  312.74761034575863
0.0015                    -0.0055                  312.67040564627837
0.0015                    -0.0045                  312.54525149541473
0.0015                    -0.0035                  312.21949961903897
0.0015                    -0.0025                  312.0751477412476
0.0015                    -0.0015                  311.8639056503771
0.0015                    -5.0E-4                  311.45575974569346
0.0015                    5.0E-4                   311.09447911598727
0.0015                    0.0015                   310.5746335271647
0.0015                    0.0025                   309.7094372881798
0.0015                    0.0035                   308.8677623009754
0.0015                    0.0045                   307.4168974908635
0.0015                    0.0055                   305.21276030478793
0.0015                    0.0065                   303.6705424171237
0.0015                    0.0075                   302.0446718944693
0.0015                    0.0085                   300.29662210140515
0.0015                    0.0095                   298.51893412525146
0.0015                    0.0105                   297.78302581195675
0.0015                    0.0115                   296.95935359904877
0.0015                    0.0125                   294.98381866426007
0.0015                    0.0135                   293.919389630134
0.0015                    0.0145                   293.4709253367089
0.0015                    0.0155                   293.10924155717976
0.0015                    0.0165                   293.10984360040646
0.0015                    0.0175                   293.28033863897804
0.0015                    0.0185                   293.4887312215863
0.0015                    0.0195                   293.92748175369775
0.0015                    0.0205                   294.68228735039105
0.0015                    0.0215                   295.0308929835981
0.0015                    0.0225                   295.2066911972762
0.0015                    0.0235                   295.7777470913236
0.0015                    0.0245                   296.2754045418768
0.0015                    0.0255                   296.75168089588533
0.0015                    0.0265                   297.2666869777682
0.0015                    0.0275                   298.0108495543653
0.0015                    0.0285                   298.82332439368054
0.0015                    0.0295                   299.4781591994507
0.0015                    0.0305                   300.65280591261546
0.0015                    0.0315                   302.11353987878135
0.0025                    -0.0315                  345.17733658372833
0.0025                    -0.0305                  343.4322275601321
0.0025                    -0.0295                  340.9159312653029
0.0025                    -0.0285                  337.4620824953928
0.0025                    -0.0275                  333.7164789132867
0.0025                    -0.0265                  329.9277843102749
0.0025                    -0.0255                  326.1972341540405
0.0025                    -0.0245                  323.2326593027952
0.0025                    -0.0235                  321.3425078653037
0.0025                    -0.0225                  319.4523564278122
0.0025                    -0.0215                  318.0655998456627
0.0025                    -0.0205                  317.2766159704582
0.0025                    -0.0195                  316.4876320952537
0.0025                    -0.0185                  315.92293744416224
0.0025                    -0.0175                  315.5414733255491
0.0025                    -0.0165                  315.1600092069359
0.0025                    -0.0155                  314.8889370620798
0.0025                    -0.0145                  314.6464556282569
0.0025                    -0.0135                  314.403974194434
0.0025                    -0.0125                  314.250964904463
0.0025                    -0.0115                  314.08230911957145
0.0025                    -0.0105                  313.91365333467985
0.0025                    -0.0095                  313.8176448208314
0.0025                    -0.0085                  313.7087969528319
0.0025                    -0.0075                  313.59994908483236
0.0025                    -0.0065                  313.5236376172927
0.0025                    -0.0055                  313.4461388063278
0.0025                    -0.0045                  313.36863999536286
0.0025                    -0.0035                  313.22457113772214
0.0025                    -0.0025                  313.0801725071923
0.0025                    -0.0015                  312.9357738766625
0.0025                    -5.0E-4                  312.60004798028103
0.0025                    5.0E-4                   312.238797589816
0.0025                    0.0015                   311.87754719935083
0.0025                    0.0025                   311.14156235410337
0.0025                    0.0035                   310.29831508880557
0.0025                    0.0045                   309.4550678235077
0.0025                    0.0055                   308.1063178748905
0.0025                    0.0065                   306.55858495796826
0.0025                    0.0075                   305.0108520410459
0.0025                    0.0085                   303.28811613302713
0.0025                    0.0095                   301.5074809672521
0.0025                    0.0105                   299.57111577505697
0.0025                    0.0115                   297.52041064718424
0.0025                    0.0125                   295.54399264470817
0.0025                    0.0135                   293.96981226693526
0.0025                    0.0145                   293.6080235769597
0.0025                    0.0155                   293.24623488698404
0.0025                    0.0165                   293.16836836020906
0.0025                    0.0175                   293.33965043
0.0025                    0.0185                   293.5109324997909
0.0025                    0.0195                   294.145194753033
0.0025                    0.0205                   294.9068470438414
0.0025                    0.0215                   295.6684993346497
0.0025                    0.0225                   296.2779922580621
0.0025                    0.0235                   296.85224221575436
0.0025                    0.0245                   297.42800475532584
0.0025                    0.0255                   297.9579609835334
0.0025                    0.0265                   298.4729670654162
0.0025                    0.0275                   299.0035130767352
0.0025                    0.0285                   299.6857679723349
0.0025                    0.0295                   300.3091016722565
0.0025                    0.0305                   301.2479351870647
0.0025                    0.0315                   302.61092560765985
0.0035                    -0.0315                  343.18338962004066
0.0035                    -0.0305                  340.96875070605216
0.0035                    -0.0295                  338.8097221145815
0.0035                    -0.0285                  335.1946986897648
0.0035                    -0.0275                  330.96356820610725
0.0035                    -0.0265                  326.87101033421465
0.0035                    -0.0255                  323.2550236756972
0.0035                    -0.0245                  321.61931108525954
0.0035                    -0.0235                  319.85942148222665
0.0035                    -0.0225                  318.04266080726256
0.0035                    -0.0215                  317.4950724851762
0.0035                    -0.0205                  316.80634718156597
0.0035                    -0.0195                  316.0807366337771
0.0035                    -0.0185                  315.8993802273182
0.0035                    -0.0175                  315.5878630131417
0.0035                    -0.0165                  315.2584561526173
0.0035                    -0.0155                  315.2432044810674
0.0035                    -0.0145                  315.0656632066798
0.0035                    -0.0135                  314.8904492437771
0.0035                    -0.0125                  315.02082078893034
0.0035                    -0.0115                  314.9194417797291
0.0035                    -0.0105                  314.8179679622945
0.0035                    -0.0095                  314.9586755679909
0.0035                    -0.0085                  314.89251740341336
0.0035                    -0.0075                  314.81492571652194
0.0035                    -0.0065                  314.8226149218238
0.0035                    -0.0055                  314.7545744165867
0.0035                    -0.0045                  314.61090865855846
0.0035                    -0.0035                  314.3315173131855
0.0035                    -0.0025                  314.18072403470046
0.0035                    -0.0015                  313.88506299305647
0.0035                    -5.0E-4                  313.35642827697745
0.0035                    5.0E-4                   312.99517788651235
0.0035                    0.0015                   312.5058204886925
0.0035                    0.0025                   311.8466808443068
0.0035                    0.0035                   311.0034335790089
0.0035                    0.0045                   310.2582774912022
0.0035                    0.0055                   309.47286354325695
0.0035                    0.0065                   307.92513062633464
0.0035                    0.0075                   306.4491664271234
0.0035                    0.0085                   304.93571253014056
0.0035                    0.0095                   303.1550773643655
0.0035                    0.0105                   300.25861370787413
0.0035                    0.0115                   297.47966154354424
0.0035                    0.0125                   295.5032435410682
0.0035                    0.0135                   294.21857453382387
0.0035                    0.0145                   293.5256296463513
0.0035                    0.0155                   293.22582423697145
0.0035                    0.0165                   293.1628523102249
0.0035                    0.0175                   293.3067307327396
0.0035                    0.0185                   293.62269280429274
0.0035                    0.0195                   294.1492603532484
0.0035                    0.0205                   294.9109126440568
0.0035                    0.0215                   295.798876221276
0.0035                    0.0225                   296.67780375812237
0.0035                    0.0235                   297.25205371581455
0.0035                    0.0245                   297.8605511368325
0.0035                    0.0255                   298.46836455831124
0.0035                    0.0265                   299.03121524311575
0.0035                    0.0275                   299.3988561940499
0.0035                    0.0285                   300.3600965755008
0.0035                    0.0295                   301.0652924124861
0.0035                    0.0305                   302.06693581386287
0.0035                    0.0315                   303.2093526985266
0.0045                    -0.0315                  341.49901513800836
0.0045                    -0.0305                  339.08958570969344
0.0045                    -0.0295                  336.66557750522054
0.0045                    -0.0285                  332.4984388442898
0.0045                    -0.0275                  328.25329194609344
0.0045                    -0.0265                  324.0081450478971
0.0045                    -0.0255                  321.62335660588764
0.0045                    -0.0245                  319.98764401544986
0.0045                    -0.0235                  318.3519314250122
0.0045                    -0.0225                  317.42479865789016
0.0045                    -0.0215                  316.87721033580374
0.0045                    -0.0205                  316.3296220137174
0.0045                    -0.0195                  316.0048958338806
0.0045                    -0.0185                  315.8235394274216
0.0045                    -0.0175                  315.63425270073435
0.0045                    -0.0165                  315.53887299170805
0.0045                    -0.0155                  315.5236213201581
0.0045                    -0.0145                  315.4848707851027
0.0045                    -0.0135                  315.5439157820949
0.0045                    -0.0125                  315.6742873272481
0.0045                    -0.0115                  315.7565744398868
0.0045                    -0.0105                  315.8488187289993
0.0045                    -0.0095                  315.9895263346956
0.0045                    -0.0085                  316.07623785399477
0.0045                    -0.0075                  316.0711313256954
0.0045                    -0.0065                  316.0788205309972
0.0045                    -0.0055                  316.0630100268457
0.0045                    -0.0045                  315.794286374851
0.0045                    -0.0035                  315.514895029478
0.0045                    -0.0025                  315.27767485994696
0.0045                    -0.0015                  314.7460211763655
0.0045                    -5.0E-4                  314.214367492784
0.0045                    5.0E-4                   313.7307154293761
0.0045                    0.0015                   313.08785519021075
0.0045                    0.0025                   312.4449949510454
0.0045                    0.0035                   311.73481387143073
0.0045                    0.0045                   311.0796450888951
0.0045                    0.0055                   310.42447630635945
0.0045                    0.0065                   309.31871946350896
0.0045                    0.0075                   307.8890623257473
0.0045                    0.0085                   306.4594051879857
0.0045                    0.0095                   304.2432624275511
0.0045                    0.0105                   300.94611164069124
0.0045                    0.0115                   297.6489608538315
0.0045                    0.0125                   295.8788309225904
0.0045                    0.0135                   294.6253063846913
0.0045                    0.0145                   293.44323571574296
0.0045                    0.0155                   293.3238768493742
0.0045                    0.0165                   293.2609049226276
0.0045                    0.0175                   293.28907272360505
0.0045                    0.0185                   293.78365893425035
0.0045                    0.0195                   294.27824514489566
0.0045                    0.0205                   294.969327715723
0.0045                    0.0215                   295.94928983322353
0.0045                    0.0225                   296.92925195072416
0.0045                    0.0235                   297.6518652158748
0.0045                    0.0245                   298.2929793576411
0.0045                    0.0255                   298.9395663436019
0.0045                    0.0265                   299.31681524764747
0.0045                    0.0275                   299.61807223976626
0.0045                    0.0285                   300.5244612779162
0.0045                    0.0295                   301.5779347768523
0.0045                    0.0305                   302.5074583531249
0.0045                    0.0315                   303.3660775553175
0.0055                    -0.0315                  339.814640655976
0.0055                    -0.0305                  337.3265012379138
0.0055                    -0.0295                  334.80814718036845
0.0055                    -0.0285                  330.256306581291
0.0055                    -0.0275                  325.98268397832106
0.0055                    -0.0265                  322.591691296202
0.0055                    -0.0255                  320.710427743203
0.0055                    -0.0245                  319.0205896914845
0.0055                    -0.0235                  317.6945799470195
0.0055                    -0.0225                  317.23058127378
0.0055                    -0.0215                  316.68168606193325
0.0055                    -0.0205                  316.3295917165203
0.0055                    -0.0195                  316.2234752107236
0.0055                    -0.0185                  316.03816405530654
0.0055                    -0.0175                  316.013736505654
0.0055                    -0.0165                  316.11397011506915
0.0055                    -0.0155                  316.0947633622821
0.0055                    -0.0145                  316.20575420511886
0.0055                    -0.0135                  316.40936682676266
0.0055                    -0.0125                  316.53802271285844
0.0055                    -0.0115                  316.6394752710506
0.0055                    -0.0105                  316.74889657059026
0.0055                    -0.0095                  316.8900986387241
0.0055                    -0.0085                  316.8270559915802
0.0055                    -0.0075                  316.73091046734095
0.0055                    -0.0065                  316.739284440472
0.0055                    -0.0055                  316.4837780065435
0.0055                    -0.0045                  316.14567627363783
0.0055                    -0.0035                  315.866646153331
0.0055                    -0.0025                  315.3950803782079
0.0055                    -0.0015                  314.8490683446
0.0055                    -5.0E-4                  314.3174363867274
0.0055                    5.0E-4                   313.6774831411785
0.0055                    0.0015                   313.0248418609242
0.0055                    0.0025                   312.38137700575226
0.0055                    0.0035                   311.66934273223615
0.0055                    0.0045                   310.99691179252653
0.0055                    0.0055                   310.33456195580584
0.0055                    0.0065                   309.5452341121894
0.0055                    0.0075                   308.14022803690256
0.0055                    0.0085                   306.6989365525588
0.0055                    0.0095                   304.4453537396056
0.0055                    0.0105                   301.14806840994447
0.0055                    0.0115                   297.98803794790473
0.0055                    0.0125                   295.77666348322975
0.0055                    0.0135                   294.5247707500429
0.0055                    0.0145                   293.59012355745915
0.0055                    0.0155                   293.3222502520023
0.0055                    0.0165                   293.25953812945215
0.0055                    0.0175                   293.3468229617192
0.0055                    0.0185                   293.775008926419
0.0055                    0.0195                   294.2685200142282
0.0055                    0.0205                   295.0929491017004
0.0055                    0.0215                   296.0780854485648
0.0055                    0.0225                   297.06322179542923
0.0055                    0.0235                   297.8279330554373
0.0055                    0.0245                   298.254892941619
0.0055                    0.0255                   298.72625433473144
0.0055                    0.0265                   299.2652299301737
0.0055                    0.0275                   299.8107874788423
0.0055                    0.0285                   300.50266509304936
0.0055                    0.0295                   301.2455752008209
0.0055                    0.0305                   302.2984341691806
0.0055                    0.0315                   303.5100727012407
0.0065                    -0.0315                  338.1314500823111
0.0065                    -0.0305                  335.4941286857704
0.0065                    -0.0295                  332.80887024981155
0.0065                    -0.0285                  328.25702965073424
0.0065                    -0.0275                  323.72136840682657
0.0065                    -0.0265                  321.7949936117079
0.0065                    -0.0255                  319.86861881658933
0.0065                    -0.0245                  318.1091120826048
0.0065                    -0.0235                  317.51231183115965
0.0065                    -0.0225                  317.0829453167796
0.0065                    -0.0215                  316.6003126363097
0.0065                    -0.0205                  316.538547911671
0.0065                    -0.0195                  316.4767831870323
0.0065                    -0.0185                  316.35275765548437
0.0065                    -0.0175                  316.54245005476736
0.0065                    -0.0165                  316.73214245405023
0.0065                    -0.0155                  316.77298303192157
0.0065                    -0.0145                  317.0492775407653
0.0065                    -0.0135                  317.32557204960904
0.0065                    -0.0125                  317.46619066350814
0.0065                    -0.0115                  317.5369584677293
0.0065                    -0.0105                  317.6077262719504
0.0065                    -0.0095                  317.68932583718
0.0065                    -0.0085                  317.4333396993532
0.0065                    -0.0075                  317.1773535615265
0.0065                    -0.0065                  317.09412199622847
0.0065                    -0.0055                  316.63951129952665
0.0065                    -0.0045                  316.1939552806835
0.0065                    -0.0035                  315.8375736367637
0.0065                    -0.0025                  315.25334305953055
0.0065                    -0.0015                  314.675137489608
0.0065                    -5.0E-4                  314.0941785719316
0.0065                    5.0E-4                   313.4066664444697
0.0065                    0.0015                   312.72707529883
0.0065                    0.0025                   312.0491982512313
0.0065                    0.0035                   311.31552454634385
0.0065                    0.0045                   310.5998552534041
0.0065                    0.0055                   309.8668616885364
0.0065                    0.0065                   309.0553245728083
0.0065                    0.0075                   308.01984012250267
0.0065                    0.0085                   306.12784382428634
0.0065                    0.0095                   303.95921097517737
0.0065                    0.0105                   301.2076703512699
0.0065                    0.0115                   298.48117727015176