% Model:              SIMBench260525.mph
% Version:            COMSOL 6.2.0.339
% Date:               May 27 2026, 18:07
% Dimension:          2
% Nodes:              4096
% Expressions:        1
% Description:        温度
% Length unit:        m
% x                       y                        T (K)
5.0E-4                    -0.0315                  344.5241804337384
5.0E-4                    -0.0305                  344.1056929413252
5.0E-4                    -0.0295                  343.6794706470744
5.0E-4                    -0.0285                  343.21285545802556
5.0E-4                    -0.0275                  342.74453168913726
5.0E-4                    -0.0265                  342.23942349727025
5.0E-4                    -0.0255                  340.88963931669065
5.0E-4                    -0.0245                  338.940588836887
5.0E-4                    -0.0235                  336.13489193205015
5.0E-4                    -0.0225                  331.04868865547274
5.0E-4                    -0.0215                  326.12985560463414
5.0E-4                    -0.0205                  321.25602084134323
5.0E-4                    -0.0195                  317.04861110675574
5.0E-4                    -0.0185                  313.0174032421505
5.0E-4                    -0.0175                  310.4482561906006
5.0E-4                    -0.0165                  308.70007850103696
5.0E-4                    -0.0155                  306.9063872553948
5.0E-4                    -0.0145                  306.0449309807749
5.0E-4                    -0.0135                  305.20414377879854
5.0E-4                    -0.0125                  304.3633565768221
5.0E-4                    -0.0115                  304.0184984382122
5.0E-4                    -0.0105                  303.487455600324
5.0E-4                    -0.0095                  302.9564127624358
5.0E-4                    -0.0085                  302.85005183352604
5.0E-4                    -0.0075                  302.64474979817015
5.0E-4                    -0.0065                  302.4592289802387
5.0E-4                    -0.0055                  302.41125486679084
5.0E-4                    -0.0045                  302.30322266352925
5.0E-4                    -0.0035                  302.1998921984446
5.0E-4                    -0.0025                  302.0220463345565
5.0E-4                    -0.0015                  301.79055304076996
5.0E-4                    -5.0E-4                  301.5332006797461
5.0E-4                    5.0E-4                   300.85547409169806
5.0E-4                    0.0015                   300.0640845320206
5.0E-4                    0.0025                   299.30979715150494
5.0E-4                    0.0035                   297.97509175171723
5.0E-4                    0.0045                   296.58038568377646
5.0E-4                    0.0055                   295.45015949198
5.0E-4                    0.0065                   295.27095830031624
5.0E-4                    0.0075                   295.0917571086525
5.0E-4                    0.0085                   294.22552076500443
5.0E-4                    0.0095                   293.72674781636505
5.0E-4                    0.0105                   293.2613932062845
5.0E-4                    0.0115                   293.14964735405266
5.0E-4                    0.0125                   293.14454486695274
5.0E-4                    0.0135                   293.14572562742694
5.0E-4                    0.0145                   293.14840005996086
5.0E-4                    0.0155                   293.15032992819124
5.0E-4                    0.0165                   293.1511316679301
5.0E-4                    0.0175                   293.1503279594397
5.0E-4                    0.0185                   293.1492989251316
5.0E-4                    0.0195                   293.1506788768915
5.0E-4                    0.0205                   293.15506584811715
5.0E-4                    0.0215                   293.20589952026626
5.0E-4                    0.0225                   293.41694339421554
5.0E-4                    0.0235                   293.6399392288607
5.0E-4                    0.0245                   294.0290285967297
5.0E-4                    0.0255                   294.2121817692779
5.0E-4                    0.0265                   294.4274320470398
5.0E-4                    0.0275                   294.8373445322907
5.0E-4                    0.0285                   295.2666552611655
5.0E-4                    0.0295                   295.6195754758745
5.0E-4                    0.0305                   295.99992182162805
5.0E-4                    0.0315                   296.381057798753
0.0015                    -0.0315                  342.52286893912554
0.0015                    -0.0305                  342.4842567107877
0.0015                    -0.0295                  342.0638584569643
0.0015                    -0.0285                  341.59023369557815
0.0015                    -0.0275                  341.1196445419069
0.0015                    -0.0265                  340.400866633529
0.0015                    -0.0255                  339.60564083334884
0.0015                    -0.0245                  337.8060682803266
0.0015                    -0.0235                  332.798028591439
0.0015                    -0.0225                  327.4418801443635
0.0015                    -0.0215                  322.52430292021575
0.0015                    -0.0205                  317.7224915258352
0.0015                    -0.0195                  313.0525918327441
0.0015                    -0.0185                  309.45032813785434
0.0015                    -0.0175                  308.18918706186446
0.0015                    -0.0165                  306.7602722714514
0.0015                    -0.0155                  305.3923982360246
0.0015                    -0.0145                  305.0296806435713
0.0015                    -0.0135                  304.4481617457818
0.0015                    -0.0125                  303.91579104007985
0.0015                    -0.0115                  303.78451146419
0.0015                    -0.0105                  303.4135873299522
0.0015                    -0.0095                  303.1753812094829
0.0015                    -0.0085                  303.1579526153308
0.0015                    -0.0075                  303.0014357424995
0.0015                    -0.0065                  302.9470637700706
0.0015                    -0.0055                  302.95546335957334
0.0015                    -0.0045                  302.86127429323244
0.0015                    -0.0035                  302.77022045613734
0.0015                    -0.0025                  302.67915900176376
0.0015                    -0.0015                  302.44766570797725
0.0015                    -5.0E-4                  302.14842963101466
0.0015                    5.0E-4                   301.7681797485309
0.0015                    0.0015                   300.98583520531173
0.0015                    0.0025                   300.2660287103532
0.0015                    0.0035                   299.3405673210071
0.0015                    0.0045                   298.0343157831672
0.0015                    0.0055                   296.9649746216777
0.0015                    0.0065                   296.2971758531256
0.0015                    0.0075                   295.6723520870822
0.0015                    0.0085                   294.4339730481485
0.0015                    0.0095                   293.6984668221816
0.0015                    0.0105                   293.38473613483234
0.0015                    0.0115                   293.14032492303426
0.0015                    0.0125                   293.13506910498666
0.0015                    0.0135                   293.1435800762906
0.0015                    0.0145                   293.14993733845614
0.0015                    0.0155                   293.151515289495
0.0015                    0.0165                   293.1525412168357
0.0015                    0.0175                   293.15234255767257
0.0015                    0.0185                   293.1503075068593
0.0015                    0.0195                   293.14795901112944
0.0015                    0.0205                   293.1616163747342
0.0015                    0.0215                   293.2635556287532
0.0015                    0.0225                   293.4103433877685
0.0015                    0.0235                   293.77000754376894
0.0015                    0.0245                   294.2907763377142
0.0015                    0.0255                   294.57761149137536
0.0015                    0.0265                   294.9248442101896
0.0015                    0.0275                   295.3113620746112
0.0015                    0.0285                   295.712189683386
0.0015                    0.0295                   295.9901309117623
0.0015                    0.0305                   296.31889923720604
0.0015                    0.0315                   296.4429948968682
0.0025                    -0.0315                  340.5215574445127
0.0025                    -0.0305                  340.03096448737307
0.0025                    -0.0295                  339.5030615923526
0.0025                    -0.0285                  339.1749753210831
0.0025                    -0.0275                  338.57451133271644
0.0025                    -0.0265                  337.898075313191
0.0025                    -0.0255                  337.24072870344094
0.0025                    -0.0245                  334.3287041118838
0.0025                    -0.0235                  329.00618467308504
0.0025                    -0.0225                  323.6836652342863
0.0025                    -0.0215                  318.94543921961804
0.0025                    -0.0205                  314.1425434962503
0.0025                    -0.0195                  309.33964777288253
0.0025                    -0.0185                  307.42018237677155
0.0025                    -0.0175                  306.1583690612967
0.0025                    -0.0165                  304.89655574582184
0.0025                    -0.0155                  304.50869827148534
0.0025                    -0.0145                  304.1436684226582
0.0025                    -0.0135                  303.8016079525995
0.0025                    -0.0125                  303.6910212342792
0.0025                    -0.0115                  303.55817449329186
0.0025                    -0.0105                  303.4827288587295
0.0025                    -0.0095                  303.4648089221116
0.0025                    -0.0085                  303.4467422647845
0.0025                    -0.0075                  303.46229223016593
0.0025                    -0.0065                  303.4703824327887
0.0025                    -0.0055                  303.4784726354115
0.0025                    -0.0045                  303.44070501173144
0.0025                    -0.0035                  303.35275004567956
0.0025                    -0.0025                  303.2647950796277
0.0025                    -0.0015                  303.03609808780465
0.0025                    -5.0E-4                  302.7356377059573
0.0025                    5.0E-4                   302.43517732410993
0.0025                    0.0015                   301.8455378064029
0.0025                    0.0025                   301.12468586680984
0.0025                    0.0035                   300.40383392721674
0.0025                    0.0045                   299.42893084753194
0.0025                    0.0055                   298.3583395704626
0.0025                    0.0065                   297.27070037118995
0.0025                    0.0075                   295.9824710115115
0.0025                    0.0085                   294.742151857229
0.0025                    0.0095                   293.7231372840088
0.0025                    0.0105                   293.4780796550177
0.0025                    0.0115                   293.2330220260267
0.0025                    0.0125                   293.1329708957045
0.0025                    0.0135                   293.14148282923037
0.0025                    0.0145                   293.14999476275625
0.0025                    0.0155                   293.15274758669455
0.0025                    0.0165                   293.15377823330067
0.0025                    0.0175                   293.15370340919884
0.0025                    0.0185                   293.1512320180351
0.0025                    0.0195                   293.14876062687136
0.0025                    0.0205                   293.20390799792557
0.0025                    0.0215                   293.3054410152094
0.0025                    0.0225                   293.42684531007876
0.0025                    0.0235                   293.91358826694125
0.0025                    0.0245                   294.4322480567983
0.0025                    0.0255                   294.94747315019396
0.0025                    0.0265                   295.3201336884949
0.0025                    0.0275                   295.69279422679585
0.0025                    0.0285                   295.9143786033278
0.0025                    0.0295                   296.14615480508996
0.0025                    0.0305                   296.34472240386026
0.0025                    0.0315                   296.5049319949835
0.0035                    -0.0315                  337.7218973147559
0.0035                    -0.0305                  336.8539191212345
0.0035                    -0.0295                  336.2463377740829
0.0035                    -0.0285                  335.77112192465563
0.0035                    -0.0275                  334.8667868980441
0.0035                    -0.0265                  334.0523999554122
0.0035                    -0.0255                  332.74757539931954
0.0035                    -0.0245                  328.3200911507113
0.0035                    -0.0235                  323.2922891059287
0.0035                    -0.0225                  318.4249129838891
0.0035                    -0.0215                  314.90758284187365
0.0035                    -0.0205                  310.33051388652405
0.0035                    -0.0195                  307.18360437054963
0.0035                    -0.0185                  306.4812378241206
0.0035                    -0.0175                  305.2341572720258
0.0035                    -0.0165                  304.58962643471983
0.0035                    -0.0155                  304.4099811729161
0.0035                    -0.0145                  304.04495132408897
0.0035                    -0.0135                  303.9482576477955
0.0035                    -0.0125                  303.93164369444554
0.0035                    -0.0115                  303.7987969534582
0.0035                    -0.0105                  303.9129463417659
0.0035                    -0.0095                  304.0077536732504
0.0035                    -0.0085                  303.9896870159233
0.0035                    -0.0075                  304.12648562088964
0.0035                    -0.0065                  304.1986107127869
0.0035                    -0.0055                  304.1990730843397
0.0035                    -0.0045                  304.09911811680394
0.0035                    -0.0035                  304.00726070141826
0.0035                    -0.0025                  303.8587271009251
0.0035                    -0.0015                  303.474283481831
0.0035                    -5.0E-4                  303.15802485979975
0.0035                    5.0E-4                   302.7513938408151
0.0035                    0.0015                   302.1405369566618
0.0035                    0.0025                   301.4252406849939
0.0035                    0.0035                   300.678395042596
0.0035                    0.0045                   299.87645884557696
0.0035                    0.0055                   298.8058675685076
0.0035                    0.0065                   297.4138831794896
0.0035                    0.0075                   295.94192002091137
0.0035                    0.0085                   294.70160086662884
0.0035                    0.0095                   293.89773897883197
0.0035                    0.0105                   293.4260856489442
0.0035                    0.0115                   293.2196245261364
0.0035                    0.0125                   293.1422518331359
0.0035                    0.0135                   293.13960259222114
0.0035                    0.0145                   293.1480827938177
0.0035                    0.0155                   293.15496743574556
0.0035                    0.0165                   293.15599808235174
0.0035                    0.0175                   293.15413128376036
0.0035                    0.0185                   293.1518224611499
0.0035                    0.0195                   293.160098885386
0.0035                    0.0205                   293.192048075545
0.0035                    0.0215                   293.28982067831066
0.0035                    0.0225                   293.5429489952567
0.0035                    0.0235                   293.9246429729325
0.0035                    0.0245                   294.44817595831466
0.0035                    0.0255                   295.0317157046185
0.0035                    0.0265                   295.48535327990965
0.0035                    0.0275                   295.7593445654543
0.0035                    0.0285                   295.92375462168275
0.0035                    0.0295                   296.132978022814
0.0035                    0.0305                   296.3176598015866
0.0035                    0.0315                   296.480586648933
0.0045                    -0.0315                  335.2317579461744
0.0045                    -0.0305                  334.1741541167841
0.0045                    -0.0295                  333.1232235560927
0.0045                    -0.0285                  332.1073044780982
0.0045                    -0.0275                  331.183458094988
0.0045                    -0.0265                  330.2596117118779
0.0045                    -0.0255                  326.50267133890713
0.0045                    -0.0245                  322.07518709029887
0.0045                    -0.0235                  317.57839353877233
0.0045                    -0.0225                  313.82431473591805
0.0045                    -0.0215                  310.3069845939026
0.0045                    -0.0205                  306.6273433813453
0.0045                    -0.0195                  305.92497683491627
0.0045                    -0.0185                  305.2226102884872
0.0045                    -0.0175                  304.5205517355126
0.0045                    -0.0165                  304.3651707296242
0.0045                    -0.0155                  304.20978972373575
0.0045                    -0.0145                  304.07077386033734
0.0045                    -0.0135                  304.0949073429915
0.0045                    -0.0125                  304.11904082564575
0.0045                    -0.0115                  304.173242870621
0.0045                    -0.0105                  304.34316382480233
0.0045                    -0.0095                  304.5130847789836
0.0045                    -0.0085                  304.6250610382647
0.0045                    -0.0075                  304.77149524416643
0.0045                    -0.0065                  304.91792945006813
0.0045                    -0.0055                  304.8608223295175
0.0045                    -0.0045                  304.7608673619817
0.0045                    -0.0035                  304.661771357157
0.0045                    -0.0025                  304.3319573107737
0.0045                    -0.0015                  303.9475136916796
0.0045                    -5.0E-4                  303.5804120136423
0.0045                    5.0E-4                   302.9851544429495
0.0045                    0.0015                   302.3742975587961
0.0045                    0.0025                   301.7206663210789
0.0045                    0.0035                   300.94664718933416
0.0045                    0.0045                   300.17262805758946
0.0045                    0.0055                   299.1247936050349
0.0045                    0.0065                   297.5570659877892
0.0045                    0.0075                   295.98933837054346
0.0045                    0.0085                   294.90936783054843
0.0045                    0.0095                   294.14065563898833
0.0045                    0.0105                   293.3740916428706
0.0045                    0.0115                   293.2664311284175
0.0045                    0.0125                   293.189058435417
0.0045                    0.0135                   293.13771431171176
0.0045                    0.0145                   293.146169693934
0.0045                    0.0155                   293.1546250761562
0.0045                    0.0165                   293.1566072906787
0.0045                    0.0175                   293.1545148144579
0.0045                    0.0185                   293.1524129042647
0.0045                    0.0195                   293.18140484889204
0.0045                    0.0205                   293.21335403905107
0.0045                    0.0215                   293.34268094796244
0.0045                    0.0225                   293.6590526804347
0.0045                    0.0235                   293.9754244129069
0.0045                    0.0245                   294.49980013359425
0.0045                    0.0255                   295.083339879898
0.0045                    0.0265                   295.62572415425564
0.0045                    0.0275                   295.78903629559704
0.0045                    0.0285                   295.9523484369385
0.0045                    0.0295                   296.11513331010883
0.0045                    0.0305                   296.26809212384524
0.0045                    0.0315                   296.4202646606998
0.0055                    -0.0315                  332.741618577593
0.0055                    -0.0305                  331.72465105114713
0.0055                    -0.0295                  330.6875518976893
0.0055                    -0.0285                  328.96672571274195
0.0055                    -0.0275                  328.0154091363145
0.0055                    -0.0265                  326.0153347899652
0.0055                    -0.0255                  322.2413863430743
0.0055                    -0.0245                  317.68558280648904
0.0055                    -0.0235                  314.04880559741497
0.0055                    -0.0225                  311.0934664799844
0.0055                    -0.0215                  307.5943294021469
0.0055                    -0.0205                  306.03603777694303
0.0055                    -0.0195                  305.4348544671082
0.0055                    -0.0185                  304.7319564589135
0.0055                    -0.0175                  304.52583502650657
0.0055                    -0.0165                  304.3839535424303
0.0055                    -0.0155                  304.22772397424137
0.0055                    -0.0145                  304.35145416154927
0.0055                    -0.0135                  304.38358144128404
0.0055                    -0.0125                  304.42598698193206
0.0055                    -0.0115                  304.69690922844705
0.0055                    -0.0105                  304.8661799390776
0.0055                    -0.0095                  305.03652274590104
0.0055                    -0.0085                  305.2057591071909
0.0055                    -0.0075                  305.3524758090163
0.0055                    -0.0065                  305.42791096614667
0.0055                    -0.0055                  305.33800803547945
0.0055                    -0.0045                  305.2384921069414
0.0055                    -0.0035                  304.9999516718553
0.0055                    -0.0025                  304.59603597552166
0.0055                    -0.0015                  304.2116868861129
0.0055                    -5.0E-4                  303.6112361009243
0.0055                    5.0E-4                   302.93714311744304
0.0055                    0.0015                   302.32512417493103
0.0055                    0.0025                   301.57582196814565
0.0055                    0.0035                   300.7917961084071
0.0055                    0.0045                   300.015463412373
0.0055                    0.0055                   299.1420280006076
0.0055                    0.0065                   297.6292000965616
0.0055                    0.0075                   296.0892895787719
0.0055                    0.0085                   294.83450573071053
0.0055                    0.0095                   294.0635482739018
0.0055                    0.0105                   293.4752542540772
0.0055                    0.0115                   293.25674157777433
0.0055                    0.0125                   293.17886970403936
0.0055                    0.0135                   293.1448752293086
0.0055                    0.0145                   293.1467264309841
0.0055                    0.0155                   293.15482599631997
0.0055                    0.0165                   293.1580610995734
0.0055                    0.0175                   293.1559802312602
0.0055                    0.0185                   293.15964718973635
0.0055                    0.0195                   293.17985957879597
0.0055                    0.0205                   293.21169133909905
0.0055                    0.0215                   293.32952690112893
0.0055                    0.0225                   293.62837893734616
0.0055                    0.0235                   294.0188337972277
0.0055                    0.0245                   294.56969418283387
0.0055                    0.0255                   295.1540717807467
0.0055                    0.0265                   295.52737126606405
0.0055                    0.0275                   295.7216157454369
0.0055                    0.0285                   295.88492788677837
0.0055                    0.0295                   296.0398591991227
0.0055                    0.0305                   296.19999094359065
0.0055                    0.0315                   296.3599426724666
0.0065                    -0.0315                  330.62511705894275
0.0065                    -0.0305                  329.3120031746764
0.0065                    -0.0295                  328.22099907240744
0.0065                    -0.0285                  326.5001728874601
0.0065                    -0.0275                  324.7083186436458
0.0065                    -0.0265                  321.2928991733549
0.0065                    -0.0255                  317.87747970306395
0.0065                    -0.0245                  313.53731872758476
0.0065                    -0.0235                  311.0595572478587
0.0065                    -0.0225                  308.58179576813257
0.0065                    -0.0215                  305.9865143573569
0.0065                    -0.0205                  305.527558631239
0.0065                    -0.0195                  305.06860290512105
0.0065                    -0.0185                  304.64501790832594
0.0065                    -0.0175                  304.55120763460764
0.0065                    -0.0165                  304.4472266889714
0.0065                    -0.0155                  304.464350484306
0.0065                    -0.0145                  304.6011721649805
0.0065                    -0.0135                  304.70112483954216
0.0065                    -0.0125                  304.90567910862876
0.0065                    -0.0115                  305.18361905419795
0.0065                    -0.0105                  305.4106249248894
0.0065                    -0.0095                  305.5845215224175
0.0065                    -0.0085                  305.7594324224772
0.0065                    -0.0075                  305.9173461219962
0.0065                    -0.0065                  305.84831508635705
0.0065                    -0.0055                  305.7632562278002
0.0065                    -0.0045                  305.65151647691374
0.0065                    -0.0035                  305.23030702811064
0.0065                    -0.0025                  304.8090975793076
0.0065                    -0.0015                  304.3521565147111
0.0065                    -5.0E-4                  303.5834779940241
0.0065                    5.0E-4                   302.8150740587995
0.0065                    0.0015                   302.1412358577474
0.0065                    0.0025                   301.3350530322051
0.0065                    0.0035                   300.53317306575883
0.0065                    0.0045                   299.7028155020331
0.0065                    0.0055                   298.81509425475906
0.0065                    0.0065                   297.68542111070667
0.0065                    0.0075                   296.27684962828533
0.0065                    0.0085                   294.9262019693568
0.0065                    0.0095                   293.9234987195965
0.0065                    0.0105                   293.59733048984384
0.0065                    0.0115                   293.27116226009116