% Model:              SIMBench260525.mph
% Version:            COMSOL 6.2.0.339
% Date:               May 27 2026, 17:46
% Dimension:          2
% Nodes:              4096
% Expressions:        1
% Description:        温度
% Length unit:        m
% x                       y                        T (K)
5.0E-4                    -0.0315                  365.18945190083775
5.0E-4                    -0.0305                  363.26076898102855
5.0E-4                    -0.0295                  361.31629914692525
5.0E-4                    -0.0285                  357.7999685228047
5.0E-4                    -0.0275                  353.88592939036243
5.0E-4                    -0.0265                  349.97189025792
5.0E-4                    -0.0255                  346.21176949535413
5.0E-4                    -0.0245                  343.09708957571445
5.0E-4                    -0.0235                  339.9824096560747
5.0E-4                    -0.0225                  338.00120794898595
5.0E-4                    -0.0215                  335.9682818513511
5.0E-4                    -0.0205                  333.9353557537162
5.0E-4                    -0.0195                  332.85577122174084
5.0E-4                    -0.0185                  331.1847634741663
5.0E-4                    -0.0175                  329.51375572659174
5.0E-4                    -0.0165                  328.72301867391457
5.0E-4                    -0.0155                  327.0107433748325
5.0E-4                    -0.0145                  325.2984680757504
5.0E-4                    -0.0135                  323.975129404257
5.0E-4                    -0.0125                  321.0387462524683
5.0E-4                    -0.0115                  318.10236310067955
5.0E-4                    -0.0105                  314.7600804888705
5.0E-4                    -0.0095                  308.55222096064796
5.0E-4                    -0.0085                  302.3443614324254
5.0E-4                    -0.0075                  296.6077359746255
5.0E-4                    -0.0065                  295.93986694632883
5.0E-4                    -0.0055                  295.27199791803224
5.0E-4                    -0.0045                  294.1788553574864
5.0E-4                    -0.0035                  294.1452961720244
5.0E-4                    -0.0025                  294.1117369865625
5.0E-4                    -0.0015                  293.47789157864094
5.0E-4                    -5.0E-4                  293.28458933555686
5.0E-4                    5.0E-4                   293.2762419121628
5.0E-4                    0.0015                   293.45252434177587
5.0E-4                    0.0025                   294.0660218251611
5.0E-4                    0.0035                   294.0365744665603
5.0E-4                    0.0045                   294.0071271079595
5.0E-4                    0.0055                   294.9161703791403
5.0E-4                    0.0065                   295.6546898672817
5.0E-4                    0.0075                   296.3932093554231
5.0E-4                    0.0085                   302.17388587265634
5.0E-4                    0.0095                   308.86828537945047
5.0E-4                    0.0105                   315.5626848862446
5.0E-4                    0.0115                   319.2312108828515
5.0E-4                    0.0125                   322.4835607320109
5.0E-4                    0.0135                   325.7359105811704
5.0E-4                    0.0145                   327.28016621639136
5.0E-4                    0.0155                   328.7200266036584
5.0E-4                    0.0165                   330.1598869909255
5.0E-4                    0.0175                   330.9544302527718
5.0E-4                    0.0185                   332.14988064057115
5.0E-4                    0.0195                   333.3453310283704
5.0E-4                    0.0205                   334.0814091883925
5.0E-4                    0.0215                   335.4824356643044
5.0E-4                    0.0225                   336.8834621402163
5.0E-4                    0.0235                   338.0823095607047
5.0E-4                    0.0245                   340.21552728024346
5.0E-4                    0.0255                   342.3487449997822
5.0E-4                    0.0265                   344.78491557766614
5.0E-4                    0.0275                   347.96413266803785
5.0E-4                    0.0285                   351.1433497584096
5.0E-4                    0.0295                   354.263555216786
5.0E-4                    0.0305                   356.0829099000612
5.0E-4                    0.0315                   357.90226458333643
0.0015                    -0.0315                  364.5432280146907
0.0015                    -0.0305                  363.04866302133115
0.0015                    -0.0295                  360.57019222952295
0.0015                    -0.0285                  356.5287922192702
0.0015                    -0.0275                  352.5470318918517
0.0015                    -0.0265                  348.6357801480583
0.0015                    -0.0255                  344.72683027066
0.0015                    -0.0245                  341.266669604154
0.0015                    -0.0235                  338.92170387652146
0.0015                    -0.0225                  337.2300676307164
0.0015                    -0.0215                  335.3230644828877
0.0015                    -0.0205                  333.95649579815455
0.0015                    -0.0195                  333.3349327551406
0.0015                    -0.0185                  332.0843108869617
0.0015                    -0.0175                  331.07089424470564
0.0015                    -0.0165                  330.8188728855437
0.0015                    -0.0155                  329.7120997289303
0.0015                    -0.0145                  328.47177897677767
0.0015                    -0.0135                  327.7661285890147
0.0015                    -0.0125                  325.74208371445013
0.0015                    -0.0115                  322.99757127187024
0.0015                    -0.0105                  320.46077322308463
0.0015                    -0.0095                  315.71523587902306
0.0015                    -0.0085                  308.91610257265825
0.0015                    -0.0075                  301.513547668137
0.0015                    -0.0065                  298.5053595056233
0.0015                    -0.0055                  297.25621458056537
0.0015                    -0.0045                  295.5681337777196
0.0015                    -0.0035                  295.2259318239858
0.0015                    -0.0025                  294.514662566398
0.0015                    -0.0015                  293.7579321125569
0.0015                    -5.0E-4                  293.3243956002211
0.0015                    5.0E-4                   293.3163731435098
0.0015                    0.0015                   293.5642711695774
0.0015                    0.0025                   294.4226133558228
0.0015                    0.0035                   295.15686559366554
0.0015                    0.0045                   295.42950483934976
0.0015                    0.0055                   296.8330443196767
0.0015                    0.0065                   297.8839954072079
0.0015                    0.0075                   301.1459727613947
0.0015                    0.0085                   308.31860348390853
0.0015                    0.0095                   315.22602495890766
0.0015                    0.0105                   320.2750938750245
0.0015                    0.0115                   323.14446567675145
0.0015                    0.0125                   326.2316029487282
0.0015                    0.0135                   328.5176562073128
0.0015                    0.0145                   329.5836654237695
0.0015                    0.0155                   330.8643698543912
0.0015                    0.0165                   331.8781182962814
0.0015                    0.0175                   332.35822974693144
0.0015                    0.0185                   333.2479996399301
0.0015                    0.0195                   334.0818043613166
0.0015                    0.0205                   334.4652680041348
0.0015                    0.0215                   335.4562341199963
0.0015                    0.0225                   336.57169867288223
0.0015                    0.0235                   337.39728360122103
0.0015                    0.0245                   339.0527763814613
0.0015                    0.0255                   341.24449970603627
0.0015                    0.0265                   343.4741289407267
0.0015                    0.0275                   346.3612881151131
0.0015                    0.0285                   349.7240493171921
0.0015                    0.0295                   353.37804935498366
0.0015                    0.0305                   355.72190449024225
0.0015                    0.0315                   357.22577617371593
0.0025                    -0.0315                  363.8970041285437
0.0025                    -0.0305                  362.06362236210003
0.0025                    -0.0295                  359.3910904688894
0.0025                    -0.0285                  355.33524911077274
0.0025                    -0.0275                  351.1932045116649
0.0025                    -0.0265                  347.2097889776136
0.0025                    -0.0255                  343.3126588345808
0.0025                    -0.0245                  340.0454561220564
0.0025                    -0.0235                  338.30059954467805
0.0025                    -0.0225                  336.5329712907793
0.0025                    -0.0215                  334.9868565990844
0.0025                    -0.0205                  334.38964559449323
0.0025                    -0.0195                  333.7924345899019
0.0025                    -0.0185                  333.3722354321168
0.0025                    -0.0175                  333.1459692786407
0.0025                    -0.0165                  332.9171614351012
0.0025                    -0.0155                  332.75199946034036
0.0025                    -0.0145                  332.07642740409955
0.0025                    -0.0135                  331.3761266967167
0.0025                    -0.0125                  330.53680063691127
0.0025                    -0.0115                  328.0119722080575
0.0025                    -0.0105                  325.4758946196106
0.0025                    -0.0095                  322.78287023021585
0.0025                    -0.0085                  315.38806130961484
0.0025                    -0.0075                  307.99325238901383
0.0025                    -0.0065                  301.38138086178185
0.0025                    -0.0055                  299.6820887212026
0.0025                    -0.0045                  297.9827965806233
0.0025                    -0.0035                  295.82614984626
0.0025                    -0.0025                  294.8316118609316
0.0025                    -0.0015                  294.04319396169296
0.0025                    -5.0E-4                  293.5499643227167
0.0025                    5.0E-4                   293.4209277448872
0.0025                    0.0015                   293.67750326075793
0.0025                    0.0025                   294.62415289211674
0.0025                    0.0035                   295.82356111306296
0.0025                    0.0045                   297.3114992098663
0.0025                    0.0055                   298.7372180068104
0.0025                    0.0065                   300.1629368037544
0.0025                    0.0075                   307.084462374767
0.0025                    0.0085                   314.24922429896867
0.0025                    0.0095                   321.1933652335375
0.0025                    0.0105                   324.0423528688503
0.0025                    0.0115                   326.913821229182
0.0025                    0.0125                   329.7821778081432
0.0025                    0.0135                   330.93829784644254
0.0025                    0.0145                   332.00356460385586
0.0025                    0.0155                   333.0816236222752
0.0025                    0.0165                   333.59626702747073
0.0025                    0.0175                   334.078799019205
0.0025                    0.0185                   334.5127198472203
0.0025                    0.0195                   334.89506540756224
0.0025                    0.0205                   335.30236378781694
0.0025                    0.0215                   335.55912508915253
0.0025                    0.0225                   336.4308421407144
0.0025                    0.0235                   337.3061397468416
0.0025                    0.0245                   338.12631082797066
0.0025                    0.0255                   340.23145653240715
0.0025                    0.0265                   342.3825189503526
0.0025                    0.0275                   344.75844356218835
0.0025                    0.0285                   348.43926725799486
0.0025                    0.0295                   352.1766966287432
0.0025                    0.0305                   354.9044647560996
0.0025                    0.0315                   356.5456019306664
0.0035                    -0.0315                  362.6790547147923
0.0035                    -0.0305                  360.4440287488015
0.0035                    -0.0295                  358.2692159394816
0.0035                    -0.0285                  354.1715039321227
0.0035                    -0.0275                  349.8247087748299
0.0035                    -0.0265                  345.56902434408585
0.0035                    -0.0255                  341.6718942010531
0.0035                    -0.0245                  340.283211380835
0.0035                    -0.0235                  338.8235776909414
0.0035                    -0.0225                  337.0559494370426
0.0035                    -0.0215                  337.0712980860187
0.0035                    -0.0205                  337.11889258766337
0.0035                    -0.0195                  336.52168158307217
0.0035                    -0.0185                  337.16766088381894
0.0035                    -0.0175                  337.7498966893921
0.0035                    -0.0165                  337.5210888458527
0.0035                    -0.0155                  337.71389038786356
0.0035                    -0.0145                  337.66129764036174
0.0035                    -0.0135                  336.9609969329789
0.0035                    -0.0125                  335.4422733301562
0.0035                    -0.0115                  333.3933478901605
0.0035                    -0.0105                  330.8572703017136
0.0035                    -0.0095                  327.63728086576936
0.0035                    -0.0085                  322.5140615205285
0.0035                    -0.0075                  315.1192525999275
0.0035                    -0.0065                  309.0121016751717
0.0035                    -0.0055                  305.4514315047946
0.0035                    -0.0045                  303.10913187174987
0.0035                    -0.0035                  297.2375590446653
0.0035                    -0.0025                  295.7023221221842
0.0035                    -0.0015                  294.4145072205283
0.0035                    -5.0E-4                  293.60772849857375
0.0035                    5.0E-4                   293.5111558991762
0.0035                    0.0015                   293.9049338169034
0.0035                    0.0025                   294.76144012909833
0.0035                    0.0035                   296.5387065766133
0.0035                    0.0045                   300.65305623124493
0.0035                    0.0055                   302.07877502818894
0.0035                    0.0065                   305.7550261863398
0.0035                    0.0075                   311.8141350787838
0.0035                    0.0085                   318.9788970029854
0.0035                    0.0095                   323.17618421757436
0.0035                    0.0105                   325.8380627461602
0.0035                    0.0115                   328.70953110649185
0.0035                    0.0125                   331.5500071239512
0.0035                    0.0135                   333.78657169565804
0.0035                    0.0145                   334.8518384530713
0.0035                    0.0155                   336.03971772157234
0.0035                    0.0165                   337.0179462466414
0.0035                    0.0175                   337.50047823837565
0.0035                    0.0185                   337.52952659401024
0.0035                    0.0195                   337.57003894027093
0.0035                    0.0205                   337.97733732052563
0.0035                    0.0215                   337.63021424783227
0.0035                    0.0225                   337.6620064203516
0.0035                    0.0235                   338.5373040264788
0.0035                    0.0245                   338.6802687761242
0.0035                    0.0255                   340.174982686533
0.0035                    0.0265                   342.2542379589968
0.0035                    0.0275                   344.0888617978146
0.0035                    0.0285                   347.47098286136054
0.0035                    0.0295                   351.18627536715104
0.0035                    0.0305                   353.71368207038415
0.0035                    0.0315                   355.5758221849787
0.0045                    -0.0315                  361.85848278047627
0.0045                    -0.0305                  359.42651442519855
0.0045                    -0.0295                  357.01326309237743
0.0045                    -0.0285                  352.85096675483965
0.0045                    -0.0275                  348.4935139515985
0.0045                    -0.0265                  344.1360611483573
0.0045                    -0.0255                  341.7825577149421
0.0045                    -0.0245                  340.52096663961356
0.0045                    -0.0235                  339.25937556428494
0.0045                    -0.0225                  338.55986543207996
0.0045                    -0.0215                  339.099324580646
0.0045                    -0.0205                  339.63878372921215
0.0045                    -0.0195                  339.8698050646781
0.0045                    -0.0185                  340.9630863355211
0.0045                    -0.0175                  342.05636760636406
0.0045                    -0.0165                  342.3491811582253
0.0045                    -0.0155                  342.67578131538676
0.0045                    -0.0145                  343.0023814725482
0.0045                    -0.0135                  342.0894285082962
0.0045                    -0.0125                  340.3477460234011
0.0045                    -0.0115                  338.606063538506
0.0045                    -0.0105                  335.8427772685784
0.0045                    -0.0095                  332.4669393227465
0.0045                    -0.0085                  329.09110137691454
0.0045                    -0.0075                  323.0415459857816
0.0045                    -0.0065                  317.0442106245595
0.0045                    -0.0055                  311.22077428838656
0.0045                    -0.0045                  306.21139200116266
0.0045                    -0.0035                  300.3398191740781
0.0045                    -0.0025                  296.6936053652016
0.0045                    -0.0015                  295.33355503494477
0.0045                    -5.0E-4                  293.97350470468785
0.0045                    5.0E-4                   293.76718193209706
0.0045                    0.0015                   294.31727634980103
0.0045                    0.0025                   294.8794786627949
0.0045                    0.0035                   298.1921905235481
0.0045                    0.0045                   302.3729173353966
0.0045                    0.0055                   305.71350142525154
0.0045                    0.0065                   311.4212878197056
0.0045                    0.0075                   317.12907421415963
0.0045                    0.0085                   322.5843817302554
0.0045                    0.0095                   325.1590032016112
0.0045                    0.0105                   327.733624672967
0.0045                    0.0115                   330.4914981428722
0.0045                    0.0125                   333.31783643975916
0.0045                    0.0135                   336.1441747366462
0.0045                    0.0145                   337.75802565032126
0.0045                    0.0155                   338.9978118208695
0.0045                    0.0165                   340.2375979914178
0.0045                    0.0175                   340.7076333300444
0.0045                    0.0185                   340.5463333408002
0.0045                    0.0195                   340.3850333515559
0.0045                    0.0205                   340.2668139507751
0.0045                    0.0215                   339.701303406512
0.0045                    0.0225                   339.1357928622489
0.0045                    0.0235                   339.3330224212074
0.0045                    0.0245                   339.4279542904563
0.0045                    0.0255                   340.01566181789383
0.0045                    0.0265                   341.6680322252378
0.0045                    0.0275                   343.5752193131146
0.0045                    0.0285                   346.9573403766605
0.0045                    0.0295                   350.3394614402063
0.0045                    0.0305                   352.81930858308215
0.0045                    0.0315                   354.9193758790412
0.0055                    -0.0315                  361.0379108461602
0.0055                    -0.0305                  358.75532655139693
0.0055                    -0.0295                  356.4849396806471
0.0055                    -0.0285                  351.9534119637986
0.0055                    -0.0275                  347.56849502614864
0.0055                    -0.0265                  343.97966194757294
0.0055                    -0.0255                  342.2538326280851
0.0055                    -0.0245                  340.9614639476929
0.0055                    -0.0235                  339.8051840544342
0.0055                    -0.0225                  340.7161900035268
0.0055                    -0.0215                  341.253779292857
0.0055                    -0.0205                  341.7913685821872
0.0055                    -0.0195                  343.30005470940364
0.0055                    -0.0185                  344.3812461349746
0.0055                    -0.0175                  345.4511117162375
0.0055                    -0.0165                  346.16699174836947
0.0055                    -0.0155                  346.47308553665795
0.0055                    -0.0145                  346.57805576456536
0.0055                    -0.0135                  344.68211840129266
0.0055                    -0.0125                  342.9343920766123
0.0055                    -0.0115                  340.8505807882942
0.0055                    -0.0105                  336.58001939268115
0.0055                    -0.0095                  333.18338986483025
0.0055                    -0.0085                  329.79296615178527
0.0055                    -0.0075                  325.5904305212762
0.0055                    -0.0065                  319.519667507813
0.0055                    -0.0055                  313.82034070080584
0.0055                    -0.0045                  308.29755687095593
0.0055                    -0.0035                  302.46897964164987
0.0055                    -0.0025                  297.08449190547395
0.0055                    -0.0015                  295.40376676024357
0.0055                    -5.0E-4                  294.07574028553086
0.0055                    5.0E-4                   293.6466851856728
0.0055                    0.0015                   294.2600820908899
0.0055                    0.0025                   295.3924721314284
0.0055                    0.0035                   298.6290245961177
0.0055                    0.0045                   302.79709942144723
0.0055                    0.0055                   307.3406110072024
0.0055                    0.0065                   312.8535057406033
0.0055                    0.0075                   318.535764157485
0.0055                    0.0085                   321.2175633742472
0.0055                    0.0095                   323.78436176242724
0.0055                    0.0105                   326.3638288735114
0.0055                    0.0115                   330.35429594682483
0.0055                    0.0125                   333.2040597882452
0.0055                    0.0135                   336.05382362966554
0.0055                    0.0145                   339.79458943569324
0.0055                    0.0155                   341.0383683082015
0.0055                    0.0165                   342.2821471807098
0.0055                    0.0175                   343.58678380480796
0.0055                    0.0185                   343.42345514236024
0.0055                    0.0195                   343.26012647991257
0.0055                    0.0205                   342.62548378528464
0.0055                    0.0215                   342.0689868950424
0.0055                    0.0225                   341.40995978898815
0.0055                    0.0235                   340.37628417524064
0.0055                    0.0245                   340.4983618730935
0.0055                    0.0255                   340.85513979512103
0.0055                    0.0265                   341.42319095998175
0.0055                    0.0275                   343.06157682841456
0.0055                    0.0285                   346.42979040149953
0.0055                    0.0295                   349.79110643863027
0.0055                    0.0305                   352.1680166495551
0.0055                    0.0315                   354.2629295731037
0.0065                    -0.0315                  360.5414391667737
0.0065                    -0.0305                  358.22700313966664
0.0065                    -0.0295                  355.82231474741377
0.0065                    -0.0285                  351.2334351639859
0.0065                    -0.0275                  346.644555580558
0.0065                    -0.0265                  344.6971041385659
0.0065                    -0.0255                  342.91511734478297
0.0065                    -0.0245                  341.43976823159005
0.0065                    -0.0235                  341.7206159116511
0.0065                    -0.0225                  342.72801490443646
0.0065                    -0.0215                  343.4753830682228
0.0065                    -0.0205                  344.65469660536655
0.0065                    -0.0195                  346.3035468553767
0.0065                    -0.0185                  347.61688207745726
0.0065                    -0.0175                  348.50286713297464
0.0065                    -0.0165                  349.2928396729949
0.0065                    -0.0155                  349.8278629986455
0.0065                    -0.0145                  348.4802119557603
0.0065                    -0.0135                  346.5576177307711
0.0065                    -0.0125                  344.72963854266834
0.0065                    -0.0115                  340.866734159402
0.0065                    -0.0105                  336.37909590278394
0.0065                    -0.0095                  332.56104915247624
0.0065                    -0.0085                  329.1892009488109
0.0065                    -0.0075                  325.8213853548037
0.0065                    -0.0065                  320.4405175700244
0.0065                    -0.0055                  315.25224158472884
0.0065                    -0.0045                  310.0597062964313
0.0065                    -0.0035                  304.4299182903236
0.0065                    -0.0025                  299.1857432175117
0.0065                    -0.0015                  295.313030907043
0.0065                    -5.0E-4                  294.48684090280403
0.0065                    5.0E-4                   293.9210360961204
0.0065                    0.0015                   294.09059932845446
0.0065                    0.0025                   296.291641200576
0.0065                    0.0035                   298.56581054378177
0.0065                    0.0045                   302.8298639320947
0.0065                    0.0055                   307.5770767973418
0.0065                    0.0065                   312.54394664559646
0.0065                    0.0075                   316.63199156414004
0.0065                    0.0085                   318.7706453983551
0.0065                    0.0095                   321.06380684538766
0.0065                    0.0105                   324.50417710953286
0.0065                    0.0115                   328.66839322606563