% Model:              SIMBench260525.mph
% Version:            COMSOL 6.2.0.339
% Date:               May 27 2026, 18:01
% Dimension:          2
% Nodes:              4096
% Expressions:        1
% Description:        温度
% Length unit:        m
% x                       y                        T (K)
5.0E-4                    -0.0315                  432.8876161289375
5.0E-4                    -0.0305                  430.9849218810937
5.0E-4                    -0.0295                  429.0714853647848
5.0E-4                    -0.0285                  425.1328022165427
5.0E-4                    -0.0275                  420.67294937076804
5.0E-4                    -0.0265                  416.1166775776363
5.0E-4                    -0.0255                  411.08580621895123
5.0E-4                    -0.0245                  406.3638340691817
5.0E-4                    -0.0235                  401.7889621325093
5.0E-4                    -0.0225                  398.0491427985836
5.0E-4                    -0.0215                  394.5399203330775
5.0E-4                    -0.0205                  391.4043339716468
5.0E-4                    -0.0195                  389.0519359662655
5.0E-4                    -0.0185                  386.7544303070042
5.0E-4                    -0.0175                  384.802276747398
5.0E-4                    -0.0165                  383.2131284414332
5.0E-4                    -0.0155                  381.62904021606164
5.0E-4                    -0.0145                  380.30324946595
5.0E-4                    -0.0135                  379.0714388900734
5.0E-4                    -0.0125                  377.83962831419694
5.0E-4                    -0.0115                  376.78605073051995
5.0E-4                    -0.0105                  375.7101182115929
5.0E-4                    -0.0095                  374.6341856926658
5.0E-4                    -0.0085                  373.6530626349192
5.0E-4                    -0.0075                  372.66417433852735
5.0E-4                    -0.0065                  371.6653988635764
5.0E-4                    -0.0055                  370.65754244383197
5.0E-4                    -0.0045                  369.74334774130676
5.0E-4                    -0.0035                  368.74009478501495
5.0E-4                    -0.0025                  367.67570553390385
5.0E-4                    -0.0015                  366.7490313541142
5.0E-4                    -5.0E-4                  365.4649296771759
5.0E-4                    5.0E-4                   362.7369074580795
5.0E-4                    0.0015                   359.7530693218693
5.0E-4                    0.0025                   356.55278007888086
5.0E-4                    0.0035                   343.6026155711327
5.0E-4                    0.0045                   329.7206919809707
5.0E-4                    0.0055                   318.4165595199602
5.0E-4                    0.0065                   312.1199841694487
5.0E-4                    0.0075                   305.8234088189371
5.0E-4                    0.0085                   298.77183428445016
5.0E-4                    0.0095                   296.14279664298425
5.0E-4                    0.0105                   293.70659613747057
5.0E-4                    0.0115                   293.1676171489864
5.0E-4                    0.0125                   293.1315417765916
5.0E-4                    0.0135                   293.13381242399214
5.0E-4                    0.0145                   293.14828721453006
5.0E-4                    0.0155                   293.15860626124686
5.0E-4                    0.0165                   293.1601020631521
5.0E-4                    0.0175                   293.1498415025276
5.0E-4                    0.0185                   293.1407029215
5.0E-4                    0.0195                   293.2145125291424
5.0E-4                    0.0205                   293.34750816407075
5.0E-4                    0.0215                   294.39105043976537
5.0E-4                    0.0225                   298.24130651463076
5.0E-4                    0.0235                   302.2892746927424
5.0E-4                    0.0245                   313.0104319922124
5.0E-4                    0.0255                   327.1295945657645
5.0E-4                    0.0265                   339.7716065617094
5.0E-4                    0.0275                   343.25036991021125
5.0E-4                    0.0285                   345.6667180647803
5.0E-4                    0.0295                   347.9007023554282
5.0E-4                    0.0305                   348.8596971473654
5.0E-4                    0.0315                   349.7770876249802
0.0015                    -0.0315                  432.2220469702109
0.0015                    -0.0305                  430.8469321168651
0.0015                    -0.0295                  428.1706943904511
0.0015                    -0.0285                  424.0889323417067
0.0015                    -0.0275                  419.7906570002384
0.0015                    -0.0265                  414.6743163660102
0.0015                    -0.0255                  409.3575913120094
0.0015                    -0.0245                  404.5585685415379
0.0015                    -0.0235                  400.36187495131634
0.0015                    -0.0225                  396.2501339151898
0.0015                    -0.0215                  392.75133361258975
0.0015                    -0.0205                  390.2137865277388
0.0015                    -0.0195                  387.71731219789024
0.0015                    -0.0185                  385.5211129351239
0.0015                    -0.0175                  383.8779322075918
0.0015                    -0.0165                  382.25333838237157
0.0015                    -0.0155                  380.78473665458387
0.0015                    -0.0145                  379.588883137554
0.0015                    -0.0135                  378.3766168890351
0.0015                    -0.0125                  377.24923465657736
0.0015                    -0.0115                  376.25779002694003
0.0015                    -0.0105                  375.21588413800424
0.0015                    -0.0095                  374.2006648286618
0.0015                    -0.0085                  373.231417501431
0.0015                    -0.0075                  372.2476451868971
0.0015                    -0.0065                  371.18330343640787
0.0015                    -0.0055                  370.0875673303687
0.0015                    -0.0045                  369.1517323383483
0.0015                    -0.0035                  367.915927215727
0.0015                    -0.0025                  366.6287606983029
0.0015                    -0.0015                  365.7020865185133
0.0015                    -5.0E-4                  363.8390730754888
0.0015                    5.0E-4                   361.7806200276117
0.0015                    0.0015                   358.7439710495233
0.0015                    0.0025                   355.3425531783934
0.0015                    0.0035                   348.74755214362955
0.0015                    0.0045                   335.8322445301505
0.0015                    0.0055                   325.5058164415931
0.0015                    0.0065                   317.0023971147837
0.0015                    0.0075                   309.5524909072568
0.0015                    0.0085                   300.5252317590867
0.0015                    0.0095                   295.84767351132297
0.0015                    0.0105                   294.285726221859
0.0015                    0.0115                   293.1224254128292
0.0015                    0.0125                   293.08482354696395
0.0015                    0.0135                   293.13186388964573
0.0015                    0.0145                   293.166890599814
0.0015                    0.0155                   293.1743362767212
0.0015                    0.0165                   293.1772736069583
0.0015                    0.0175                   293.17137800552973
0.0015                    0.0185                   293.1672490166005
0.0015                    0.0195                   293.16767300195085
0.0015                    0.0205                   293.4824065122541
0.0015                    0.0215                   295.52782868237523
0.0015                    0.0225                   298.3151452147511
0.0015                    0.0235                   305.7522882024514
0.0015                    0.0245                   317.18459096762894
0.0015                    0.0255                   330.4786171131608
0.0015                    0.0265                   337.0466253093657
0.0015                    0.0275                   341.8066799493399
0.0015                    0.0285                   344.22005084243114
0.0015                    0.0295                   346.27504095022954
0.0015                    0.0305                   347.6865920462488
0.0015                    0.0315                   348.4416536464943
0.0025                    -0.0315                  431.55647781148434
0.0025                    -0.0305                  429.81971442399947
0.0025                    -0.0295                  427.06271503983805
0.0025                    -0.0285                  422.97412743377913
0.0025                    -0.0275                  418.1703022464746
0.0025                    -0.0265                  412.8959105100386
0.0025                    -0.0255                  407.64894008490614
0.0025                    -0.0245                  402.8948282545855
0.0025                    -0.0235                  398.7779004688357
0.0025                    -0.0225                  394.66097268308584
0.0025                    -0.0215                  391.5505045727806
0.0025                    -0.0205                  389.0127102996814
0.0025                    -0.0195                  386.4749160265821
0.0025                    -0.0185                  384.6951157465415
0.0025                    -0.0175                  383.0517339876801
0.0025                    -0.0165                  381.4083522288187
0.0025                    -0.0155                  380.2645611332348
0.0025                    -0.0145                  379.06617380282637
0.0025                    -0.0135                  377.9033462518939
0.0025                    -0.0125                  376.9656647047658
0.0025                    -0.0115                  375.96977830213416
0.0025                    -0.0105                  375.01223552846164
0.0025                    -0.0095                  374.03973624036934
0.0025                    -0.0085                  373.0664604477613
0.0025                    -0.0075                  372.0070236757013
0.0025                    -0.0065                  370.9091131818112
0.0025                    -0.0055                  369.8112026879211
0.0025                    -0.0045                  368.44729584416643
0.0025                    -0.0035                  367.1518319573962
0.0025                    -0.0025                  365.856368070626
0.0025                    -0.0015                  363.99796929252204
0.0025                    -5.0E-4                  362.1192670085504
0.0025                    5.0E-4                   360.2405647245789
0.0025                    0.0015                   357.21572932014135
0.0025                    0.0025                   353.81074393273536
0.0025                    0.0035                   350.4057585453293
0.0025                    0.0045                   342.1166186446385
0.0025                    0.0055                   331.781513131718
0.0025                    0.0065                   321.403029844357
0.0025                    0.0075                   311.99897978965356
0.0025                    0.0085                   302.9488507834472
0.0025                    0.0095                   295.8713686142318
0.0025                    0.0105                   294.70448430088595
0.0025                    0.0115                   293.53759998754003
0.0025                    0.0125                   293.08388630770673
0.0025                    0.0135                   293.1309444514364
0.0025                    0.0145                   293.17800259516605
0.0025                    0.0155                   293.1900455299559
0.0025                    0.0165                   293.19301297530166
0.0025                    0.0175                   293.1907318721496
0.0025                    0.0185                   293.18867140132147
0.0025                    0.0195                   293.1866109304933
0.0025                    0.0205                   294.346220778548
0.0025                    0.0215                   296.38442578570164
0.0025                    0.0225                   298.8741291539361
0.0025                    0.0235                   309.5503706315363
0.0025                    0.0245                   320.93037217386654
0.0025                    0.0255                   330.3629660117322
0.0025                    0.0265                   335.2488337337444
0.0025                    0.0275                   340.13470145575656
0.0025                    0.0285                   342.46631017143665
0.0025                    0.0295                   344.48618176008665
0.0025                    0.0305                   346.03501936985566
0.0025                    0.0315                   347.1062196680084
0.0035                    -0.0315                  430.2368351839031
0.0035                    -0.0305                  428.2133918125712
0.0035                    -0.0295                  425.9873737171793
0.0035                    -0.0285                  421.5124380473626
0.0035                    -0.0275                  415.9106768588276
0.0035                    -0.0265                  410.43812314401663
0.0035                    -0.0255                  405.3142653741455
0.0035                    -0.0245                  400.78415696546676
0.0035                    -0.0235                  396.53116816194193
0.0035                    -0.0225                  392.816289350428
0.0035                    -0.0215                  390.29406496581373
0.0035                    -0.0205                  387.7590059106141
0.0035                    -0.0195                  385.69665742795837
0.0035                    -0.0185                  384.336235856214
0.0035                    -0.0175                  382.7003046855449
0.0035                    -0.0165                  381.5376762772925
0.0035                    -0.0155                  380.70855398767134
0.0035                    -0.0145                  379.5101666572629
0.0035                    -0.0135                  378.72976497134323
0.0035                    -0.0125                  378.0346750591621
0.0035                    -0.0115                  377.0387886565304
0.0035                    -0.0105                  376.20899782670324
0.0035                    -0.0095                  375.34535046121016
0.0035                    -0.0085                  374.3720746686021
0.0035                    -0.0075                  373.0447614246272
0.0035                    -0.0065                  371.8298058339582
0.0035                    -0.0055                  370.6489640634112
0.0035                    -0.0045                  368.361180340494
0.0035                    -0.0035                  366.74209503501635
0.0035                    -0.0025                  365.0756757034359
0.0035                    -0.0015                  361.9578171301441
0.0035                    -5.0E-4                  359.84614487790674
0.0035                    5.0E-4                   357.3971978421961
0.0035                    0.0015                   353.850708668871
0.0035                    0.0025                   350.43868321575576
0.0035                    0.0035                   346.9260419092127
0.0035                    0.0045                   342.6510234543887
0.0035                    0.0055                   332.31591794146823
0.0035                    0.0065                   321.2211379955422
0.0035                    0.0075                   310.4401385771929
0.0035                    0.0085                   301.39000957098654
0.0035                    0.0095                   296.83473597833375
0.0035                    0.0105                   294.35208113110747
0.0035                    0.0115                   293.3928992923777
0.0035                    0.0125                   293.12850273984367
0.0035                    0.0135                   293.1346303472402
0.0035                    0.0145                   293.17863913248635
0.0035                    0.0155                   293.21209069573433
0.0035                    0.0165                   293.21505814108
0.0035                    0.0175                   293.19861483475376
0.0035                    0.0185                   293.1897337238147
0.0035                    0.0195                   293.4403858426963
0.0035                    0.0205                   294.247696098835
0.0035                    0.0215                   296.2193817077541
0.0035                    0.0225                   301.7020068776556
0.0035                    0.0235                   310.0619384471676
0.0035                    0.0245                   321.20197071645845
0.0035                    0.0255                   329.3871084573585
0.0035                    0.0265                   335.53988680978085
0.0035                    0.0275                   338.92664509891904
0.0035                    0.0285                   340.64850525670977
0.0035                    0.0295                   342.56860874474125
0.0035                    0.0305                   343.92048856483245
0.0035                    0.0315                   345.2438913746348
0.0045                    -0.0315                  429.1295198544009
0.0045                    -0.0305                  426.96832171971704
0.0045                    -0.0295                  424.79834115899763
0.0045                    -0.0285                  419.31125737925976
0.0045                    -0.0275                  413.68352456735806
0.0045                    -0.0265                  408.0557917554564
0.0045                    -0.0255                  403.3126726574143
0.0045                    -0.0245                  398.7825642487355
0.0045                    -0.0235                  394.2844358550482
0.0045                    -0.0225                  391.553034390563
0.0045                    -0.0215                  389.03081000594875
0.0045                    -0.0205                  386.53653510919605
0.0045                    -0.0195                  385.1761135374517
0.0045                    -0.0185                  383.8156919657074
0.0045                    -0.0175                  382.51288581141864
0.0045                    -0.0165                  381.7313764177839
0.0045                    -0.0155                  380.9498670241492
0.0045                    -0.0145                  380.1475046186247
0.0045                    -0.0135                  379.5561836907926
0.0045                    -0.0125                  378.96486276296054
0.0045                    -0.0115                  378.1976165545514
0.0045                    -0.0105                  377.405760124945
0.0045                    -0.0095                  376.61390369533854
0.0045                    -0.0085                  375.4667652018237
0.0045                    -0.0075                  374.1170716256988
0.0045                    -0.0065                  372.7673780495739
0.0045                    -0.0055                  370.8381896340971
0.0045                    -0.0045                  368.55040591117995
0.0045                    -0.0035                  366.33235811263654
0.0045                    -0.0025                  363.5526825319845
0.0045                    -0.0015                  360.4348239586928
0.0045                    -5.0E-4                  357.57302274726294
0.0045                    5.0E-4                   354.1110161131377
0.0045                    0.0015                   350.56452693981254
0.0045                    0.0025                   347.0451995939003
0.0045                    0.0035                   343.420237168331
0.0045                    0.0045                   339.79527474276165
0.0045                    0.0055                   332.5398136318383
0.0045                    0.0065                   321.03924614672746
0.0045                    0.0075                   309.53867866161676
0.0045                    0.0085                   302.39648902131506
0.0045                    0.0095                   298.1935009628257
0.0045                    0.0105                   293.999677961329
0.0045                    0.0115                   293.57289935382846
0.0045                    0.0125                   293.30850280129454
0.0045                    0.0135                   293.1375439011816
0.0045                    0.0145                   293.17916643979225
0.0045                    0.0155                   293.22078897840294
0.0045                    0.0165                   293.2263133263083
0.0045                    0.0175                   293.20835714880593
0.0045                    0.0185                   293.1907960463078
0.0045                    0.0195                   293.9285451196599
0.0045                    0.0205                   294.7358553757986
0.0045                    0.0215                   297.6102960506751
0.0045                    0.0225                   304.5298846013751
0.0045                    0.0235                   311.4494731520751
0.0045                    0.0245                   319.71578859562476
0.0045                    0.0255                   327.90092633652495
0.0045                    0.0265                   335.5108066104579
0.0045                    0.0275                   337.2399662697681
0.0045                    0.0285                   338.96912592907836
0.0045                    0.0295                   340.6951401755482
0.0045                    0.0305                   342.1490669688966
0.0045                    0.0315                   343.63642848092104
0.0055                    -0.0315                  428.0222045248986
0.0055                    -0.0305                  425.8075265528108
0.0055                    -0.0295                  423.4755293590489
0.0055                    -0.0285                  417.77258786963824
0.0055                    -0.0275                  412.1422627749786
0.0055                    -0.0265                  406.7496379376429
0.0055                    -0.0255                  401.82958103953604
0.0055                    -0.0245                  397.26593460823784
0.0055                    -0.0235                  393.5923003321254
0.0055                    -0.0225                  391.05825769676215
0.0055                    -0.0215                  388.5435030650592
0.0055                    -0.0205                  386.9597746987677
0.0055                    -0.0195                  385.7256778077798
0.0055                    -0.0185                  384.364461306591
0.0055                    -0.0175                  383.79496778935754
0.0055                    -0.0165                  383.1005683422527
0.0055                    -0.0155                  382.3152826535673
0.0055                    -0.0145                  382.0364856639215
0.0055                    -0.0135                  381.46586609850146
0.0055                    -0.0125                  380.8472669077743
0.0055                    -0.0115                  379.99056961365153
0.0055                    -0.0105                  379.1946061740506
0.0055                    -0.0095                  378.13456695623734
0.0055                    -0.0085                  376.09779149482347
0.0055                    -0.0075                  374.7502504243397
0.0055                    -0.0065                  372.7987482202851
0.0055                    -0.0055                  369.81749574914886
0.0055                    -0.0045                  367.53313782719795
0.0055                    -0.0035                  364.5268112633552
0.0055                    -0.0025                  360.9597192300929
0.0055                    -0.0015                  357.84256489876446
0.0055                    -5.0E-4                  354.2743114738612
0.0055                    5.0E-4                   350.5792727516596
0.0055                    0.0015                   347.0317306415366
0.0055                    0.0025                   344.09694348152163
0.0055                    0.0035                   340.7149993745894
0.0055                    0.0045                   337.0952211668817
0.0055                    0.0055                   330.7416014799901
0.0055                    0.0065                   319.60855828120657
0.0055                    0.0075                   308.629421771243
0.0055                    0.0085                   301.6511806567065
0.0055                    0.0095                   297.4338498056936
0.0055                    0.0105                   294.3969779178803
0.0055                    0.0115                   293.51734160973893
0.0055                    0.0125                   293.2510053749553
0.0055                    0.0135                   293.1669588257524
0.0055                    0.0145                   293.19428541391767
0.0055                    0.0155                   293.2333416121031
0.0055                    0.0165                   293.2393091146619
0.0055                    0.0175                   293.2213880329186
0.0055                    0.0185                   293.382362787583
0.0055                    0.0195                   293.94596508450877
0.0055                    0.0205                   294.75085823585295
0.0055                    0.0215                   297.8918698164746
0.0055                    0.0225                   304.48396121584943
0.0055                    0.0235                   312.4385548878694
0.0055                    0.0245                   321.965823344036
0.0055                    0.0255                   330.32230300673945
0.0055                    0.0265                   334.6424996962248
0.0055                    0.0275                   336.1989397093431
0.0055                    0.0285                   337.92809936865336
0.0055                    0.0295                   339.69169731372006
0.0055                    0.0305                   340.8723973399876
0.0055                    0.0315                   342.02896558720727
0.0065                    -0.0315                  426.9099455389853
0.0065                    -0.0305                  424.59822772338396
0.0065                    -0.0295                  422.0004657268082
0.0065                    -0.0285                  416.2975242373975
0.0065                    -0.0275                  410.6313753755248
0.0065                    -0.0265                  405.5479405423029
0.0065                    -0.0255                  400.464505709081
0.0065                    -0.0245                  395.821969303981
0.0065                    -0.0235                  393.27098923740607
0.0065                    -0.0225                  390.7200091708312
0.0065                    -0.0215                  388.56215891719984
0.0065                    -0.0205                  387.5058097518564
0.0065                    -0.0195                  386.44946058651294
0.0065                    -0.0185                  385.5294205671556
0.0065                    -0.0175                  385.1389514957549
0.0065                    -0.0165                  384.684491870251
0.0065                    -0.0155                  384.2118272163799
0.0065                    -0.0145                  383.9580610367285
0.0065                    -0.0135                  383.5937376746304
0.0065                    -0.0125                  382.80950112411733
0.0065                    -0.0115                  381.9489585368519
0.0065                    -0.0105                  381.11829838437205
0.0065                    -0.0095                  379.1722299877648
0.0065                    -0.0085                  376.96719580217075
0.0065                    -0.0075                  375.2739546983995
0.0065                    -0.0065                  372.0908426509343
0.0065                    -0.0055                  368.76383756853824
0.0065                    -0.0045                  366.1193417131633
0.0065                    -0.0035                  362.15652490303614
0.0065                    -0.0025                  358.1937080929091
0.0065                    -0.0015                  354.82131102515166
0.0065                    -5.0E-4                  350.9020046066
0.0065                    5.0E-4                   346.9828455265738
0.0065                    0.0015                   343.71061971343966
0.0065                    0.0025                   341.0293425485495
0.0065                    0.0035                   338.2050478580754
0.0065                    0.0045                   333.0448525093228
0.0065                    0.0055                   326.3237419613284
0.0065                    0.0065                   317.90227904108383
0.0065                    0.0075                   309.3288260892259
0.0065                    0.0085                   301.8042158558892
0.0065                    0.0095                   296.2685143874803
0.0065                    0.0105                   294.9165959597665
0.0065                    0.0115                   293.56467753205277