% Model:              SIMBench260525.mph
% Version:            COMSOL 6.2.0.339
% Date:               May 27 2026, 17:29
% Dimension:          2
% Nodes:              4096
% Expressions:        1
% Description:        温度
% Length unit:        m
% x                       y                        T (K)
5.0E-4                    -0.0315                  414.9164065099585
5.0E-4                    -0.0305                  413.5181124548892
5.0E-4                    -0.0295                  412.1067632602035
5.0E-4                    -0.0285                  409.09213287556713
5.0E-4                    -0.0275                  405.32350265092236
5.0E-4                    -0.0265                  401.4473209967522
5.0E-4                    -0.0255                  396.04700607680627
5.0E-4                    -0.0245                  390.4907711134497
5.0E-4                    -0.0235                  384.75968586424483
5.0E-4                    -0.0225                  378.5867892298377
5.0E-4                    -0.0215                  372.6276854840745
5.0E-4                    -0.0205                  366.7866777074458
5.0E-4                    -0.0195                  361.7571488618958
5.0E-4                    -0.0185                  356.9663746231348
5.0E-4                    -0.0175                  352.7330588968706
5.0E-4                    -0.0165                  349.64578610540684
5.0E-4                    -0.0155                  346.6500042307946
5.0E-4                    -0.0145                  344.346995856578
5.0E-4                    -0.0135                  342.63710003173685
5.0E-4                    -0.0125                  340.92990091467334
5.0E-4                    -0.0115                  339.8063048106349
5.0E-4                    -0.0105                  338.67078109367344
5.0E-4                    -0.0095                  337.5352573767119
5.0E-4                    -0.0085                  336.86057455027776
5.0E-4                    -0.0075                  335.9184310078655
5.0E-4                    -0.0065                  334.97628746545325
5.0E-4                    -0.0055                  334.5161745699289
5.0E-4                    -0.0045                  333.64830048537067
5.0E-4                    -0.0035                  332.8225318325753
5.0E-4                    -0.0025                  332.41775846884315
5.0E-4                    -0.0015                  331.6103890331715
5.0E-4                    -5.0E-4                  330.9069140605523
5.0E-4                    5.0E-4                   330.2651045868189
5.0E-4                    0.0015                   329.3106544609211
5.0E-4                    0.0025                   328.43656805353027
5.0E-4                    0.0035                   326.80786002681623
5.0E-4                    0.0045                   324.7722070734597
5.0E-4                    0.0055                   322.83141281030487
5.0E-4                    0.0065                   315.5007480029824
5.0E-4                    0.0075                   307.0062061879803
5.0E-4                    0.0085                   298.6085152547589
5.0E-4                    0.0095                   297.14851188623754
5.0E-4                    0.0105                   296.0461848311371
5.0E-4                    0.0115                   294.4167698761775
5.0E-4                    0.0125                   294.39352067373875
5.0E-4                    0.0135                   294.37027147129993
5.0E-4                    0.0145                   293.4931320430293
5.0E-4                    0.0155                   293.28511774169897
5.0E-4                    0.0165                   293.2407321486779
5.0E-4                    0.0175                   293.35736971524125
5.0E-4                    0.0185                   293.7688113266278
5.0E-4                    0.0195                   293.7779895283395
5.0E-4                    0.0205                   293.7871677300512
5.0E-4                    0.0215                   294.68921074357723
5.0E-4                    0.0225                   295.27408332543723
5.0E-4                    0.0235                   296.87068140004857
5.0E-4                    0.0245                   302.9243930460672
5.0E-4                    0.0255                   309.2954496945734
5.0E-4                    0.0265                   314.58098730516156
5.0E-4                    0.0275                   320.0917022269352
5.0E-4                    0.0285                   325.9062623867643
5.0E-4                    0.0295                   330.090445935523
5.0E-4                    0.0305                   332.3465087372716
5.0E-4                    0.0315                   334.60257153902035
0.0015                    -0.0315                  413.7025349950864
0.0015                    -0.0305                  412.9309688843059
0.0015                    -0.0295                  410.9969460255276
0.0015                    -0.0285                  407.9499963068138
0.0015                    -0.0275                  404.51556340673557
0.0015                    -0.0265                  399.66807328795255
0.0015                    -0.0255                  394.3870318521831
0.0015                    -0.0245                  388.88576672767783
0.0015                    -0.0235                  382.5790956229239
0.0015                    -0.0225                  376.1193195241574
0.0015                    -0.0215                  370.1446775537165
0.0015                    -0.0205                  364.5398617153568
0.0015                    -0.0195                  359.03282365622874
0.0015                    -0.0185                  354.3212220662047
0.0015                    -0.0175                  350.8050101384464
0.0015                    -0.0165                  347.4046479999929
0.0015                    -0.0155                  344.63223263225785
0.0015                    -0.0145                  342.8730867538521
0.0015                    -0.0135                  341.1318241327847
0.0015                    -0.0125                  339.68643566504846
0.0015                    -0.0115                  338.86974034283014
0.0015                    -0.0105                  337.9039546706951
0.0015                    -0.0095                  337.0562857464496
0.0015                    -0.0085                  336.61675039585066
0.0015                    -0.0075                  335.87990619139254
0.0015                    -0.0065                  335.3426198529056
0.0015                    -0.0055                  335.15549501744493
0.0015                    -0.0045                  334.48100014035634
0.0015                    -0.0035                  334.1336171974698
0.0015                    -0.0025                  334.05409280567744
0.0015                    -0.0015                  333.3627440200053
0.0015                    -5.0E-4                  333.0128469770269
0.0015                    5.0E-4                   332.7886335554995
0.0015                    0.0015                   331.85930950563176
0.0015                    0.0025                   331.1459505352544
0.0015                    0.0035                   330.3311323618256
0.0015                    0.0045                   328.3056373573503
0.0015                    0.0055                   326.48951890137295
0.0015                    0.0065                   323.1562139491657
0.0015                    0.0075                   314.69973311302203
0.0015                    0.0085                   306.37351907567574
0.0015                    0.0095                   300.58621958918985
0.0015                    0.0105                   298.90040618496926
0.0015                    0.0115                   296.5544966626176
0.0015                    0.0125                   295.9677441874767
0.0015                    0.0135                   294.7124989466604
0.0015                    0.0145                   293.69775467524846
0.0015                    0.0155                   293.33632590266484
0.0015                    0.0165                   293.286990170846
0.0015                    0.0175                   293.48290046851184
0.0015                    0.0185                   294.0895891784959
0.0015                    0.0195                   294.52131500500576
0.0015                    0.0205                   295.0602257773605
0.0015                    0.0215                   296.29171577636475
0.0015                    0.0225                   296.9971662935247
0.0015                    0.0235                   301.59706907442376
0.0015                    0.0245                   307.19347380801116
0.0015                    0.0255                   313.2484958515733
0.0015                    0.0265                   317.169117076071
0.0015                    0.0275                   321.69335373466737
0.0015                    0.0285                   327.1026426091563
0.0015                    0.0295                   330.19893491928576
0.0015                    0.0305                   332.82250543771136
0.0015                    0.0315                   334.2672875720948
0.0025                    -0.0315                  412.4886634802142
0.0025                    -0.0305                  411.177718127158
0.0025                    -0.0295                  409.09137772594227
0.0025                    -0.0285                  406.13284472739565
0.0025                    -0.0275                  402.3492566709259
0.0025                    -0.0265                  397.20991832413415
0.0025                    -0.0255                  392.04659491816216
0.0025                    -0.0245                  386.20269134962433
0.0025                    -0.0235                  379.8113301769066
0.0025                    -0.0225                  373.41996900418883
0.0025                    -0.0215                  367.49804692639975
0.0025                    -0.0205                  361.92354665349876
0.0025                    -0.0195                  356.34904638059777
0.0025                    -0.0185                  352.276511487511
0.0025                    -0.0175                  348.7628007549665
0.0025                    -0.0165                  345.249090022422
0.0025                    -0.0155                  343.24159023516927
0.0025                    -0.0145                  341.4803165931731
0.0025                    -0.0135                  339.7190429511769
0.0025                    -0.0125                  338.89828142271483
0.0025                    -0.0115                  338.07943203841523
0.0025                    -0.0105                  337.28425673136076
0.0025                    -0.0095                  336.9340895035934
0.0025                    -0.0085                  336.4935783668124
0.0025                    -0.0075                  336.2055340588414
0.0025                    -0.0065                  336.0294728986727
0.0025                    -0.0055                  335.8419831485871
0.0025                    -0.0045                  335.79204347081827
0.0025                    -0.0035                  335.71212826678266
0.0025                    -0.0025                  335.63221306274704
0.0025                    -0.0015                  335.5392107282312
0.0025                    -5.0E-4                  335.31495348558263
0.0025                    5.0E-4                   335.0906962429341
0.0025                    0.0015                   334.58298315698755
0.0025                    0.0025                   333.8948685320339
0.0025                    0.0035                   333.2067539070804
0.0025                    0.0045                   331.7292623092269
0.0025                    0.0055                   329.8817703203963
0.0025                    0.0065                   328.0342783315657
0.0025                    0.0075                   321.89527272065675
0.0025                    0.0085                   313.45026562412295
0.0025                    0.0095                   305.2909192181423
0.0025                    0.0105                   302.0965284447926
0.0025                    0.0115                   299.7419966552642
0.0025                    0.0125                   296.4448827239688
0.0025                    0.0135                   294.9908434339898
0.0025                    0.0145                   293.90237730746753
0.0025                    0.0155                   293.47419287494455
0.0025                    0.0165                   293.38936170931163
0.0025                    0.0175                   293.6084312217824
0.0025                    0.0185                   294.2928999776798
0.0025                    0.0195                   295.0865955412298
0.0025                    0.0205                   296.6296897303725
0.0025                    0.0215                   297.8826151585212
0.0025                    0.0225                   300.69421799824727
0.0025                    0.0235                   306.1798341503661
0.0025                    0.0245                   311.66545030248506
0.0025                    0.0255                   315.6699148493178
0.0025                    0.0265                   319.715708067557
0.0025                    0.0275                   323.6778680714782
0.0025                    0.0285                   327.0920151286648
0.0025                    0.0295                   330.02393662676576
0.0025                    0.0305                   332.42446694999813
0.0025                    0.0315                   333.8962934939746
0.0035                    -0.0315                  410.0351901233737
0.0035                    -0.0305                  408.49025680672725
0.0035                    -0.0295                  406.73895150885573
0.0035                    -0.0285                  403.39620340728453
0.0035                    -0.0275                  398.42832962482146
0.0035                    -0.0265                  393.3984617969916
0.0035                    -0.0255                  388.0225540130599
0.0035                    -0.0245                  381.29191978501717
0.0035                    -0.0235                  374.7679507409079
0.0035                    -0.0225                  368.5393179356843
0.0035                    -0.0215                  362.97568441302326
0.0035                    -0.0205                  357.40379472988343
0.0035                    -0.0195                  352.6146187880542
0.0035                    -0.0185                  349.5470825352602
0.0035                    -0.0175                  346.08177243974956
0.0035                    -0.0165                  343.5493943823235
0.0035                    -0.0155                  342.34311837891175
0.0035                    -0.0145                  340.58184473691557
0.0035                    -0.0135                  339.58322255886407
0.0035                    -0.0125                  339.2068552226635
0.0035                    -0.0115                  338.38800583836394
0.0035                    -0.0105                  338.22529349296303
0.0035                    -0.0095                  338.27340057427045
0.0035                    -0.0085                  337.8328894374894
0.0035                    -0.0075                  338.18959992917434
0.0035                    -0.0065                  338.5028542015235
0.0035                    -0.0055                  338.31536445143786
0.0035                    -0.0045                  338.8272503430162
0.0035                    -0.0035                  339.0906048853339
0.0035                    -0.0025                  339.01068968129823
0.0035                    -0.0015                  339.0631994225112
0.0035                    -5.0E-4                  338.9416429004269
0.0035                    5.0E-4                   338.6241990734103
0.0035                    0.0015                   337.65290486904456
0.0035                    0.0025                   336.89715490472327
0.0035                    0.0035                   335.84771996927924
0.0035                    0.0045                   333.86563272198333
0.0035                    0.0055                   332.00409714661345
0.0035                    0.0065                   329.89286107239167
0.0035                    0.0075                   327.24116641368033
0.0035                    0.0085                   318.7961593171466
0.0035                    0.0095                   311.73694208919255
0.0035                    0.0105                   306.6330562869206
0.0035                    0.0115                   303.33954585090396
0.0035                    0.0125                   297.1445273233969
0.0035                    0.0135                   295.3020910668457
0.0035                    0.0145                   294.218001894582
0.0035                    0.0155                   293.50781261643385
0.0035                    0.0165                   293.44881957721134
0.0035                    0.0175                   293.89435730637496
0.0035                    0.0185                   294.57556456818304
0.0035                    0.0195                   296.6233947317629
0.0035                    0.0205                   299.4866950892086
0.0035                    0.0215                   300.74228226920974
0.0035                    0.0225                   304.941645620548
0.0035                    0.0235                   310.07152115890875
0.0035                    0.0245                   314.0816958454584
0.0035                    0.0255                   316.7610166328805
0.0035                    0.0265                   320.8068098511197
0.0035                    0.0275                   322.9742439480481
0.0035                    0.0285                   326.25848302292354
0.0035                    0.0295                   329.4158176142929
0.0035                    0.0305                   331.6740057481397
0.0035                    0.0315                   333.07801378303776
0.0045                    -0.0315                  407.38851012290684
0.0045                    -0.0305                  405.83105944752884
0.0045                    -0.0295                  404.2614548611061
0.0045                    -0.0285                  399.4646753261292
0.0045                    -0.0275                  394.4982020594284
0.0045                    -0.0265                  389.5317287927276
0.0045                    -0.0255                  383.1733521187744
0.0045                    -0.0245                  376.44271789073167
0.0045                    -0.0235                  369.72457130490915
0.0045                    -0.0225                  364.0129914975221
0.0045                    -0.0215                  358.44935797486096
0.0045                    -0.0205                  352.88404280626804
0.0045                    -0.0195                  349.664654742494
0.0045                    -0.0185                  346.59711848969994
0.0045                    -0.0175                  343.5077815849282
0.0045                    -0.0165                  342.3097299594418
0.0045                    -0.0155                  341.11167833395547
0.0045                    -0.0145                  339.8895485431286
0.0045                    -0.0135                  339.582182060312
0.0045                    -0.0125                  339.2748155774954
0.0045                    -0.0115                  338.94938501020164
0.0045                    -0.0105                  339.1663302545654
0.0045                    -0.0095                  339.3832754989292
0.0045                    -0.0085                  339.55363585231305
0.0045                    -0.0075                  340.1736657995073
0.0045                    -0.0065                  340.7936957467016
0.0045                    -0.0055                  341.1743131996406
0.0045                    -0.0045                  341.78640619369685
0.0045                    -0.0035                  342.398499187753
0.0045                    -0.0025                  342.46957056430944
0.0045                    -0.0015                  342.5222573122443
0.0045                    -5.0E-4                  342.5683323152713
0.0045                    5.0E-4                   341.7961351267594
0.0045                    0.0015                   340.8248409223936
0.0045                    0.0025                   339.8994412774126
0.0045                    0.0035                   338.0500542292025
0.0045                    0.0045                   336.0679669819065
0.0045                    0.0055                   334.07280752113024
0.0045                    0.0065                   331.6804033683752
0.0045                    0.0075                   329.2879992156202
0.0045                    0.0085                   324.81892995760273
0.0045                    0.0095                   318.1829649602429
0.0045                    0.0105                   311.5469999628831
0.0045                    0.0115                   305.6593823653591
0.0045                    0.0125                   299.46436383785203
0.0045                    0.0135                   295.76550218445334
0.0045                    0.0145                   294.7963361473281
0.0045                    0.0155                   293.7531729745896
0.0045                    0.0165                   293.7054284657524
0.0045                    0.0175                   294.2912583282474
0.0045                    0.0185                   294.9306744369186
0.0045                    0.0195                   298.3418696156254
0.0045                    0.0205                   301.75306479433226
0.0045                    0.0215                   305.2935036631971
0.0045                    0.0225                   309.4928670145353
0.0045                    0.0235                   313.7362265754479
0.0045                    0.0245                   315.8405476317101
0.0045                    0.0255                   317.81781229959574
0.0045                    0.0265                   319.64085702144604
0.0045                    0.0275                   321.44593651753223
0.0045                    0.0285                   324.8591174477916
0.0045                    0.0295                   328.4579081367554
0.0045                    0.0305                   330.6450172570885
0.0045                    0.0315                   331.7708063025958
0.0055                    -0.0315                  404.74183012244
0.0055                    -0.0305                  402.8141907551594
0.0055                    -0.0295                  400.7810838025912
0.0055                    -0.0285                  395.3270581971649
0.0055                    -0.0275                  390.35227451483
0.0055                    -0.0265                  384.6685457992407
0.0055                    -0.0255                  377.9883787546556
0.0055                    -0.0245                  371.2835954867955
0.0055                    -0.0235                  365.1999521433203
0.0055                    -0.0225                  359.86511280867717
0.0055                    -0.0215                  354.3023062922289
0.0055                    -0.0205                  350.4786485419848
0.0055                    -0.0195                  347.66078409564824
0.0055                    -0.0185                  344.58396818257864
0.0055                    -0.0175                  343.00745288404175
0.0055                    -0.0165                  341.92726972962157
0.0055                    -0.0155                  340.7216195278776
0.0055                    -0.0145                  340.44971584459876
0.0055                    -0.0135                  340.205551158283
0.0055                    -0.0125                  339.89358218783804
0.0055                    -0.0115                  340.42767015055625
0.0055                    -0.0105                  340.6785373896497
0.0055                    -0.0095                  340.8941180641563
0.0055                    -0.0085                  341.9338916904556
0.0055                    -0.0075                  342.5538567071503
0.0055                    -0.0065                  343.2010309840393
0.0055                    -0.0055                  344.07377567949067
0.0055                    -0.0045                  344.6858657139949
0.0055                    -0.0035                  345.1883866050078
0.0055                    -0.0025                  345.2744158724099
0.0055                    -0.0015                  345.3267693920857
0.0055                    -5.0E-4                  344.941919796751
0.0055                    5.0E-4                   343.82030729744514
0.0055                    0.0015                   342.8375580551297
0.0055                    0.0025                   341.0106263099448
0.0055                    0.0035                   338.72797174962363
0.0055                    0.0045                   336.7125302410543
0.0055                    0.0055                   333.74605462167887
0.0055                    0.0065                   331.018481497432
0.0055                    0.0075                   328.52539059684983
0.0055                    0.0085                   325.6345281753588
0.0055                    0.0095                   319.1680000406561
0.0055                    0.0105                   312.49802346162477
0.0055                    0.0115                   306.0021514923835
0.0055                    0.0125                   299.8992617521519
0.0055                    0.0135                   295.761158887479
0.0055                    0.0145                   294.5542778354498
0.0055                    0.0155                   293.73040894505755
0.0055                    0.0165                   293.63987938798965
0.0055                    0.0175                   294.2257092504847
0.0055                    0.0185                   296.0262375894402
0.0055                    0.0195                   299.14775981329205
0.0055                    0.0205                   302.63642349547183
0.0055                    0.0215                   306.49368017275947
0.0055                    0.0225                   310.67621145075066
0.0055                    0.0235                   312.5588190300104
0.0055                    0.0245                   313.99019780588014
0.0055                    0.0255                   315.8787206979391
0.0055                    0.0265                   317.9415694585793
0.0055                    0.0275                   319.9176290870163
0.0055                    0.0285                   323.1202323464357
0.0055                    0.0295                   326.1245139201881
0.0055                    0.0305                   328.45964018531265
0.0055                    0.0315                   330.4388139470463
0.0065                    -0.0315                  401.52165798277616
0.0065                    -0.0305                  399.399845408917
0.0065                    -0.0295                  397.0739290821996
0.0065                    -0.0285                  391.61990347677323
0.0065                    -0.0275                  386.1291259106692
0.0065                    -0.0265                  379.4585853779288
0.0065                    -0.0255                  372.7880448451883
0.0065                    -0.0245                  366.0900261817232
0.0065                    -0.0235                  360.88837775336435
0.0065                    -0.0225                  355.72363310161484
0.0065                    -0.0215                  350.85541944973085
0.0065                    -0.0205                  348.3399745107324
0.0065                    -0.0195                  345.824529571734
0.0065                    -0.0185                  343.42630154926803
0.0065                    -0.0175                  342.6091381067981
0.0065                    -0.0165                  341.7674618266912
0.0065                    -0.0155                  341.0127772472976
0.0065                    -0.0145                  341.04608791578585
0.0065                    -0.0135                  341.0108256113765
0.0065                    -0.0125                  341.1581239789126
0.0065                    -0.0115                  341.8369490949433
0.0065                    -0.0105                  342.3684864664191
0.0065                    -0.0095                  343.0851184531415
0.0065                    -0.0085                  344.1757087529555
0.0065                    -0.0075                  345.05930701511403
0.0065                    -0.0065                  345.89174355978645
0.0065                    -0.0055                  346.8170742796775
0.0065                    -0.0045                  347.5664372252361
0.0065                    -0.0035                  347.7578219009047
0.0065                    -0.0025                  347.8578189448019
0.0065                    -0.0015                  347.92500414100493
0.0065                    -5.0E-4                  346.76263894261444
0.0065                    5.0E-4                   345.53852251149857
0.0065                    0.0015                   344.32104377291984
0.0065                    0.0025                   341.6761326448434
0.0065                    0.0035                   339.031221516767
0.0065                    0.0045                   336.56069446345214
0.0065                    0.0055                   333.2220828583129
0.0065                    0.0065                   330.00803724337504
0.0065                    0.0075                   327.27703861368207
0.0065                    0.0085                   324.3781899917194
0.0065                    0.0095                   319.6846643098228
0.0065                    0.0105                   312.896496229826
0.0065                    0.0115                   306.10644523657487