% Model:              SIMBench260525.mph
% Version:            COMSOL 6.2.0.339
% Date:               May 27 2026, 17:41
% Dimension:          2
% Nodes:              4096
% Expressions:        1
% Description:        温度
% Length unit:        m
% x                       y                        T (K)
5.0E-4                    -0.0315                  329.40005254429866
5.0E-4                    -0.0305                  327.74862512631535
5.0E-4                    -0.0295                  326.0953090637645
5.0E-4                    -0.0285                  323.29175181710764
5.0E-4                    -0.0275                  320.8416060527816
5.0E-4                    -0.0265                  318.5861104916717
5.0E-4                    -0.0255                  317.05656728735534
5.0E-4                    -0.0245                  315.5516575102138
5.0E-4                    -0.0235                  314.4929345344933
5.0E-4                    -0.0225                  313.6804477402817
5.0E-4                    -0.0215                  312.77781009822326
5.0E-4                    -0.0205                  312.34679024933394
5.0E-4                    -0.0195                  311.6920056569792
5.0E-4                    -0.0185                  311.03722106462436
5.0E-4                    -0.0175                  310.83841646471603
5.0E-4                    -0.0165                  310.41310600395764
5.0E-4                    -0.0155                  309.9891177038008
5.0E-4                    -0.0145                  309.6225663224833
5.0E-4                    -0.0135                  309.00127424901217
5.0E-4                    -0.0125                  308.3412045747179
5.0E-4                    -0.0115                  306.8192560391059
5.0E-4                    -0.0105                  304.8278442934146
5.0E-4                    -0.0095                  302.9406165442363
5.0E-4                    -0.0085                  300.7923319808125
5.0E-4                    -0.0075                  298.54198824894877
5.0E-4                    -0.0065                  296.49906468665745
5.0E-4                    -0.0055                  296.34131358735243
5.0E-4                    -0.0045                  296.18356248804736
5.0E-4                    -0.0035                  294.79208218219753
5.0E-4                    -0.0025                  294.0367977205801
5.0E-4                    -0.0015                  293.32483552809697
5.0E-4                    -5.0E-4                  293.13381859529716
5.0E-4                    5.0E-4                   293.13044296225144
5.0E-4                    0.0015                   293.2066416729598
5.0E-4                    0.0025                   293.52317547619
5.0E-4                    0.0035                   293.8605836998784
5.0E-4                    0.0045                   294.5194768319863
5.0E-4                    0.0055                   294.51949506270216
5.0E-4                    0.0065                   294.519513293418
5.0E-4                    0.0075                   295.9089408742747
5.0E-4                    0.0085                   297.2048624070205
5.0E-4                    0.0095                   298.5166608848319
5.0E-4                    0.0105                   300.27227137138965
5.0E-4                    0.0115                   302.2790461860184
5.0E-4                    0.0125                   303.8223863125334
5.0E-4                    0.0135                   304.54491032206283
5.0E-4                    0.0145                   305.23407480659046
5.0E-4                    0.0155                   305.74727332767577
5.0E-4                    0.0165                   306.1193104767472
5.0E-4                    0.0175                   306.49134762581866
5.0E-4                    0.0185                   306.728900044564
5.0E-4                    0.0195                   307.13491381791164
5.0E-4                    0.0205                   307.53634490454334
5.0E-4                    0.0215                   307.8621468893739
5.0E-4                    0.0225                   308.47872164683224
5.0E-4                    0.0235                   309.01099341705526
5.0E-4                    0.0245                   309.72031142444365
5.0E-4                    0.0255                   310.68581467198436
5.0E-4                    0.0265                   311.5158588844781
5.0E-4                    0.0275                   313.10272097990685
5.0E-4                    0.0285                   314.86633940186874
5.0E-4                    0.0295                   316.81330465479164
5.0E-4                    0.0305                   318.22210014814334
5.0E-4                    0.0315                   319.63089564149504
0.0015                    -0.0315                  328.674412691784
0.0015                    -0.0305                  327.24449294003523
0.0015                    -0.0295                  324.98786429052615
0.0015                    -0.0285                  321.82900791801205
0.0015                    -0.0275                  319.1582190144774
0.0015                    -0.0265                  317.46850561785163
0.0015                    -0.0255                  315.9022609985708
0.0015                    -0.0245                  314.4607835515308
0.0015                    -0.0235                  314.0184805028575
0.0015                    -0.0225                  313.4783623230164
0.0015                    -0.0215                  312.7524046963384
0.0015                    -0.0205                  312.625247076567
0.0015                    -0.0195                  312.2844439962298
0.0015                    -0.0185                  311.9135202832863
0.0015                    -0.0175                  311.9388065806119
0.0015                    -0.0165                  311.6880301965045
0.0015                    -0.0155                  311.4049481246324
0.0015                    -0.0145                  311.2100741756766
0.0015                    -0.0135                  310.67073517944186
0.0015                    -0.0125                  309.8952170809478
0.0015                    -0.0115                  309.0760642536038
0.0015                    -0.0105                  307.08770885304796
0.0015                    -0.0095                  305.3542101443595
0.0015                    -0.0085                  303.5134129224505
0.0015                    -0.0075                  301.332968613829
0.0015                    -0.0065                  299.41320370448443
0.0015                    -0.0055                  298.2216792886
0.0015                    -0.0045                  297.28009036652736
0.0015                    -0.0035                  295.2397822525676
0.0015                    -0.0025                  294.0472383710506
0.0015                    -0.0015                  293.5347981277089
0.0015                    -5.0E-4                  293.11814589871017
0.0015                    5.0E-4                   293.1085131518669
0.0015                    0.0015                   293.27995629912226
0.0015                    0.0025                   293.4994195692914
0.0015                    0.0035                   294.0678039667574
0.0015                    0.0045                   295.0719515472862
0.0015                    0.0055                   295.47609896561494
0.0015                    0.0065                   296.34492580936444
0.0015                    0.0075                   297.79903148720206
0.0015                    0.0085                   299.1260203873731
0.0015                    0.0095                   300.48534040700815
0.0015                    0.0105                   301.8650252421078
0.0015                    0.0115                   303.85810037711576
0.0015                    0.0125                   304.7177048711444
0.0015                    0.0135                   305.5410359325774
0.0015                    0.0145                   306.1654895921104
0.0015                    0.0155                   306.56550409886654
0.0015                    0.0165                   306.9537805616508
0.0015                    0.0175                   307.22355054654594
0.0015                    0.0185                   307.3598549294597
0.0015                    0.0195                   307.6664378178869
0.0015                    0.0205                   307.8824620593514
0.0015                    0.0215                   307.9947400464729
0.0015                    0.0225                   308.54587131858676
0.0015                    0.0235                   308.83524062343344
0.0015                    0.0245                   309.1762703394394
0.0015                    0.0255                   310.10031452617704
0.0015                    0.0265                   310.76171940343625
0.0015                    0.0275                   311.77462613685805
0.0015                    0.0285                   313.5952677308653
0.0015                    0.0295                   315.74199847186816
0.0015                    0.0305                   317.4735927241827
0.0015                    0.0315                   318.8868337866385
0.0025                    -0.0315                  327.9487728392694
0.0025                    -0.0305                  326.1309202544508
0.0025                    -0.0295                  323.6604498746293
0.0025                    -0.0285                  320.5248036547912
0.0025                    -0.0275                  318.07300464328495
0.0025                    -0.0265                  316.4797242225035
0.0025                    -0.0255                  314.8864438017219
0.0025                    -0.0245                  314.1746061332708
0.0025                    -0.0235                  313.7239763195521
0.0025                    -0.0225                  313.27334650583344
0.0025                    -0.0215                  313.2113426696032
0.0025                    -0.0205                  313.0829141832383
0.0025                    -0.0195                  312.9736359484505
0.0025                    -0.0185                  313.0988024330674
0.0025                    -0.0175                  313.1204952002539
0.0025                    -0.0165                  313.12569074431843
0.0025                    -0.0155                  312.93129675338434
0.0025                    -0.0145                  312.7369027624503
0.0025                    -0.0135                  312.2034626590681
0.0025                    -0.0125                  311.3929208767805
0.0025                    -0.0115                  310.5823790944929
0.0025                    -0.0105                  309.19067633292707
0.0025                    -0.0095                  307.45792191141913
0.0025                    -0.0085                  305.72516748991126
0.0025                    -0.0075                  303.927058832284
0.0025                    -0.0065                  302.00797889897444
0.0025                    -0.0055                  300.0670872084047
0.0025                    -0.0045                  297.90489988005197
0.0025                    -0.0035                  295.8625242386633
0.0025                    -0.0025                  294.1126000618471
0.0025                    -0.0015                  293.69546626241333
0.0025                    -5.0E-4                  293.2783324629795
0.0025                    5.0E-4                   293.1597932117272
0.0025                    0.0015                   293.33146907094897
0.0025                    0.0025                   293.5031449301707
0.0025                    0.0035                   294.3405553846972
0.0025                    0.0045                   295.3468554453892
0.0025                    0.0055                   296.4951192397563
0.0025                    0.0065                   297.9499442092804
0.0025                    0.0075                   299.4036813892777
0.0025                    0.0085                   300.7878946552664
0.0025                    0.0095                   302.1597676746963
0.0025                    0.0105                   303.53164069412617
0.0025                    0.0115                   304.6419880726735
0.0025                    0.0125                   305.4995726146083
0.0025                    0.0135                   306.35715715654305
0.0025                    0.0145                   307.03703589367854
0.0025                    0.0155                   307.4374951294311
0.0025                    0.0165                   307.85033805606486
0.0025                    0.0175                   308.0678824012527
0.0025                    0.0185                   308.2046481463736
0.0025                    0.0195                   308.28148368020777
0.0025                    0.0205                   308.39174442853954
0.0025                    0.0215                   308.5020051768713
0.0025                    0.0225                   308.55706836799067
0.0025                    0.0235                   308.79934887148715
0.0025                    0.0245                   309.04162937498353
0.0025                    0.0255                   309.4495431566162
0.0025                    0.0265                   310.0330176617315
0.0025                    0.0275                   310.6689847996535
0.0025                    0.0285                   312.48627188029906
0.0025                    0.0295                   314.6381657855005
0.0025                    0.0305                   316.5874935445828
0.0025                    0.0315                   318.14296778859296
0.0035                    -0.0315                  326.5805262661154
0.0035                    -0.0305                  324.42083132743585
0.0035                    -0.0295                  322.2352136487174
0.0035                    -0.0285                  319.43816849554133
0.0035                    -0.0275                  317.5413943903495
0.0035                    -0.0265                  315.7960049955318
0.0035                    -0.0255                  314.6476491918448
0.0035                    -0.0245                  314.55019230506787
0.0035                    -0.0235                  314.158275799239
0.0035                    -0.0225                  314.0793302317188
0.0035                    -0.0215                  314.46684997786076
0.0035                    -0.0205                  314.33842149149586
0.0035                    -0.0195                  314.64536348275067
0.0035                    -0.0185                  315.0933499637638
0.0035                    -0.0175                  315.1150427309502
0.0035                    -0.0165                  315.08751282555187
0.0035                    -0.0155                  314.9844897320372
0.0035                    -0.0145                  314.75507535661865
0.0035                    -0.0135                  313.57469812175657
0.0035                    -0.0125                  312.6229237630167
0.0035                    -0.0115                  311.58939913983914
0.0035                    -0.0105                  309.81243718781957
0.0035                    -0.0095                  308.0716430591678
0.0035                    -0.0085                  306.44054968217677
0.0035                    -0.0075                  304.93596351006755
0.0035                    -0.0065                  303.016883576758
0.0035                    -0.0055                  300.58455979983376
0.0035                    -0.0045                  298.0282282189556
0.0035                    -0.0035                  295.9858525775669
0.0035                    -0.0025                  294.5247451895365
0.0035                    -0.0015                  293.63465006791387
0.0035                    -5.0E-4                  293.27785660751414
0.0035                    5.0E-4                   293.16615439856423
0.0035                    0.0015                   293.2848576174376
0.0035                    0.0025                   293.6414021472059
0.0035                    0.0035                   294.23914226374495
0.0035                    0.0045                   295.24544232443697
0.0035                    0.0055                   296.8212249036229
0.0035                    0.0065                   298.4489430517808
0.0035                    0.0075                   299.9010624220862
0.0035                    0.0085                   301.09177016624795
0.0035                    0.0095                   302.39309627043326
0.0035                    0.0105                   303.7117559460164
0.0035                    0.0115                   304.84615158712137
0.0035                    0.0125                   305.7532134735672
0.0035                    0.0135                   306.8311058175807
0.0035                    0.0145                   308.1491775113244
0.0035                    0.0155                   308.54963674707693
0.0035                    0.0165                   309.1000992366556
0.0035                    0.0175                   309.59973331280753
0.0035                    0.0185                   309.7364990579284
0.0035                    0.0195                   309.6350598369056
0.0035                    0.0205                   309.6250957439935
0.0035                    0.0215                   309.6594447204022
0.0035                    0.0225                   309.2984460262862
0.0035                    0.0235                   309.4213881291188
0.0035                    0.0245                   309.5066039852165
0.0035                    0.0255                   309.6244218439622
0.0035                    0.0265                   310.20789634907754
0.0035                    0.0275                   310.62971278879104
0.0035                    0.0285                   311.70906302379944
0.0035                    0.0295                   313.54792849729097
0.0035                    0.0305                   315.44302906040093
0.0035                    0.0315                   317.17081078702887
0.0045                    -0.0315                  325.57324904291977
0.0045                    -0.0305                  323.19096001524235
0.0045                    -0.0295                  320.83541127860536
0.0045                    -0.0285                  318.92160076806243
0.0045                    -0.0275                  317.02720239057066
0.0045                    -0.0265                  315.1304282853788
0.0045                    -0.0255                  314.8693249407238
0.0045                    -0.0245                  314.77186805394683
0.0045                    -0.0235                  314.6254768450402
0.0045                    -0.0225                  315.0180344964868
0.0045                    -0.0215                  315.41059214793324
0.0045                    -0.0205                  315.7579150520133
0.0045                    -0.0195                  316.31709101705087
0.0045                    -0.0185                  316.87626698208845
0.0045                    -0.0175                  317.0831567800909
0.0045                    -0.0165                  317.0462383791062
0.0045                    -0.0155                  317.0093199781215
0.0045                    -0.0145                  316.2050865339786
0.0045                    -0.0135                  315.02470929911647
0.0045                    -0.0125                  313.8529266492528
0.0045                    -0.0115                  312.2293769530055
0.0045                    -0.0105                  310.4524150009858
0.0045                    -0.0095                  308.6944471172946
0.0045                    -0.0085                  307.19874596295904
0.0045                    -0.0075                  305.7030448086234
0.0045                    -0.0065                  303.8272744942235
0.0045                    -0.0055                  301.10203239126287
0.0045                    -0.0045                  298.37679028830223
0.0045                    -0.0035                  296.43150006943023
0.0045                    -0.0025                  295.031625266692
0.0045                    -0.0015                  293.63175046395384
0.0045                    -5.0E-4                  293.3961929775772
0.0045                    5.0E-4                   293.2844907686273
0.0045                    0.0015                   293.2663419919554
0.0045                    0.0025                   293.8119426107364
0.0045                    0.0035                   294.35754322951743
0.0045                    0.0045                   295.4052491563258
0.0045                    0.0055                   297.1473305674896
0.0045                    0.0065                   298.88941197865324
0.0045                    0.0075                   300.24231496144813
0.0045                    0.0085                   301.43302270560986
0.0045                    0.0095                   302.6264248661702
0.0045                    0.0105                   303.80147487526733
0.0045                    0.0115                   304.93587051637235
0.0045                    0.0125                   306.03462687803693
0.0045                    0.0135                   307.3846182842321
0.0045                    0.0145                   308.7346096904272
0.0045                    0.0155                   309.72699963131936
0.0045                    0.0165                   310.3498604172464
0.0045                    0.0175                   310.9727212031734
0.0045                    0.0185                   311.1286095575374
0.0045                    0.0195                   311.00176045944926
0.0045                    0.0205                   310.8749113613611
0.0045                    0.0215                   310.59562153770923
0.0045                    0.0225                   310.2346228435932
0.0045                    0.0235                   309.99826435156206
0.0045                    0.0245                   309.91319021389677
0.0045                    0.0255                   309.83518044488926
0.0045                    0.0265                   310.1880914858361
0.0045                    0.0275                   310.5790681774318
0.0045                    0.0285                   311.7182585299352
0.0045                    0.0295                   312.94428748092224
0.0045                    0.0305                   314.5412106758501
0.0045                    0.0315                   316.51122389162293
0.0055                    -0.0315                  324.5659718197243
0.0055                    -0.0305                  322.52044398458713
0.0055                    -0.0295                  320.4967514592611
0.0055                    -0.0285                  318.3260422797216
0.0055                    -0.0275                  316.43167314709234
0.0055                    -0.0265                  315.4426523357047
0.0055                    -0.0255                  315.316111209366
0.0055                    -0.0245                  315.2074529552225
0.0055                    -0.0235                  315.6207642952093
0.0055                    -0.0225                  316.1594198160983
0.0055                    -0.0215                  316.5541909688271
0.0055                    -0.0205                  317.3454768156414
0.0055                    -0.0195                  317.9702830604533
0.0055                    -0.0185                  318.50567257452025
0.0055                    -0.0175                  318.6333545933526
0.0055                    -0.0165                  318.5988480374831
0.0055                    -0.0155                  318.2536418876232
0.0055                    -0.0145                  317.05372307875314
0.0055                    -0.0135                  315.8754811227294
0.0055                    -0.0125                  314.0647626498872
0.0055                    -0.0115                  311.83982177866255
0.0055                    -0.0105                  310.06437322339616
0.0055                    -0.0095                  308.27000378821674
0.0055                    -0.0085                  306.6599772776373
0.0055                    -0.0075                  305.16288606101756
0.0055                    -0.0065                  303.95064782788836
0.0055                    -0.0055                  301.46928637557556
0.0055                    -0.0045                  298.76891143292005
0.0055                    -0.0035                  296.38783610504316
0.0055                    -0.0025                  294.9859143306538
0.0055                    -0.0015                  293.8585736138758
0.0055                    -5.0E-4                  293.38800335911515
0.0055                    5.0E-4                   293.2762589029142
0.0055                    0.0015                   293.3191805820642
0.0055                    0.0025                   293.7158121599082
0.0055                    0.0035                   294.2624681766463
0.0055                    0.0045                   295.3421494259501
0.0055                    0.0055                   297.04507387641274
0.0055                    0.0065                   298.66374807600664
0.0055                    0.0075                   299.7940672606346
0.0055                    0.0085                   300.9832998056835
0.0055                    0.0095                   302.0718293672884
0.0055                    0.0105                   303.10120728528034
0.0055                    0.0115                   304.2318383711729
0.0055                    0.0125                   305.70109706749145
0.0055                    0.0135                   307.1534379432388
0.0055                    0.0145                   308.4975939326403
0.0055                    0.0155                   310.4272847163222
0.0055                    0.0165                   311.2445651145569
0.0055                    0.0175                   311.88845582436267
0.0055                    0.0185                   312.57092937131074
0.0055                    0.0195                   312.44414773810934
0.0055                    0.0205                   312.2318514903295
0.0055                    0.0215                   311.88669267743586
0.0055                    0.0225                   311.5248862976158
0.0055                    0.0235                   310.82213562378365
0.0055                    0.0245                   310.521654499349
0.0055                    0.0255                   310.459780483866
0.0055                    0.0265                   310.4202773404709
0.0055                    0.0275                   310.5284235660726
0.0055                    0.0285                   311.64102779257223
0.0055                    0.0295                   312.71383054085084
0.0055                    0.0305                   314.1819146027457
0.0055                    0.0315                   315.860182640289
0.0065                    -0.0315                  324.23322672345904
0.0065                    -0.0305                  322.1916066069831
0.0065                    -0.0295                  320.15327907443765
0.0065                    -0.0285                  317.9719050898793
0.0065                    -0.0275                  316.064361476758
0.0065                    -0.0265                  315.9234960076104
0.0065                    -0.0255                  315.78263053846274
0.0065                    -0.0245                  315.8099190141684
0.0065                    -0.0235                  316.5680548309322
0.0065                    -0.0225                  317.32619064769597
0.0065                    -0.0215                  317.93083678858324
0.0065                    -0.0205                  318.80395920022806
0.0065                    -0.0195                  319.6206701534557
0.0065                    -0.0185                  319.89693887945504
0.0065                    -0.0175                  320.0265263981561
0.0065                    -0.0165                  320.0875479868247
0.0065                    -0.0155                  319.01713389517465
0.0065                    -0.0145                  317.81084519853493
0.0065                    -0.0135                  316.5233376220854
0.0065                    -0.0125                  313.9579581342669
0.0065                    -0.0115                  311.39257864644844
0.0065                    -0.0105                  309.4825010027802
0.0065                    -0.0095                  307.6779056957049
0.0065                    -0.0085                  305.8861420004879
0.0065                    -0.0075                  304.5439473330229
0.0065                    -0.0065                  303.3797019920057
0.0065                    -0.0055                  301.8104811064239
0.0065                    -0.0045                  299.2598672169021
0.0065                    -0.0035                  296.7833486062723
0.0065                    -0.0025                  294.8514087020342
0.0065                    -0.0015                  294.15679314397926
0.0065                    -5.0E-4                  293.48439358868177
0.0065                    5.0E-4                   293.30718190696973
0.0065                    0.0015                   293.4287139071067
0.0065                    0.0025                   293.5770024509859
0.0065                    0.0035                   294.4244633651457
0.0065                    0.0045                   295.53635159108956
0.0065                    0.0055                   296.8661901146129
0.0065                    0.0065                   298.11096468581746
0.0065                    0.0075                   299.2264923626352
0.0065                    0.0085                   300.37849757718556
0.0065                    0.0095                   301.3345931775161
0.0065                    0.0105                   302.29068877784675
0.0065                    0.0115                   303.527196110047