% Model:              SIMBench260525.mph
% Version:            COMSOL 6.2.0.339
% Date:               May 27 2026, 17:19
% Dimension:          2
% Nodes:              4096
% Expressions:        1
% Description:        温度
% Length unit:        m
% x                       y                        T (K)
5.0E-4                    -0.0315                  327.883920447243
5.0E-4                    -0.0305                  326.4528534429206
5.0E-4                    -0.0295                  325.0211822047738
5.0E-4                    -0.0285                  323.1040099054132
5.0E-4                    -0.0275                  321.5164119209927
5.0E-4                    -0.0265                  319.92881393657217
5.0E-4                    -0.0255                  319.1440897549267
5.0E-4                    -0.0245                  318.3430556760937
5.0E-4                    -0.0235                  317.5596291873324
5.0E-4                    -0.0225                  317.20215938960666
5.0E-4                    -0.0215                  316.7403203566332
5.0E-4                    -0.0205                  316.3043680371101
5.0E-4                    -0.0195                  316.07976984376074
5.0E-4                    -0.0185                  315.81752384460003
5.0E-4                    -0.0175                  315.565251725514
5.0E-4                    -0.0165                  315.3853800721187
5.0E-4                    -0.0155                  315.22233848109295
5.0E-4                    -0.0145                  315.04982623348866
5.0E-4                    -0.0135                  314.9114127527206
5.0E-4                    -0.0125                  314.818381607427
5.0E-4                    -0.0115                  314.68272899677794
5.0E-4                    -0.0105                  314.59925316672036
5.0E-4                    -0.0095                  314.59743090923655
5.0E-4                    -0.0085                  314.53000729109715
5.0E-4                    -0.0075                  314.48199231399394
5.0E-4                    -0.0065                  314.48808126358335
5.0E-4                    -0.0055                  314.45123039178384
5.0E-4                    -0.0045                  314.3416812892174
5.0E-4                    -0.0035                  314.2293416550588
5.0E-4                    -0.0025                  314.1527768377987
5.0E-4                    -0.0015                  313.84460075945395
5.0E-4                    -5.0E-4                  313.49209883247346
5.0E-4                    5.0E-4                   313.27730473442614
5.0E-4                    0.0015                   312.24101827888774
5.0E-4                    0.0025                   311.1295063525817
5.0E-4                    0.0035                   310.311512383176
5.0E-4                    0.0045                   307.64603243457077
5.0E-4                    0.0055                   304.9624269136948
5.0E-4                    0.0065                   303.0576957909557
5.0E-4                    0.0075                   300.64814488786146
5.0E-4                    0.0085                   298.23859398476714
5.0E-4                    0.0095                   296.5487959437513
5.0E-4                    0.0105                   296.61514905850487
5.0E-4                    0.0115                   296.68150217325837
5.0E-4                    0.0125                   295.08813118414207
5.0E-4                    0.0135                   294.20505715379346
5.0E-4                    0.0145                   293.3729139201653
5.0E-4                    0.0155                   293.144421086028
5.0E-4                    0.0165                   293.1352971828307
5.0E-4                    0.0175                   293.16220493297044
5.0E-4                    0.0185                   293.2731670186161
5.0E-4                    0.0195                   293.3899327167833
5.0E-4                    0.0205                   293.5941274526931
5.0E-4                    0.0215                   293.5746026050399
5.0E-4                    0.0225                   293.5550777573867
5.0E-4                    0.0235                   293.7843537060452
5.0E-4                    0.0245                   294.0507063405614
5.0E-4                    0.0255                   294.3170589750777
5.0E-4                    0.0265                   294.7875337995905
5.0E-4                    0.0275                   295.65406204766657
5.0E-4                    0.0285                   296.52059029574264
5.0E-4                    0.0295                   297.3238455352598
5.0E-4                    0.0305                   298.35599413697463
5.0E-4                    0.0315                   299.38814273868945
0.0015                    -0.0315                  327.1471090131274
0.0015                    -0.0305                  325.7382410304798
0.0015                    -0.0295                  324.06415561826725
0.0015                    -0.0285                  321.87353961168174
0.0015                    -0.0275                  320.0093270667073
0.0015                    -0.0265                  318.9689556906162
0.0015                    -0.0255                  318.2278621492936
0.0015                    -0.0245                  317.44540414694757
0.0015                    -0.0235                  317.0050057732437
0.0015                    -0.0225                  316.7169932526003
0.0015                    -0.0215                  316.2901395056417
0.0015                    -0.0205                  316.0319969127556
0.0015                    -0.0195                  315.8402356649316
0.0015                    -0.0185                  315.5875554479111
0.0015                    -0.0175                  315.37631474084935
0.0015                    -0.0165                  315.17731969731346
0.0015                    -0.0155                  315.0117258558593
0.0015                    -0.0145                  314.81168940472884
0.0015                    -0.0135                  314.6057333618577
0.0015                    -0.0125                  314.51206508723374
0.0015                    -0.0115                  314.2811617408094
0.0015                    -0.0105                  314.0504671631894
0.0015                    -0.0095                  314.0486449057056
0.0015                    -0.0085                  313.8627029589735
0.0015                    -0.0075                  313.6932683219619
0.0015                    -0.0065                  313.69646831278055
0.0015                    -0.0055                  313.59761517453995
0.0015                    -0.0045                  313.49634443434155
0.0015                    -0.0035                  313.39091168179664
0.0015                    -0.0025                  313.35388522444936
0.0015                    -0.0015                  313.2395193332538
0.0015                    -5.0E-4                  312.9270491538061
0.0015                    5.0E-4                   312.82892795814365
0.0015                    0.0015                   312.4160081184406
0.0015                    0.0025                   311.4119403452338
0.0015                    0.0035                   310.78362199242895
0.0015                    0.0045                   309.3875654892075
0.0015                    0.0055                   307.06168676627715
0.0015                    0.0065                   305.61809708629096
0.0015                    0.0075                   303.7464533523985
0.0015                    0.0085                   301.56907946920705
0.0015                    0.0095                   299.7950989005237
0.0015                    0.0105                   299.00717976506394
0.0015                    0.0115                   297.9385613836589
0.0015                    0.0125                   295.54982348982
0.0015                    0.0135                   294.227066797715
0.0015                    0.0145                   293.6237185926247
0.0015                    0.0155                   293.1214448675673
0.0015                    0.0165                   293.11383304361016
0.0015                    0.0175                   293.1842160282361
0.0015                    0.0185                   293.2681099843251
0.0015                    0.0195                   293.44153010364033
0.0015                    0.0205                   293.7445582589381
0.0015                    0.0215                   293.8806941920546
0.0015                    0.0225                   293.9742123615977
0.0015                    0.0235                   294.28456994217726
0.0015                    0.0245                   294.56852203803
0.0015                    0.0255                   294.8898905097615
0.0015                    0.0265                   295.2886295025155
0.0015                    0.0275                   295.97994651156824
0.0015                    0.0285                   296.78977883108024
0.0015                    0.0295                   297.4699288647683
0.0015                    0.0305                   298.38971223011987
0.0015                    0.0315                   299.58119706392625
0.0025                    -0.0315                  326.41029757901185
0.0025                    -0.0305                  324.7771896801831
0.0025                    -0.0295                  322.886904864364
0.0025                    -0.0285                  320.7129880912543
0.0025                    -0.0275                  318.971913456557
0.0025                    -0.0265                  318.1828486069802
0.0025                    -0.0255                  317.4242323252956
0.0025                    -0.0245                  316.88273051146757
0.0025                    -0.0235                  316.5801756589374
0.0025                    -0.0225                  316.2776208064071
0.0025                    -0.0215                  316.05246255817394
0.0025                    -0.0205                  315.8573248679189
0.0025                    -0.0195                  315.66218717766384
0.0025                    -0.0185                  315.4780742327707
0.0025                    -0.0175                  315.2767521998418
0.0025                    -0.0165                  315.0754301669128
0.0025                    -0.0155                  314.7984559025254
0.0025                    -0.0145                  314.59197923198025
0.0025                    -0.0135                  314.3855025614352
0.0025                    -0.0125                  314.1092082940063
0.0025                    -0.0115                  313.86642177823023
0.0025                    -0.0105                  313.6236352624542
0.0025                    -0.0095                  313.38184317522
0.0025                    -0.0085                  313.18981406754546
0.0025                    -0.0075                  312.99778495987084
0.0025                    -0.0065                  312.8506445313113
0.0025                    -0.0055                  312.7517687972506
0.0025                    -0.0045                  312.65289306318994
0.0025                    -0.0035                  312.59349022332304
0.0025                    -0.0025                  312.556462482019
0.0025                    -0.0015                  312.51943474071504
0.0025                    -5.0E-4                  312.4555748806815
0.0025                    5.0E-4                   312.3574970683653
0.0025                    0.0015                   312.25941925604917
0.0025                    0.0025                   311.81211640358026
0.0025                    0.0035                   311.1829235373367
0.0025                    0.0045                   310.55373067109315
0.0025                    0.0055                   309.3721599437909
0.0025                    0.0065                   307.9235524117386
0.0025                    0.0075                   306.47494487968623
0.0025                    0.0085                   304.874175162321
0.0025                    0.0095                   303.0974441766834
0.0025                    0.0105                   301.1358333537717
0.0025                    0.0115                   298.67960964761994
0.0025                    0.0125                   296.29015955777504
0.0025                    0.0135                   294.3325978358764
0.0025                    0.0145                   293.83019243124556
0.0025                    0.0155                   293.3277870266146
0.0025                    0.0165                   293.1300491516043
0.0025                    0.0175                   293.20075185619305
0.0025                    0.0185                   293.27145456078176
0.0025                    0.0195                   293.52461340061166
0.0025                    0.0205                   293.8311820200423
0.0025                    0.0215                   294.137750639473
0.0025                    0.0225                   294.45449766802426
0.0025                    0.0235                   294.76653653316015
0.0025                    0.0245                   295.07861452617294
0.0025                    0.0255                   295.4885122181195
0.0025                    0.0265                   295.8872512108734
0.0025                    0.0275                   296.3058309754699
0.0025                    0.0285                   296.99637993833574
0.0025                    0.0295                   297.6068670454122
0.0025                    0.0305                   298.5253870502344
0.0025                    0.0315                   299.7774713238669
0.0035                    -0.0315                  325.33517553064314
0.0035                    -0.0305                  323.4263670756791
0.0035                    -0.0295                  321.64416425065383
0.0035                    -0.0285                  319.70936326714354
0.0035                    -0.0275                  318.68860752193575
0.0035                    -0.0265                  317.7404182523105
0.0035                    -0.0255                  317.01512892247865
0.0035                    -0.0245                  316.86590875810657
0.0035                    -0.0235                  316.6418547241302
0.0035                    -0.0225                  316.3536817676634
0.0035                    -0.0215                  316.3142200145834
0.0035                    -0.0205                  316.1837390542935
0.0035                    -0.0195                  315.9954008775185
0.0035                    -0.0185                  315.8654573522702
0.0035                    -0.0175                  315.68908541047875
0.0035                    -0.0165                  315.42871997010667
0.0035                    -0.0155                  314.8120393202135
0.0035                    -0.0145                  314.4883139046721
0.0035                    -0.0135                  314.2201692388928
0.0035                    -0.0125                  313.67188729457166
0.0035                    -0.0115                  313.36032562209584
0.0035                    -0.0105                  313.08650247329564
0.0035                    -0.0095                  312.70081631436676
0.0035                    -0.0085                  312.47557128471624
0.0035                    -0.0075                  312.2801479903436
0.0035                    -0.0065                  312.07546775612116
0.0035                    -0.0055                  311.96475428985343
0.0035                    -0.0045                  311.8761862087752
0.0035                    -0.0035                  311.80873811449374
0.0035                    -0.0025                  311.7702314204257
0.0035                    -0.0015                  311.76522044107895
0.0035                    -5.0E-4                  311.8076262893619
0.0035                    5.0E-4                   311.7095484770457
0.0035                    0.0015                   311.6762405260019
0.0035                    0.0025                   311.6658876698167
0.0035                    0.0035                   311.0366948035731
0.0035                    0.0045                   310.64791293105645
0.0035                    0.0055                   310.29333955698553
0.0035                    0.0065                   308.8447320249332
0.0035                    0.0075                   307.8649684260039
0.0035                    0.0085                   306.92488307004294
0.0035                    0.0095                   305.14815208440535
0.0035                    0.0105                   302.04666747048356
0.0035                    0.0115                   298.9358446258276
0.0035                    0.0125                   296.5463945359828
0.0035                    0.0135                   294.7379600288808
0.0035                    0.0145                   293.7602386825083
0.0035                    0.0155                   293.3237288009428
0.0035                    0.0165                   293.1389981757248
0.0035                    0.0175                   293.1798194687171
0.0035                    0.0185                   293.30031895456307
0.0035                    0.0195                   293.49721814519296
0.0035                    0.0205                   293.8037867646236
0.0035                    0.0215                   294.1813057379331
0.0035                    0.0225                   294.58132570070256
0.0035                    0.0235                   294.8933645658385
0.0035                    0.0245                   295.20241017105104
0.0035                    0.0255                   295.56773588759097
0.0035                    0.0265                   296.0021858038626
0.0035                    0.0275                   296.2349152339936
0.0035                    0.0285                   296.93639901763953
0.0035                    0.0295                   297.5784959631673
0.0035                    0.0305                   298.558339324001
0.0035                    0.0315                   299.70650924351537
0.0045                    -0.0315                  324.57350229333775
0.0045                    -0.0305                  322.51739521322634
0.0045                    -0.0295                  320.5253600958095
0.0045                    -0.0285                  319.4242935973245
0.0045                    -0.0275                  318.40397423106884
0.0045                    -0.0265                  317.38365486481325
0.0045                    -0.0255                  316.9872675203636
0.0045                    -0.0245                  316.83804735599165
0.0045                    -0.0235                  316.68882719161957
0.0045                    -0.0225                  316.58491302951114
0.0045                    -0.0215                  316.5454512764311
0.0045                    -0.0205                  316.50598952335105
0.0045                    -0.0195                  316.36413442027595
0.0045                    -0.0185                  316.23419089502767
0.0045                    -0.0175                  316.1014186211158
0.0045                    -0.0165                  315.5756192918689
0.0045                    -0.0155                  314.95893864197575
0.0045                    -0.0145                  314.384648577364
0.0045                    -0.0135                  313.9017501387419
0.0045                    -0.0125                  313.35346819442077
0.0045                    -0.0115                  312.85422946596145
0.0045                    -0.0105                  312.49092405873216
0.0045                    -0.0095                  312.1052378998031
0.0045                    -0.0085                  311.76132850188696
0.0045                    -0.0075                  311.558036409823
0.0045                    -0.0065                  311.35335617560054
0.0045                    -0.0055                  311.17773978245623
0.0045                    -0.0045                  311.1086341134021
0.0045                    -0.0035                  311.0411860191206
0.0045                    -0.0025                  310.9847602887688
0.0045                    -0.0015                  311.0295231898589
0.0045                    -5.0E-4                  311.0742860909489
0.0045                    5.0E-4                   311.07198543917826
0.0045                    0.0015                   311.11616540902463
0.0045                    0.0025                   311.160345378871
0.0045                    0.0035                   310.9543416280013
0.0045                    0.0045                   310.7866866211587
0.0045                    0.0055                   310.61903161431616
0.0045                    0.0065                   309.9425766335922
0.0045                    0.0075                   309.2653231937864
0.0045                    0.0085                   308.5880697539807
0.0045                    0.0095                   306.5340647276795
0.0045                    0.0105                   302.95750158719534
0.0045                    0.0115                   299.3809384467112
0.0045                    0.0125                   297.1523562489449
0.0045                    0.0135                   295.37005039389413
0.0045                    0.0145                   293.6902849337712
0.0045                    0.0155                   293.44561017729364
0.0045                    0.0165                   293.2608795520756
0.0045                    0.0175                   293.16413979255094
0.0045                    0.0185                   293.34611937749037
0.0045                    0.0195                   293.5280989624299
0.0045                    0.0205                   293.80692016788794
0.0045                    0.0215                   294.2361156719914
0.0045                    0.0225                   294.6653111760948
0.0045                    0.0235                   295.0201925985168
0.0045                    0.0245                   295.3263874722133
0.0045                    0.0255                   295.63210401427284
0.0045                    0.0265                   295.8585474673571
0.0045                    0.0275                   296.02267886101373
0.0045                    0.0285                   296.6795031867198
0.0045                    0.0295                   297.45608232415486
0.0045                    0.0305                   298.2920618223658
0.0045                    0.0315                   299.21585749768934
0.0055                    -0.0315                  323.8118290560323
0.0055                    -0.0305                  322.1016428867101
0.0055                    -0.0295                  320.4192023078445
0.0055                    -0.0285                  319.1491582131474
0.0055                    -0.0275                  318.1056525616133
0.0055                    -0.0265                  317.4008472994676
0.0055                    -0.0255                  317.23586278790634
0.0055                    -0.0245                  317.0658237153129
0.0055                    -0.0235                  316.99881548544283
0.0055                    -0.0225                  317.1198637991481
0.0055                    -0.0215                  317.0794651103443
0.0055                    -0.0205                  316.86128046923557
0.0055                    -0.0195                  316.5077358884706
0.0055                    -0.0185                  316.38081641153036
0.0055                    -0.0175                  315.8285570490243
0.0055                    -0.0165                  314.92956755995283
0.0055                    -0.0155                  314.3235030576439
0.0055                    -0.0145                  313.6568334290903
0.0055                    -0.0135                  313.0115524409314
0.0055                    -0.0125                  312.46784725367434
0.0055                    -0.0115                  312.00438086700615
0.0055                    -0.0105                  311.62504714731386
0.0055                    -0.0095                  311.24033924584967
0.0055                    -0.0085                  310.97721507610174
0.0055                    -0.0075                  310.79496168061485
0.0055                    -0.0065                  310.59032018544576
0.0055                    -0.0055                  310.477231938071
0.0055                    -0.0045                  310.41769498771293
0.0055                    -0.0035                  310.35022248083135
0.0055                    -0.0025                  310.3325232785601
0.0055                    -0.0015                  310.36809125268235
0.0055                    -5.0E-4                  310.41282382748216
0.0055                    5.0E-4                   310.4648956601519
0.0055                    0.0015                   310.51140849070356
0.0055                    0.0025                   310.5555681545367
0.0055                    0.0035                   310.641782193093
0.0055                    0.0045                   310.5098281749165
0.0055                    0.0055                   310.33876280311006
0.0055                    0.0065                   310.2428251550261
0.0055                    0.0075                   309.59021780613443
0.0055                    0.0085                   308.9024717373825
0.0055                    0.0095                   307.37895592636255
0.0055                    0.0105                   303.8023682897761
0.0055                    0.0115                   300.2276873751284
0.0055                    0.0125                   297.17516951629085
0.0055                    0.0135                   295.3948501815015
0.0055                    0.0145                   293.9795113759006
0.0055                    0.0155                   293.45353911208355
0.0055                    0.0165                   293.2691064168493
0.0055                    0.0175                   293.1896928173575
0.0055                    0.0185                   293.33021516348595
0.0055                    0.0195                   293.51180360774765
0.0055                    0.0205                   293.80037286925756
0.0055                    0.0215                   294.2414179447923
0.0055                    0.0225                   294.682463020327
0.0055                    0.0235                   295.0312231537887
0.0055                    0.0245                   295.2156184878661
0.0055                    0.0255                   295.4339125486095
0.0055                    0.0265                   295.6224583286729
0.0055                    0.0275                   295.80810824006585
0.0055                    0.0285                   296.31058906745767
0.0055                    0.0295                   296.90029339775924
0.0055                    0.0305                   297.7461721616622
0.0055                    0.0315                   298.7232832238035
0.0065                    -0.0315                  323.6981485977871
0.0065                    -0.0305                  321.99040331573104
0.0065                    -0.0295                  320.3418113891403
0.0065                    -0.0285                  319.0717672944433
0.0065                    -0.0275                  317.8107633895117
0.0065                    -0.0265                  317.6469700333925
0.0065                    -0.0255                  317.4831766772732
0.0065                    -0.0245                  317.3149771955536
0.0065                    -0.0235                  317.45447040324075
0.0065                    -0.0225                  317.64137838955486
0.0065                    -0.0215                  317.65199764918776
0.0065                    -0.0205                  317.17153505652834
0.0065                    -0.0195                  316.6910724638689
0.0065                    -0.0185                  316.39524084286165
0.0065                    -0.0175                  315.2768967872496
0.0065                    -0.0165                  314.1585527316374
0.0065                    -0.0155                  313.44842563039913
0.0065                    -0.0145                  312.7047920340171
0.0065                    -0.0135                  311.96115843763505
0.0065                    -0.0125                  311.40988066110486
0.0065                    -0.0115                  311.0370685944963
0.0065                    -0.0105                  310.6642565278877
0.0065                    -0.0095                  310.3130023098819
0.0065                    -0.0085                  310.16486253020804
0.0065                    -0.0075                  310.0167227505342
0.0065                    -0.0065                  309.8436568069152
0.0065                    -0.0055                  309.7996622765668
0.0065                    -0.0045                  309.75450394430663
0.0065                    -0.0035                  309.70697554042005
0.0065                    -0.0025                  309.71846412323873
0.0065                    -0.0015                  309.7336645326005
0.0065                    -5.0E-4                  309.78172646335287
0.0065                    5.0E-4                   309.83704527510645
0.0065                    0.0015                   309.89039429248646
0.0065                    0.0025                   309.9555735312782
0.0065                    0.0035                   310.05519428928096
0.0065                    0.0045                   310.0882355260288
0.0065                    0.0055                   309.958468057073
0.0065                    0.0065                   309.8760012576835
0.0065                    0.0075                   309.57890382967906
0.0065                    0.0085                   308.4789503222721
0.0065                    0.0095                   307.1262803109805
0.0065                    0.0105                   304.62789842736714
0.0065                    0.0115                   301.0592434524567