% Model:              SIMBench260525.mph
% Version:            COMSOL 6.2.0.339
% Date:               May 27 2026, 17:38
% Dimension:          2
% Nodes:              4096
% Expressions:        1
% Description:        温度
% Length unit:        m
% x                       y                        T (K)
5.0E-4                    -0.0315                  314.1883007813769
5.0E-4                    -0.0305                  313.030033919537
5.0E-4                    -0.0295                  311.8666309353475
5.0E-4                    -0.0285                  310.1494118287463
5.0E-4                    -0.0275                  308.5267782428934
5.0E-4                    -0.0265                  306.90414465704055
5.0E-4                    -0.0255                  305.96726604438237
5.0E-4                    -0.0245                  305.0232153512058
5.0E-4                    -0.0235                  304.07916465802936
5.0E-4                    -0.0225                  303.67924484427374
5.0E-4                    -0.0215                  303.1555923752271
5.0E-4                    -0.0205                  302.6319399061806
5.0E-4                    -0.0195                  302.4043939873314
5.0E-4                    -0.0185                  301.9632607976867
5.0E-4                    -0.0175                  301.5221276080419
5.0E-4                    -0.0165                  301.38356734776903
5.0E-4                    -0.0155                  301.0903874895078
5.0E-4                    -0.0145                  300.79720763124664
5.0E-4                    -0.0135                  300.74776342968767
5.0E-4                    -0.0125                  300.6249304775748
5.0E-4                    -0.0115                  300.502097525462
5.0E-4                    -0.0105                  300.4386877086008
5.0E-4                    -0.0095                  300.27026610276465
5.0E-4                    -0.0085                  300.10184449692844
5.0E-4                    -0.0075                  299.8349483717002
5.0E-4                    -0.0065                  299.34785964040583
5.0E-4                    -0.0055                  298.86077090911147
5.0E-4                    -0.0045                  298.217283596942
5.0E-4                    -0.0035                  297.1691935302275
5.0E-4                    -0.0025                  296.121103463513
5.0E-4                    -0.0015                  295.3038274146444
5.0E-4                    -5.0E-4                  294.8566639717709
5.0E-4                    5.0E-4                   294.4095005288975
5.0E-4                    0.0015                   293.9312715805484
5.0E-4                    0.0025                   294.0347386466697
5.0E-4                    0.0035                   294.13820571279103
5.0E-4                    0.0045                   293.6885594966812
5.0E-4                    0.0055                   293.43544214103457
5.0E-4                    0.0065                   293.19813123170115
5.0E-4                    0.0075                   293.1396775084214
5.0E-4                    0.0085                   293.1401221809343
5.0E-4                    0.0095                   293.20953581603874
5.0E-4                    0.0105                   293.46638786590927
5.0E-4                    0.0115                   293.73740798676863
5.0E-4                    0.0125                   294.1848473151639
5.0E-4                    0.0135                   294.1195674870778
5.0E-4                    0.0145                   294.05428765899165
5.0E-4                    0.0155                   294.45271780380904
5.0E-4                    0.0165                   294.8201733147844
5.0E-4                    0.0175                   295.19167913490105
5.0E-4                    0.0185                   295.662551949505
5.0E-4                    0.0195                   296.19494136182595
5.0E-4                    0.0205                   296.6514778062758
5.0E-4                    0.0215                   296.894894774556
5.0E-4                    0.0225                   297.14869771732424
5.0E-4                    0.0235                   297.29843210010415
5.0E-4                    0.0245                   297.5017331511512
5.0E-4                    0.0255                   297.7494968595365
5.0E-4                    0.0265                   297.85862075175584
5.0E-4                    0.0275                   298.42904226550604
5.0E-4                    0.0285                   299.02675917705835
5.0E-4                    0.0295                   299.54022730869457
5.0E-4                    0.0305                   300.47137461992514
5.0E-4                    0.0315                   301.4025219311558
0.0015                    -0.0315                  312.98914460355746
0.0015                    -0.0305                  311.97215678460486
0.0015                    -0.0295                  310.6027278635444
0.0015                    -0.0285                  308.6396501278997
0.0015                    -0.0275                  306.8359078318499
0.0015                    -0.0265                  305.67457947562804
0.0015                    -0.0255                  304.8967385799492
0.0015                    -0.0245                  304.0252719938753
0.0015                    -0.0235                  303.4633352217423
0.0015                    -0.0225                  303.2376873589077
0.0015                    -0.0215                  302.8255125526083
0.0015                    -0.0205                  302.5130621410247
0.0015                    -0.0195                  302.43628503252467
0.0015                    -0.0185                  302.14287479606077
0.0015                    -0.0175                  301.90335266956583
0.0015                    -0.0165                  301.89913972590284
0.0015                    -0.0155                  301.72719401524205
0.0015                    -0.0145                  301.5895133184478
0.0015                    -0.0135                  301.63149202872995
0.0015                    -0.0125                  301.57886141056525
0.0015                    -0.0115                  301.5064048671636
0.0015                    -0.0105                  301.491852730471
0.0015                    -0.0095                  301.38863195998164
0.0015                    -0.0085                  301.19314307100035
0.0015                    -0.0075                  300.9656829478272
0.0015                    -0.0065                  300.58794358429685
0.0015                    -0.0055                  300.06601949242054
0.0015                    -0.0045                  299.50229360345975
0.0015                    -0.0035                  298.6574816477887
0.0015                    -0.0025                  297.6920769907912
0.0015                    -0.0015                  296.8269079043446
0.0015                    -5.0E-4                  296.20565350118267
0.0015                    5.0E-4                   295.65282159834027
0.0015                    0.0015                   294.9727145168571
0.0015                    0.0025                   294.77096665613544
0.0015                    0.0035                   294.49476525340344
0.0015                    0.0045                   293.8015929959915
0.0015                    0.0055                   293.42202800780575
0.0015                    0.0065                   293.25602443345247
0.0015                    0.0075                   293.1246001522868
0.0015                    0.0085                   293.13169323247
0.0015                    0.0095                   293.2823317650612
0.0015                    0.0105                   293.4707204768647
0.0015                    0.0115                   293.88496479588156
0.0015                    0.0125                   294.5693710536991
0.0015                    0.0135                   294.8130384620505
0.0015                    0.0145                   295.03718635302187
0.0015                    0.0155                   295.4937906003569
0.0015                    0.0165                   295.8846902281993
0.0015                    0.0175                   296.283091050567
0.0015                    0.0185                   296.69440012413565
0.0015                    0.0195                   297.21521165580873
0.0015                    0.0205                   297.4760131664148
0.0015                    0.0215                   297.70288911674186
0.0015                    0.0225                   297.93679766970047
0.0015                    0.0235                   297.93482823358283
0.0015                    0.0245                   298.013527806453
0.0015                    0.0255                   298.181616934799
0.0015                    0.0265                   298.19400923526337
0.0015                    0.0275                   298.4589865486573
0.0015                    0.0285                   299.00646669006863
0.0015                    0.0295                   299.3810527861691
0.0015                    0.0305                   300.0946567720455
0.0015                    0.0315                   300.9506111101461
0.0025                    -0.0315                  311.7899884257381
0.0025                    -0.0305                  310.5461593639595
0.0025                    -0.0295                  309.0048960349759
0.0025                    -0.0285                  307.0701892090292
0.0025                    -0.0275                  305.51423672283806
0.0025                    -0.0265                  304.7424470828014
0.0025                    -0.0255                  303.940892075679
0.0025                    -0.0245                  303.31105883523196
0.0025                    -0.0235                  303.0630897614154
0.0025                    -0.0225                  302.80483515079544
0.0025                    -0.0215                  302.5897775282088
0.0025                    -0.0205                  302.51846487997443
0.0025                    -0.0195                  302.44715223174
0.0025                    -0.0185                  302.41554813548106
0.0025                    -0.0175                  302.41875256598814
0.0025                    -0.0165                  302.4186050692816
0.0025                    -0.0155                  302.4495467284052
0.0025                    -0.0145                  302.5014593223259
0.0025                    -0.0135                  302.545131020395
0.0025                    -0.0125                  302.5860979231749
0.0025                    -0.0115                  302.5716898122319
0.0025                    -0.0105                  302.5557866814994
0.0025                    -0.0095                  302.5020466953848
0.0025                    -0.0085                  302.2678396409429
0.0025                    -0.0075                  302.040533445736
0.0025                    -0.0065                  301.7708674099126
0.0025                    -0.0055                  301.20355445808707
0.0025                    -0.0045                  300.6407590938096
0.0025                    -0.0035                  300.062255490305
0.0025                    -0.0025                  299.20169348272543
0.0025                    -0.0015                  298.3372113073484
0.0025                    -5.0E-4                  297.4751590327721
0.0025                    5.0E-4                   296.7921691131114
0.0025                    0.0015                   296.1132283994712
0.0025                    0.0025                   295.38208433940207
0.0025                    0.0035                   294.6853502771595
0.0025                    0.0045                   293.9886162149169
0.0025                    0.0055                   293.43617295707605
0.0025                    0.0065                   293.3018528188659
0.0025                    0.0075                   293.16753268065565
0.0025                    0.0085                   293.1915060530819
0.0025                    0.0095                   293.34175761776123
0.0025                    0.0105                   293.49200918244054
0.0025                    0.0115                   294.09485570227474
0.0025                    0.0125                   294.7790081426281
0.0025                    0.0135                   295.5077070506043
0.0025                    0.0145                   295.9737876731768
0.0025                    0.0155                   296.4299608556912
0.0025                    0.0165                   296.8843683984126
0.0025                    0.0175                   297.2937632963673
0.0025                    0.0185                   297.7031581943218
0.0025                    0.0195                   298.0285774063816
0.0025                    0.0205                   298.2514252729467
0.0025                    0.0215                   298.4742731395117
0.0025                    0.0225                   298.55968155581564
0.0025                    0.0235                   298.556751367497
0.0025                    0.0245                   298.54650031665415
0.0025                    0.0255                   298.52863872552507
0.0025                    0.0265                   298.5311745489931
0.0025                    0.0275                   298.5417900192352
0.0025                    0.0285                   298.90152570475846
0.0025                    0.0295                   299.26371622615926
0.0025                    0.0305                   299.75949371646465
0.0025                    0.0315                   300.49616289687776
0.0035                    -0.0315                  310.2156762876687
0.0035                    -0.0305                  308.6947220779287
0.0035                    -0.0295                  307.29494182090474
0.0035                    -0.0285                  305.5442426343073
0.0035                    -0.0275                  304.8974746452213
0.0035                    -0.0265                  304.21937459897094
0.0035                    -0.0255                  303.4178195918486
0.0035                    -0.0245                  303.3332016233825
0.0035                    -0.0235                  303.20604256285947
0.0035                    -0.0225                  302.9477879522394
0.0035                    -0.0215                  303.03172968744894
0.0035                    -0.0205                  303.1080151344869
0.0035                    -0.0195                  303.03670248625247
0.0035                    -0.0185                  303.2516783226006
0.0035                    -0.0175                  303.4533916419445
0.0035                    -0.0165                  303.45324414523793
0.0035                    -0.0155                  303.67154988079494
0.0035                    -0.0145                  303.8769780070305
0.0035                    -0.0135                  303.9206497050996
0.0035                    -0.0125                  303.9456080486227
0.0035                    -0.0115                  303.95257096879345
0.0035                    -0.0105                  303.9366678380608
0.0035                    -0.0095                  303.6345037414312
0.0035                    -0.0085                  303.29258808274597
0.0035                    -0.0075                  303.0652818875391
0.0035                    -0.0065                  302.498792400285
0.0035                    -0.0055                  301.85255176377257
0.0035                    -0.0045                  301.28975639949516
0.0035                    -0.0035                  300.5961450304709
0.0035                    -0.0025                  299.80927014008125
0.0035                    -0.0015                  298.9447879647042
0.0035                    -5.0E-4                  298.1000358754022
0.0035                    5.0E-4                   297.32348312631973
0.0035                    0.0015                   296.6445424126795
0.0035                    0.0025                   295.583173139734
0.0035                    0.0035                   294.6412500669244
0.0035                    0.0045                   293.9445160046819
0.0035                    0.0055                   293.5037988141504
0.0035                    0.0065                   293.2674896010043
0.0035                    0.0075                   293.16813066537674
0.0035                    0.0085                   293.18135335096963
0.0035                    0.0095                   293.3201488549531
0.0035                    0.0105                   293.6351406853039
0.0035                    0.0115                   294.14459573840867
0.0035                    0.0125                   294.828748178762
0.0035                    0.0135                   295.7220390131845
0.0035                    0.0145                   296.4941848091777
0.0035                    0.0155                   296.95035799169216
0.0035                    0.0165                   297.42967648734924
0.0035                    0.0175                   297.8716390499695
0.0035                    0.0185                   298.26489857488235
0.0035                    0.0195                   298.54800080415237
0.0035                    0.0205                   298.7864398664516
0.0035                    0.0215                   298.9801620432904
0.0035                    0.0225                   299.1223473447408
0.0035                    0.0235                   299.1198166062464
0.0035                    0.0245                   299.0327113654346
0.0035                    0.0255                   298.9624017969733
0.0035                    0.0265                   298.9649376204414
0.0035                    0.0275                   298.82727961027655
0.0035                    0.0285                   298.8351014551068
0.0035                    0.0295                   299.1137442397194
0.0035                    0.0305                   299.6418275371276
0.0035                    0.0315                   300.3125712406195
0.0045                    -0.0315                  308.9250352217385
0.0045                    -0.0305                  307.2658539864169
0.0045                    -0.0295                  305.6647849080932
0.0045                    -0.0285                  304.9691032772427
0.0045                    -0.0275                  304.3130861808297
0.0045                    -0.0265                  303.6570690844167
0.0045                    -0.0255                  303.3987910990926
0.0045                    -0.0245                  303.355344411533
0.0045                    -0.0235                  303.3118977239734
0.0045                    -0.0225                  303.278950219944
0.0045                    -0.0215                  303.4632181086602
0.0045                    -0.0205                  303.64748599737635
0.0045                    -0.0195                  303.767375193607
0.0045                    -0.0185                  304.08780850972016
0.0045                    -0.0175                  304.40824182583333
0.0045                    -0.0165                  304.60183789209015
0.0045                    -0.0155                  304.8935530331846
0.0045                    -0.0145                  305.18526817427914
0.0045                    -0.0135                  305.2863186106492
0.0045                    -0.0125                  305.30511817407057
0.0045                    -0.0115                  305.32391773749197
0.0045                    -0.0105                  305.1698804537454
0.0045                    -0.0095                  304.76696078747756
0.0045                    -0.0085                  304.36404112120977
0.0045                    -0.0075                  303.91872476311994
0.0045                    -0.0065                  303.2267173906575
0.0045                    -0.0055                  302.5347100181949
0.0045                    -0.0045                  301.87348722788084
0.0045                    -0.0035                  301.1300345706368
0.0045                    -0.0025                  300.38658191339266
0.0045                    -0.0015                  299.5622525186378
0.0045                    -5.0E-4                  298.7249127180322
0.0045                    5.0E-4                   297.8875729174267
0.0045                    0.0015                   296.9637194566635
0.0045                    0.0025                   295.79468165858736
0.0045                    0.0035                   294.6256438605113
0.0045                    0.0045                   294.0612082573226
0.0045                    0.0055                   293.62751514909814
0.0045                    0.0065                   293.2331263831427
0.0045                    0.0075                   293.22302155001614
0.0045                    0.0085                   293.23624423560904
0.0045                    0.0095                   293.3295450472917
0.0045                    0.0105                   293.80615283276217
0.0045                    0.0115                   294.2827606182326
0.0045                    0.0125                   294.97341260231
0.0045                    0.0135                   295.93637097576465
0.0045                    0.0145                   296.89932934921933
0.0045                    0.0155                   297.48420889603346
0.0045                    0.0165                   297.9652855167195
0.0045                    0.0175                   298.4463621374056
0.0045                    0.0185                   298.7651308632546
0.0045                    0.0195                   299.0482330925246
0.0045                    0.0205                   299.3214544599565
0.0045                    0.0215                   299.4650728484494
0.0045                    0.0225                   299.60725814989974
0.0045                    0.0235                   299.6485488307112
0.0045                    0.0245                   299.51892241421507
0.0045                    0.0255                   299.3795302454563
0.0045                    0.0265                   299.23098307973464
0.0045                    0.0275                   299.08243591401293
0.0045                    0.0285                   299.10091384339137
0.0045                    0.0295                   299.1230943531634
0.0045                    0.0305                   299.49918567073263
0.0045                    0.0315                   300.1458187285801
0.0055                    -0.0315                  307.63439415580825
0.0055                    -0.0305                  306.4391627985716
0.0055                    -0.0295                  305.2818185388453
0.0055                    -0.0285                  304.7238316484755
0.0055                    -0.0275                  304.0812528524373
0.0055                    -0.0265                  303.63246884492014
0.0055                    -0.0255                  303.65787728607654
0.0055                    -0.0245                  303.5832039896556
0.0055                    -0.0235                  303.53888476463686
0.0055                    -0.0225                  303.92449148104504
0.0055                    -0.0215                  304.10615952815795
0.0055                    -0.0205                  304.2878275752709
0.0055                    -0.0195                  304.8769682302455
0.0055                    -0.0185                  305.2070235400108
0.0055                    -0.0175                  305.54067316716856
0.0055                    -0.0165                  305.9747365701649
0.0055                    -0.0155                  306.2680067806679
0.0055                    -0.0145                  306.54589857240103
0.0055                    -0.0135                  306.531096476143
0.0055                    -0.0125                  306.55039220635956
0.0055                    -0.0115                  306.5547736714768
0.0055                    -0.0105                  306.0348762350388
0.0055                    -0.0095                  305.6342450344217
0.0055                    -0.0085                  305.22872031715025
0.0055                    -0.0075                  304.2215132276815
0.0055                    -0.0065                  303.53238205885265
0.0055                    -0.0055                  302.8432508900238
0.0055                    -0.0045                  301.7603871921381
0.0055                    -0.0035                  301.0179590074364
0.0055                    -0.0025                  300.2753425546222
0.0055                    -0.0015                  299.47662204190505
0.0055                    -5.0E-4                  298.6324289042224
0.0055                    5.0E-4                   297.79896174050987
0.0055                    0.0015                   296.9750950938805
0.0055                    0.0025                   295.80493987602034
0.0055                    0.0035                   294.71074835702086
0.0055                    0.0045                   294.0169205135059
0.0055                    0.0055                   293.581322066686
0.0055                    0.0065                   293.2779498685204
0.0055                    0.0075                   293.224255689081
0.0055                    0.0085                   293.23680105305573
0.0055                    0.0095                   293.38702275124996
0.0055                    0.0105                   293.805814852891
0.0055                    0.0115                   294.280032192465
0.0055                    0.0125                   295.1313717179668
0.0055                    0.0135                   296.09349440388394
0.0055                    0.0145                   296.98158318036394
0.0055                    0.0155                   297.43561317101387
0.0055                    0.0165                   297.91309162631757
0.0055                    0.0175                   298.40280523980954
0.0055                    0.0185                   298.8294421947717
0.0055                    0.0195                   299.10770809009796
0.0055                    0.0205                   299.45271724227433
0.0055                    0.0215                   299.70472044016054
0.0055                    0.0225                   299.8482208977171
0.0055                    0.0235                   299.9597319063581
0.0055                    0.0245                   299.85881057867283
0.0055                    0.0255                   299.69954223962986
0.0055                    0.0265                   299.50924124460676
0.0055                    0.0275                   299.3445457219038
0.0055                    0.0285                   299.32137577415045
0.0055                    0.0295                   299.26702502067826
0.0055                    0.0305                   299.54887805163355
0.0055                    0.0315                   299.9821662139965
0.0065                    -0.0315                  307.20101001136356
0.0065                    -0.0305                  306.0561964293237
0.0065                    -0.0295                  304.93444850461776
0.0065                    -0.0285                  304.3916700271614
0.0065                    -0.0275                  303.848891549705
0.0065                    -0.0265                  303.8434720522364
0.0065                    -0.0255                  303.8818474082736
0.0065                    -0.0245                  303.84942174907655
0.0065                    -0.0235                  304.12559535291484
0.0065                    -0.0225                  304.56379887657477
0.0065                    -0.0215                  304.8601030039823
0.0065                    -0.0205                  305.3215763172152
0.0065                    -0.0195                  305.98960475172623
0.0065                    -0.0185                  306.4588365363893
0.0065                    -0.0175                  306.87171961555487
0.0065                    -0.0165                  307.32614890882587
0.0065                    -0.0155                  307.70009231688806
0.0065                    -0.0145                  307.77301134482695
0.0065                    -0.0135                  307.75415537970025
0.0065                    -0.0125                  307.7536956492278
0.0065                    -0.0115                  307.3999748336687
0.0065                    -0.0105                  306.8655209632117
0.0065                    -0.0095                  306.39691439645856
0.0065                    -0.0085                  305.57510675353507
0.0065                    -0.0075                  304.5229444086747
0.0065                    -0.0065                  303.6577066921749
0.0065                    -0.0055                  302.6822046044604
0.0065                    -0.0045                  301.5435650160939
0.0065                    -0.0035                  300.61855012954334
0.0065                    -0.0025                  299.8457104129392
0.0065                    -0.0015                  299.05611201822353
0.0065                    -5.0E-4                  298.2339815804931
0.0065                    5.0E-4                   297.4845850659113
0.0065                    0.0015                   296.7699546123049
0.0065                    0.0025                   295.7356445546718
0.0065                    0.0035                   294.83694902175614
0.0065                    0.0045                   293.9752060412222
0.0065                    0.0055                   293.49566352588073
0.0065                    0.0065                   293.34988376102274
0.0065                    0.0075                   293.20798887815533
0.0065                    0.0085                   293.27912718352286
0.0065                    0.0095                   293.4900916289639
0.0065                    0.0105                   293.7583688499172
0.0065                    0.0115                   294.4470327042098