% Model:              SIMBench260525.mph
% Version:            COMSOL 6.2.0.339
% Date:               May 27 2026, 17:48
% Dimension:          2
% Nodes:              4096
% Expressions:        1
% Description:        温度
% Length unit:        m
% x                       y                        T (K)
% mirrored_by_python_y_to_minus_y, coord_match_decimals=12
0.0005 -0.0315 293.219180178
0.0005 -0.0305 293.198893198
0.0005 -0.0295 293.17862095
0.0005 -0.0285 293.166509306
0.0005 -0.0275 293.16534845
0.0005 -0.0265 293.162600209
0.0005 -0.0255 293.162270987
0.0005 -0.0245 293.162688387
0.0005 -0.0235 293.155482044
0.0005 -0.0225 293.144164327
0.0005 -0.0215 293.128634066
0.0005 -0.0205 293.129806695
0.0005 -0.0195 293.178725248
0.0005 -0.0185 293.95018557
0.0005 -0.0175 297.150436712
0.0005 -0.0165 300.60073998
0.0005 -0.0155 309.509835011
0.0005 -0.0145 317.391272208
0.0005 -0.0135 325.272709405
0.0005 -0.0125 337.003632857
0.0005 -0.0115 351.221480908
0.0005 -0.0105 363.847211073
0.0005 -0.0095 366.69845865
0.0005 -0.0085 368.765386361
0.0005 -0.0075 370.666450494
0.0005 -0.0065 371.785373735
0.0005 -0.0055 372.7386221
0.0005 -0.0045 373.7161583
0.0005 -0.0035 374.62360794
0.0005 -0.0025 375.521333877
0.0005 -0.0015 376.289518849
0.0005 -0.0005 377.223829567
0.0005 0.0005 378.158140285
0.0005 0.0015 378.933003155
0.0005 0.0025 379.922721038
0.0005 0.0035 380.904625894
0.0005 0.0045 381.802666724
0.0005 0.0055 382.873812004
0.0005 0.0065 383.916484557
0.0005 0.0075 384.995911046
0.0005 0.0085 386.167451304
0.0005 0.0095 387.316220924
0.0005 0.0105 388.58667576
0.0005 0.0115 389.900824012
0.0005 0.0125 391.208103766
0.0005 0.0135 392.745352582
0.0005 0.0145 394.293010421
0.0005 0.0155 395.924909615
0.0005 0.0165 397.918763447
0.0005 0.0175 399.91261728
0.0005 0.0185 402.259172929
0.0005 0.0195 405.10536802
0.0005 0.0205 407.98684703
0.0005 0.0215 411.635678612
0.0005 0.0225 415.733034389
0.0005 0.0235 420.012033994
0.0005 0.0245 424.948264632
0.0005 0.0255 429.968639544
0.0005 0.0265 435.19037946
0.0005 0.0275 439.754515005
0.0005 0.0285 444.116603964
0.0005 0.0295 447.964741415
0.0005 0.0305 449.769608821
0.0005 0.0315 451.564980636
0.0015 -0.0315 293.333269932
0.0015 -0.0305 293.240500565
0.0015 -0.0295 293.218676052
0.0015 -0.0285 293.195754791
0.0015 -0.0275 293.190660926
0.0015 -0.0265 293.185999343
0.0015 -0.0255 293.182483883
0.0015 -0.0245 293.179908053
0.0015 -0.0235 293.171085792
0.0015 -0.0225 293.160864854
0.0015 -0.0215 293.12363195
0.0015 -0.0205 293.072481563
0.0015 -0.0195 293.111587595
0.0015 -0.0185 294.78074923
0.0015 -0.0175 296.89448344
0.0015 -0.0165 302.869267729
0.0015 -0.0155 314.192395086
0.0015 -0.0145 323.621768534
0.0015 -0.0135 332.906253485
0.0015 -0.0125 343.291393345
0.0015 -0.0115 356.578158588
0.0015 -0.0105 362.960366295
0.0015 -0.0095 366.776639621
0.0015 -0.0085 368.9326679
0.0015 -0.0075 370.531520091
0.0015 -0.0065 372.017788418
0.0015 -0.0055 372.976194822
0.0015 -0.0045 373.977401226
0.0015 -0.0035 374.94690788
0.0015 -0.0025 375.782250426
0.0015 -0.0015 376.459179386
0.0015 -0.0005 377.260070981
0.0015 0.0005 378.061863853
0.0015 0.0015 378.706940022
0.0015 0.0025 379.578141099
0.0015 0.0035 380.425783365
0.0015 0.0045 381.191410017
0.0015 0.0055 382.210505731
0.0015 0.0065 383.172436191
0.0015 0.0075 384.109148541
0.0015 0.0085 385.280688799
0.0015 0.0095 386.39429115
0.0015 0.0105 387.541819029
0.0015 0.0115 388.854000205
0.0015 0.0125 390.1559618
0.0015 0.0135 391.542318087
0.0015 0.0145 393.103871353
0.0015 0.0155 394.692590227
0.0015 0.0165 396.490509313
0.0015 0.0175 398.559578412
0.0015 0.0185 400.699150016
0.0015 0.0195 403.329625377
0.0015 0.0205 406.436197965
0.0015 0.0215 409.657669853
0.0015 0.0225 413.645995004
0.0015 0.0235 418.328174429
0.0015 0.0245 423.110519592
0.0015 0.0255 428.143843041
0.0015 0.0265 433.621012956
0.0015 0.0275 438.917206656
0.0015 0.0285 443.08890729
0.0015 0.0295 446.948906587
0.0015 0.0305 449.530583455
0.0015 0.0315 450.76465932
0.0025 -0.0315 293.447359687
0.0025 -0.0305 293.331212902
0.0025 -0.0295 293.255937892
0.0025 -0.0285 293.233616517
0.0025 -0.0275 293.213527601
0.0025 -0.0265 293.208940868
0.0025 -0.0255 293.204354135
0.0025 -0.0245 293.19645576
0.0025 -0.0235 293.187609342
0.0025 -0.0225 293.170380018
0.0025 -0.0215 293.1191338
0.0025 -0.0205 293.067977381
0.0025 -0.0195 293.643963709
0.0025 -0.0185 295.337750889
0.0025 -0.0175 297.03153807
0.0025 -0.0165 305.812000339
0.0025 -0.0155 317.1753366
0.0025 -0.0145 328.814948932
0.0025 -0.0135 339.469504226
0.0025 -0.0125 349.894025726
0.0025 -0.0115 358.141585427
0.0025 -0.0105 361.961711583
0.0025 -0.0095 365.78183774
0.0025 -0.0085 368.884521848
0.0025 -0.0075 370.448874613
0.0025 -0.0065 372.013227377
0.0025 -0.0055 373.490028129
0.0025 -0.0045 374.489345932
0.0025 -0.0035 375.488663735
0.0025 -0.0025 376.288784409
0.0025 -0.0015 376.966047945
0.0025 -0.0005 377.622910315
0.0025 0.0005 378.230916974
0.0025 0.0015 378.877290369
0.0025 0.0025 379.436738012
0.0025 0.0035 380.204249636
0.0025 0.0045 380.971761259
0.0025 0.0055 381.689321142
0.0025 0.0065 382.627717226
0.0025 0.0075 383.56611331
0.0025 0.0085 384.497265144
0.0025 0.0095 385.611989648
0.0025 0.0105 386.726714152
0.0025 0.0115 387.876796005
0.0025 0.0125 389.180032331
0.0025 0.0135 390.483268657
0.0025 0.0145 391.930199604
0.0025 0.0155 393.518979827
0.0025 0.0165 395.080313117
0.0025 0.0175 397.140418372
0.0025 0.0185 399.280127575
0.0025 0.0195 401.481515967
0.0025 0.0205 404.708792783
0.0025 0.0215 407.936069598
0.0025 0.0225 411.59545674
0.0025 0.0235 416.360669094
0.0025 0.0245 421.125881449
0.0025 0.0255 426.261215755
0.0025 0.0265 431.61220359
0.0025 0.0275 436.967863788
0.0025 0.0285 441.792387717
0.0025 0.0295 445.633581675
0.0025 0.0305 448.29047058
0.0025 0.0315 449.964338004
0.0035 -0.0315 293.522909568
0.0035 -0.0305 293.388882
0.0035 -0.0295 293.290925544
0.0035 -0.0285 293.267795811
0.0035 -0.0275 293.243203823
0.0035 -0.0265 293.230783619
0.0035 -0.0255 293.225022917
0.0035 -0.0245 293.217705452
0.0035 -0.0235 293.208859034
0.0035 -0.0225 293.168528797
0.0035 -0.0215 293.116419598
0.0035 -0.0205 293.102825004
0.0035 -0.0195 293.595257324
0.0035 -0.0185 294.884551241
0.0035 -0.0175 298.415443561
0.0035 -0.0165 304.472251892
0.0035 -0.0155 315.815175743
0.0035 -0.0145 328.531519915
0.0035 -0.0135 340.955516206
0.0035 -0.0125 351.380037706
0.0035 -0.0115 356.251412263
0.0035 -0.0105 360.399265656
0.0035 -0.0095 364.265623145
0.0035 -0.0085 368.429819666
0.0035 -0.0075 370.655318489
0.0035 -0.0065 372.584144156
0.0035 -0.0055 375.321555826
0.0035 -0.0045 376.443928117
0.0035 -0.0035 377.520932611
0.0035 -0.0025 378.629938508
0.0035 -0.0015 379.307202043
0.0035 -0.0005 379.752256933
0.0035 0.0005 380.166287068
0.0035 0.0015 380.812660463
0.0035 0.0025 381.024781312
0.0035 0.0035 381.438812398
0.0035 0.0045 382.202486889
0.0035 0.0055 382.487566343
0.0035 0.0065 383.176645493
0.0035 0.0075 384.041078188
0.0035 0.0085 384.574096643
0.0035 0.0095 385.562859578
0.0035 0.0105 386.550402906
0.0035 0.0115 387.308514778
0.0035 0.0125 388.582460367
0.0035 0.0135 389.720636758
0.0035 0.0145 390.779519633
0.0035 0.0155 392.368299856
0.0035 0.0165 393.78691208
0.0035 0.0175 395.357306344
0.0035 0.0185 397.497015546
0.0035 0.0195 399.52974547
0.0035 0.0205 402.116358227
0.0035 0.0215 405.353243835
0.0035 0.0225 408.714445385
0.0035 0.0235 412.997381916
0.0035 0.0245 417.903437254
0.0035 0.0255 423.287113295
0.0035 0.0265 428.645645496
0.0035 0.0275 434.175561878
0.0035 0.0285 439.847745673
0.0035 0.0295 444.228204057
0.0035 0.0305 446.38510285
0.0035 0.0315 448.317590705
0.0045 -0.0315 293.61799872
0.0045 -0.0305 293.470604865
0.0045 -0.0295 293.325348678
0.0045 -0.0285 293.301052793
0.0045 -0.0275 293.276585693
0.0045 -0.0265 293.25262637
0.0045 -0.0255 293.245352143
0.0045 -0.0245 293.23804794
0.0045 -0.0235 293.219224418
0.0045 -0.0225 293.166677577
0.0045 -0.0215 293.114130735
0.0045 -0.0205 293.39240371
0.0045 -0.0195 293.88483603
0.0045 -0.0185 294.431351592
0.0045 -0.0175 300.371604061
0.0045 -0.0165 306.428412391
0.0045 -0.0155 314.982915274
0.0045 -0.0145 328.248090897
0.0045 -0.0135 341.513266521
0.0045 -0.0125 349.732057527
0.0045 -0.0115 354.258858305
0.0045 -0.0105 358.785659084
0.0045 -0.0095 362.909486093
0.0045 -0.0085 367.073682614
0.0045 -0.0075 370.861762365
0.0045 -0.0065 373.496670719
0.0045 -0.0055 376.234082389
0.0045 -0.0045 378.412034622
0.0045 -0.0035 379.572043075
0.0045 -0.0025 380.732051527
0.0045 -0.0015 381.557384263
0.0045 -0.0005 381.88160355
0.0045 0.0005 382.205822838
0.0045 0.0015 382.522637676
0.0045 0.0025 382.647513918
0.0045 0.0035 382.772390161
0.0045 0.0045 383.147972412
0.0045 0.0055 383.433051866
0.0045 0.0065 383.725573761
0.0045 0.0075 384.347347648
0.0045 0.0085 384.880366103
0.0045 0.0095 385.513729507
0.0045 0.0105 386.288206058
0.0045 0.0115 387.04631793
0.0045 0.0125 387.944628446
0.0045 0.0135 388.938298495
0.0045 0.0145 389.931968543
0.0045 0.0155 391.143280709
0.0045 0.0165 392.493511044
0.0045 0.0175 393.843741379
0.0045 0.0185 395.654982186
0.0045 0.0195 397.674832723
0.0045 0.0205 399.694683261
0.0045 0.0215 402.842778932
0.0045 0.0225 406.203980483
0.0045 0.0235 409.634094739
0.0045 0.0245 414.916288123
0.0045 0.0255 420.299964164
0.0045 0.0265 425.711076174
0.0045 0.0275 431.392435084
0.0045 0.0285 437.082655816
0.0045 0.0295 442.668125307
0.0045 0.0305 444.729537401
0.0045 0.0315 446.751692244
0.0055 -0.0315 293.713087872
0.0055 -0.0305 293.539671244
0.0055 -0.0295 293.377503189
0.0055 -0.0285 293.32209164
0.0055 -0.0275 293.297795755
0.0055 -0.0265 293.278115125
0.0055 -0.0255 293.266452799
0.0055 -0.0245 293.259115274
0.0055 -0.0235 293.229648706
0.0055 -0.0225 293.181521086
0.0055 -0.0215 293.147504835
0.0055 -0.0205 293.261762529
0.0055 -0.0195 293.751782512
0.0055 -0.0185 295.18644065
0.0055 -0.0175 299.10249479
0.0055 -0.0165 305.181624029
0.0055 -0.0155 314.877858078
0.0055 -0.0145 327.449877359
0.0055 -0.0135 340.007677548
0.0055 -0.0125 347.032943074
0.0055 -0.0115 351.572383976
0.0055 -0.0105 356.180566855
0.0055 -0.0095 360.739660059
0.0055 -0.0085 364.915281332
0.0055 -0.0075 369.545462651
0.0055 -0.0065 373.340390492
0.0055 -0.0055 376.083292856
0.0055 -0.0045 379.254133788
0.0055 -0.0035 381.011166754
0.0055 -0.0025 382.171526041
0.0055 -0.0015 383.62299924
0.0055 -0.0005 384.061409745
0.0055 0.0005 384.383760543
0.0055 0.0015 384.637614008
0.0055 0.0025 384.763582456
0.0055 0.0035 384.851773912
0.0055 0.0045 384.877241516
0.0055 0.0055 385.164862813
0.0055 0.0065 385.381549376
0.0055 0.0075 385.657264553
0.0055 0.0085 386.194790682
0.0055 0.0095 386.616061041
0.0055 0.0105 387.187151427
0.0055 0.0115 387.952667208
0.0055 0.0125 388.51523347
0.0055 0.0135 389.36886653
0.0055 0.0145 390.372085015
0.0055 0.0155 391.054061977
0.0055 0.0165 392.316127635
0.0055 0.0175 393.640302212
0.0055 0.0185 394.696694298
0.0055 0.0195 396.71432868
0.0055 0.0205 398.660984502
0.0055 0.0215 400.849028886
0.0055 0.0225 404.203243231
0.0055 0.0235 407.62231982
0.0055 0.0245 412.02934208
0.0055 0.0255 417.418776141
0.0055 0.0265 423.128025687
0.0055 0.0275 428.924785818
0.0055 0.0285 434.625932279
0.0055 0.0295 440.590486258
0.0055 0.0305 442.966976227
0.0055 0.0315 445.185793783
0.0065 -0.0315 293.778328733
0.0065 -0.0305 293.583375005
0.0065 -0.0295 293.429893396
0.0065 -0.0285 293.37089414
0.0065 -0.0275 293.320323983
0.0065 -0.0265 293.303868801
0.0065 -0.0255 293.287618581
0.0065 -0.0245 293.272138681
0.0065 -0.0235 293.235930703
0.0065 -0.0225 293.198434349
0.0065 -0.0215 293.238351452
0.0065 -0.0205 293.328961456
0.0065 -0.0195 293.679969295
0.0065 -0.0185 296.015539233
0.0065 -0.0175 298.351109172
0.0065 -0.0165 305.457026738
0.0065 -0.0155 315.807028976
0.0065 -0.0145 326.59621802
0.0065 -0.0135 335.59893851
0.0065 -0.0125 342.806790049
0.0065 -0.0115 348.771095805
0.0065 -0.0105 353.503091047
0.0065 -0.0095 358.24984486
0.0065 -0.0085 362.68132162
0.0065 -0.0075 367.740804564
0.0065 -0.0065 372.800287509
0.0065 -0.0055 375.843629483
0.0065 -0.0045 379.210881311
0.0065 -0.0035 382.292395558
0.0065 -0.0025 383.608185015
0.0065 -0.0015 385.107911182
0.0065 -0.0005 386.254200386
0.0065 0.0005 386.540354763
0.0065 0.0015 386.804267813
0.0065 0.0025 387.003515272
0.0065 0.0035 386.982055455
0.0065 0.0045 386.925076329
0.0065 0.0055 387.085860079
0.0065 0.0065 387.190701576
0.0065 0.0075 387.291462694
0.0065 0.0085 387.705525026
0.0065 0.0095 388.032116399
0.0065 0.0105 388.358707771
0.0065 0.0115 389.008566944
0.0065 0.0125 389.49424878
0.0065 0.0135 390.02647177
0.0065 0.0145 390.852291696
0.0065 0.0155 391.501089415
0.0065 0.0165 392.323523681
0.0065 0.0175 393.442776051
0.0065 0.0185 394.454887626
0.0065 0.0195 395.899788574
0.0065 0.0205 397.699414177
0.0065 0.0215 399.476412678
0.0065 0.0225 402.316535896
0.0065 0.0235 405.809326032
0.0065 0.0245 409.302116167
0.0065 0.0255 414.606528192
0.0065 0.0265 420.52253785
0.0065 0.0275 426.438547507
0.0065 0.0285 432.396865329
0.0065 0.0295 438.361419308
0.0065 0.0305 441.034887
0.0065 0.0315 443.386391288
0.0075 -0.0315 293.882144358
0.0075 -0.0305 293.663154187
0.0075 -0.0295 293.478645395
0.0075 -0.0285 293.41070585
0.0075 -0.0275 293.34767818
0.0075 -0.0265 293.330738815
0.0075 -0.0255 293.313682214
0.0075 -0.0245 293.281485623
0.0075 -0.0235 293.246372162
0.0075 -0.0225 293.214162942
0.0075 -0.0215 293.254058048
0.0075 -0.0205 293.342500213
0.0075 -0.0195 293.82294709
0.0075 -0.0185 295.835496635
0.0075 -0.0175 298.17239781
0.0075 -0.0165 304.214550512
0.0075 -0.0155 314.628169812
0.0075 -0.0145 325.146597876
0.0075 -0.0135 333.859199081
0.0075 -0.0125 340.945381807
0.0075 -0.0115 346.086046074
0.0075 -0.0105 350.677590935
0.0075 -0.0095 355.431032311
0.0075 -0.0085 360.318237098
0.0075 -0.0075 365.393197607
0.0075 -0.0065 370.468158116
0.0075 -0.0055 374.907497519
0.0075 -0.0045 378.2808113
0.0075 -0.0035 381.644061923
0.0075 -0.0025 383.943907091
0.0075 -0.0015 385.441195253
0.0075 -0.0005 386.984760795
0.0075 0.0005 387.678751065
0.0075 0.0015 387.93787821
0.0075 0.0025 388.398775394
0.0075 0.0035 388.449391422
0.0075 0.0045 388.387924302
0.0075 0.0055 388.581940577
0.0075 0.0065 388.679776958
0.0075 0.0075 388.777613339
0.0075 0.0085 389.113173266
0.0075 0.0095 389.439652515
0.0075 0.0105 389.766131765
0.0075 0.0115 390.291507233
0.0075 0.0125 390.78309253
0.0075 0.0135 391.275921451
0.0075 0.0145 391.852476928
0.0075 0.0155 392.511541069
0.0075 0.0165 393.100013033
0.0075 0.0175 393.887944693
0.0075 0.0185 394.912280154
0.0075 0.0195 395.769104592
0.0075 0.0205 397.359443562
0.0075 0.0215 399.126257529
0.0075 0.0225 401.023773784
0.0075 0.0235 404.407408896
0.0075 0.0245 407.791044008
0.0075 0.0255 412.180350942
0.0075 0.0265 418.23219394
0.0075 0.0275 424.284036937
0.0075 0.0285 430.21842285
0.0075 0.0295 436.181802423
0.0075 0.0305 439.341001771
0.0075 0.0315 441.793895223
0.0085 -0.0315 293.983105326
0.0085 -0.0305 293.737266428
0.0085 -0.0295 293.530671854
0.0085 -0.0285 293.449173379
0.0085 -0.0275 293.375239169
0.0085 -0.0265 293.356879765
0.0085 -0.0255 293.336931529
0.0085 -0.0245 293.302863048
0.0085 -0.0235 293.261242948
0.0085 -0.0225 293.244042059
0.0085 -0.0215 293.248881736
0.0085 -0.0205 293.382280792
0.0085 -0.0195 294.152320285
0.0085 -0.0185 295.18178485
0.0085 -0.0175 299.007211507
0.0085 -0.0165 304.065601266
0.0085 -0.0155 312.304343975
0.0085 -0.0145 323.032946504
0.0085 -0.0135 333.795492142
0.0085 -0.0125 340.452769833
0.0085 -0.0115 343.887800322
0.0085 -0.0105 347.717554951
0.0085 -0.0095 352.521489344
0.0085 -0.0085 357.429214283
0.0085 -0.0075 362.427386792
0.0085 -0.0065 367.46543978
0.0085 -0.0055 372.465279406
0.0085 -0.0045 376.241393298
0.0085 -0.0035 379.500721457
0.0085 -0.0025 382.700827531
0.0085 -0.0015 384.322245277
0.0085 -0.0005 385.985848338
0.0085 0.0005 387.54862723
0.0085 0.0015 387.80980718
0.0085 0.0025 388.567045412
0.0085 0.0035 389.115079923
0.0085 0.0045 389.13302324
0.0085 0.0055 389.526158559
0.0085 0.0065 389.798163179
0.0085 0.0075 390.014526019
0.0085 0.0085 390.459157178
0.0085 0.0095 390.837926147
0.0085 0.0105 391.289416669
0.0085 0.0115 391.861709133
0.0085 0.0125 392.377633754
0.0085 0.0135 392.878425598
0.0085 0.0145 393.383532779
0.0085 0.0155 394.016993965
0.0085 0.0165 394.457340308
0.0085 0.0175 394.866379476
0.0085 0.0185 395.83980519
0.0085 0.0195 396.537590634
0.0085 0.0205 397.505850706
0.0085 0.0215 399.181622005
0.0085 0.0225 400.727077955
0.0085 0.0235 403.625580727
0.0085 0.0245 406.911359958
0.0085 0.0255 411.174904039
0.0085 0.0265 416.390467601
0.0085 0.0275 422.135947847
0.0085 0.0285 428.322758731
0.0085 0.0295 434.718028365
0.0085 0.0305 437.831455684
0.0085 0.0315 440.210484967
0.0095 -0.0315 294.069344659
0.0095 -0.0305 293.794575352
0.0095 -0.0295 293.584785297
0.0095 -0.0285 293.503035132
0.0095 -0.0275 293.409464802
0.0095 -0.0265 293.380794199
0.0095 -0.0255 293.360180844
0.0095 -0.0245 293.326898892
0.0095 -0.0235 293.284010535
0.0095 -0.0225 293.263492003
0.0095 -0.0215 293.269235195
0.0095 -0.0205 293.461927288
0.0095 -0.0195 294.221320748
0.0095 -0.0185 295.096800423
0.0095 -0.0175 298.810832404
0.0095 -0.0165 303.919985441
0.0095 -0.0155 310.298153238
0.0095 -0.0145 321.044965861
0.0095 -0.0135 331.791778484
0.0095 -0.0125 338.524976636
0.0095 -0.0115 341.916534942
0.0095 -0.0105 345.308093247
0.0095 -0.0095 349.638387804
0.0095 -0.0085 354.548169816
0.0095 -0.0075 359.378336301
0.0095 -0.0065 364.34076966
0.0095 -0.0055 369.354294926
0.0095 -0.0045 373.943617831
0.0095 -0.0035 377.142802087
0.0095 -0.0025 380.341986343
0.0095 -0.0015 382.958802801
0.0095 -0.0005 384.64677439
0.0095 0.0005 386.33474598
0.0095 0.0015 387.507157772
0.0095 0.0025 388.248483249
0.0095 0.0035 388.989808726
0.0095 0.0045 389.489493613
0.0095 0.0055 389.858275756
0.0095 0.0065 390.227057898
0.0095 0.0075 390.704500314
0.0095 0.0085 391.116662516
0.0095 0.0095 391.634838757
0.0095 0.0105 392.222924302
0.0095 0.0115 392.756086276
0.0095 0.0125 393.559439356
0.0095 0.0135 394.014563155
0.0095 0.0145 394.469686954
0.0095 0.0155 395.448862424
0.0095 0.0165 395.863959586
0.0095 0.0175 396.279056747
0.0095 0.0185 396.838230095
0.0095 0.0195 397.54051136
0.0095 0.0205 398.236068603
0.0095 0.0215 399.432606411
0.0095 0.0225 401.017583368
0.0095 0.0235 402.997551736
0.0095 0.0245 406.006462275
0.0095 0.0255 410.286570279
0.0095 0.0265 415.499100626
0.0095 0.0275 420.799641462
0.0095 0.0285 426.858984672
0.0095 0.0295 433.254254306
0.0095 0.0305 436.361483231
0.0095 0.0315 438.91535572
0.0105 -0.0315 294.190699147
0.0105 -0.0305 293.903741561
0.0105 -0.0295 293.635204963
0.0105 -0.0285 293.536721547
0.0105 -0.0275 293.443151217
0.0105 -0.0265 293.411817096
0.0105 -0.0255 293.387496895
0.0105 -0.0245 293.351132592
0.0105 -0.0235 293.308343937
0.0105 -0.0225 293.272647724
0.0105 -0.0215 293.322471351
0.0105 -0.0205 293.529533479
0.0105 -0.0195 293.983620039
0.0105 -0.0185 295.503047321
0.0105 -0.0175 297.471688596
0.0105 -0.0165 302.859053726
0.0105 -0.0155 310.282939641
0.0105 -0.0145 319.273644416
0.0105 -0.0135 328.851558886
0.0105 -0.0125 336.717014788
0.0105 -0.0115 340.697886658
0.0105 -0.0105 343.699068642
0.0105 -0.0095 346.669398438
0.0105 -0.0085 351.57918045
0.0105 -0.0075 355.897899626
0.0105 -0.0065 360.295546549
0.0105 -0.0055 365.309071815
0.0105 -0.0045 369.130800145
0.0105 -0.0035 372.520359195
0.0105 -0.0025 375.694129227
0.0105 -0.0015 378.02795084
0.0105 -0.0005 379.895791399
0.0105 0.0005 381.4907705
0.0105 0.0015 382.719350499
0.0105 0.0025 383.517894157
0.0105 0.0035 384.258027048
0.0105 0.0045 384.982870616
0.0105 0.0055 385.351652759
0.0105 0.0065 386.001634684
0.0105 0.0075 386.808104879
0.0105 0.0085 387.220267081
0.0105 0.0095 388.352769521
0.0105 0.0105 389.507038521
0.0105 0.0115 390.040200495
0.0105 0.0125 391.791074458
0.0105 0.0135 393.071526171
0.0105 0.0145 393.586322078
0.0105 0.0155 396.064394629
0.0105 0.0165 397.412088111
0.0105 0.0175 397.865167696
0.0105 0.0185 398.416455411
0.0105 0.0195 399.055479285
0.0105 0.0205 399.651257316
0.0105 0.0215 400.17556637
0.0105 0.0225 401.692215205
0.0105 0.0235 403.843936287
0.0105 0.0245 406.045561759
0.0105 0.0255 409.38416817
0.0105 0.0265 414.585291479
0.0105 0.0275 419.917179635
0.0105 0.0285 425.969937803
0.0105 0.0295 432.047513068
0.0105 0.0305 435.205907149
0.0105 0.0315 437.830627556
0.0115 -0.0315 294.302364964
0.0115 -0.0305 293.981069143
0.0115 -0.0295 293.697416187
0.0115 -0.0285 293.586165605
0.0115 -0.0275 293.476837631
0.0115 -0.0265 293.440594368
0.0115 -0.0255 293.412534322
0.0115 -0.0245 293.3769279
0.0115 -0.0235 293.333446587
0.0115 -0.0225 293.289965274
0.0115 -0.0215 293.436896997
0.0115 -0.0205 293.621533497
0.0115 -0.0195 293.873445408
0.0115 -0.0185 295.590481639
0.0115 -0.0175 297.542082488
0.0115 -0.0165 302.321743924
0.0115 -0.0155 309.933072168
0.0115 -0.0145 317.605249075
0.0115 -0.0135 325.271463177
0.0115 -0.0125 333.091615947
0.0115 -0.0115 339.359632824
0.0115 -0.0105 342.044898853
0.0115 -0.0095 344.730164883
0.0115 -0.0085 348.352763361
0.0115 -0.0075 352.417462952
0.0115 -0.0065 356.482162543
0.0115 -0.0055 360.625815076
0.0115 -0.0045 364.251937206
0.0115 -0.0035 367.878059336
0.0115 -0.0025 370.553167405
0.0115 -0.0015 372.886989018
0.0115 -0.0005 375.144808407
0.0115 0.0005 376.464503592
0.0115 0.0015 377.693083591
0.0115 0.0025 378.787305065
0.0115 0.0035 379.525515999
0.0115 0.0045 380.263630245
0.0115 0.0055 380.914921229
0.0115 0.0065 381.80840465
0.0115 0.0075 382.701888072
0.0115 0.0085 383.626839399
0.0115 0.0095 385.070700284
0.0115 0.0105 386.514561169
0.0115 0.0115 387.962566258
0.0115 0.0125 389.910809605
0.0115 0.0135 391.859052952
0.0115 0.0145 393.791564186
0.0115 0.0155 396.269636738
0.0115 0.0165 398.747709289
0.0115 0.0175 399.259589332
0.0115 0.0185 399.308057136
0.0115 0.0195 400.035537837
0.0115 0.0205 400.934674956
0.0115 0.0215 401.564026821
0.0115 0.0225 402.464439365
0.0115 0.0235 404.477209269
0.0115 0.0245 406.489979173
0.0115 0.0255 409.835892793
0.0115 0.0265 414.152359601
0.0115 0.0275 419.034717809
0.0115 0.0285 425.165025937
0.0115 0.0295 431.300499944
0.0115 0.0305 434.348350118
0.0115 0.0315 436.795417204
0.0125 -0.0315 294.414062618
0.0125 -0.0305 294.047567034
0.0125 -0.0295 293.759627412
0.0125 -0.0285 293.645154795
0.0125 -0.0275 293.519448829
0.0125 -0.0265 293.469187791
0.0125 -0.0255 293.437543184
0.0125 -0.0245 293.402723208
0.0125 -0.0235 293.359503503
0.0125 -0.0225 293.316651814
0.0125 -0.0215 293.401404884
0.0125 -0.0205 293.567245166
0.0125 -0.0195 294.048656552
0.0125 -0.0185 295.072718742
0.0125 -0.0175 297.413081991
0.0125 -0.0165 300.419858988
0.0125 -0.0155 308.031187232
0.0125 -0.0145 316.435558783
0.0125 -0.0135 324.42634353
0.0125 -0.0125 332.043645317
0.0125 -0.0115 337.487416056
0.0125 -0.0105 340.761028828
0.0125 -0.0095 343.437713638
0.0125 -0.0085 345.101246845
0.0125 -0.0075 349.034652738
0.0125 -0.0065 352.982128909
0.0125 -0.0055 355.348101674
0.0125 -0.0045 358.978679886
0.0125 -0.0035 362.107544608
0.0125 -0.0025 363.844310279
0.0125 -0.0015 366.171968333
0.0125 -0.0005 367.775836873
0.0125 0.0005 368.655035389
0.0125 0.0015 369.871788104
0.0125 0.0025 370.400111625
0.0125 0.0035 370.877806727
0.0125 0.0045 371.592221305
0.0125 0.0055 371.846223476
0.0125 0.0065 372.552666428
0.0125 0.0075 373.405104347
0.0125 0.0085 374.201437085
0.0125 0.0095 375.555399956
0.0125 0.0105 376.977893768
0.0125 0.0115 379.062798046
0.0125 0.0125 380.961413819
0.0125 0.0135 383.169013998
0.0125 0.0145 386.377310796
0.0125 0.0155 388.394688137
0.0125 0.0165 391.471616764
0.0125 0.0175 395.786178079
0.0125 0.0185 395.834645883
0.0125 0.0195 398.979549042
0.0125 0.0205 401.353058126
0.0125 0.0215 402.079787552
0.0125 0.0225 403.276137699
0.0125 0.0235 405.021947363
0.0125 0.0245 406.934396586
0.0125 0.0255 410.379893164
0.0125 0.0265 414.562075359
0.0125 0.0275 418.973301432
0.0125 0.0285 424.521995067
0.0125 0.0295 430.55348682
0.0125 0.0305 433.551886851
0.0125 0.0315 436.09668663
0.0135 -0.0315 294.561384862
0.0135 -0.0305 294.190882869
0.0135 -0.0295 293.821920363
0.0135 -0.0285 293.683874258
0.0135 -0.0275 293.558168292
0.0135 -0.0265 293.504752919
0.0135 -0.0255 293.470142791
0.0135 -0.0245 293.429368673
0.0135 -0.0235 293.386344865
0.0135 -0.0225 293.343493176
0.0135 -0.0215 293.436206788
0.0135 -0.0205 293.539535381
0.0135 -0.0195 294.154700618
0.0135 -0.0185 295.051707347
0.0135 -0.0175 297.304522806
0.0135 -0.0165 300.228122507
0.0135 -0.0155 306.793968882
0.0135 -0.0145 315.265868491
0.0135 -0.0135 323.581223884
0.0135 -0.0125 329.971798673
0.0135 -0.0115 334.911127841
0.0135 -0.0105 339.549671054
0.0135 -0.0095 341.660053881
0.0135 -0.0085 343.218433115
0.0135 -0.0075 345.679554336
0.0135 -0.0065 348.466081033
0.0135 -0.0055 350.58992025
0.0135 -0.0045 353.566332259
0.0135 -0.0035 355.372303723
0.0135 -0.0025 356.789738036
0.0135 -0.0015 358.884916777
0.0135 -0.0005 359.409602788
0.0135 0.0005 359.934288799
0.0135 0.0015 360.884486941
0.0135 0.0025 360.889658269
0.0135 0.0035 360.934415222
0.0135 0.0045 361.442325932
0.0135 0.0055 361.526396306
0.0135 0.0065 361.760149745
0.0135 0.0075 362.581836697
0.0135 0.0085 363.371284257
0.0135 0.0095 364.355992988
0.0135 0.0105 366.207998215
0.0135 0.0115 368.30771434
0.0135 0.0125 370.316777328
0.0135 0.0135 373.49149916
0.0135 0.0145 376.998767388
0.0135 0.0155 379.636236127
0.0135 0.0165 384.25306726
0.0135 0.0175 389.500748948
0.0135 0.0185 393.844789041
0.0135 0.0195 397.426735111
0.0135 0.0205 401.255415774
0.0135 0.0215 402.997912472
0.0135 0.0225 404.166192746
0.0135 0.0235 405.912002411
0.0135 0.0245 407.697026929
0.0135 0.0255 410.659442912
0.0135 0.0265 414.746994467
0.0135 0.0275 419.183303928
0.0135 0.0285 424.731997563
0.0135 0.0295 430.144002684
0.0135 0.0305 432.92059653
0.0135 0.0315 435.476257923
0.0145 -0.0315 294.689916346
0.0145 -0.0305 294.275467358
0.0145 -0.0295 293.896710866
0.0145 -0.0285 293.749162255
0.0145 -0.0275 293.601613645
0.0145 -0.0265 293.536983685
0.0145 -0.0255 293.498127864
0.0145 -0.0245 293.457420115
0.0145 -0.0235 293.413795788
0.0145 -0.0225 293.370334539
0.0145 -0.0215 293.456682201
0.0145 -0.0205 293.539218998
0.0145 -0.0195 294.082775379
0.0145 -0.0185 294.881096767
0.0145 -0.0175 297.006680568
0.0145 -0.0165 299.657122352
0.0145 -0.0155 305.230921404
0.0145 -0.0145 313.830862546
0.0145 -0.0135 322.350549395
0.0145 -0.0125 328.295282195
0.0145 -0.0115 333.389790159
0.0145 -0.0105 338.280128774
0.0145 -0.0095 340.109232786
0.0145 -0.0085 341.649231967
0.0145 -0.0075 342.869612043
0.0145 -0.0065 344.561840348
0.0145 -0.0055 346.669354328
0.0145 -0.0045 347.920493196
0.0145 -0.0035 349.299704733
0.0145 -0.0025 350.71823506
0.0145 -0.0015 351.167102266
0.0145 -0.0005 351.695128335
0.0145 0.0005 352.223154403
0.0145 0.0015 352.074316927
0.0145 0.0025 352.08666288
0.0145 0.0035 352.099008832
0.0145 0.0045 351.903048771
0.0145 0.0055 352.00095996
0.0145 0.0065 352.062929958
0.0145 0.0075 352.390957726
0.0145 0.0085 353.196325642
0.0145 0.0095 353.810455205
0.0145 0.0105 355.313591054
0.0145 0.0115 357.411842233
0.0145 0.0125 359.105127011
0.0145 0.0135 362.518326935
0.0145 0.0145 366.218072381
0.0145 0.0155 369.762287655
0.0145 0.0165 374.628848414
0.0145 0.0175 378.860007006
0.0145 0.0185 384.40056367
0.0145 0.0195 388.470499626
0.0145 0.0205 393.01724125
0.0145 0.0215 399.351594446
0.0145 0.0225 405.057540555
0.0145 0.0235 406.918607826
0.0145 0.0245 408.779675096
0.0145 0.0255 411.744080263
0.0145 0.0265 415.305521426
0.0145 0.0275 419.347717254
0.0145 0.0285 424.639091708
0.0145 0.0295 429.930466162
0.0145 0.0305 432.643791104
0.0145 0.0315 434.958529763
0.0155 -0.0315 294.842029949
0.0155 -0.0305 294.358626385
0.0155 -0.0295 293.971501369
0.0155 -0.0285 293.81745544
0.0155 -0.0275 293.651087878
0.0155 -0.0265 293.572835816
0.0155 -0.0255 293.526112937
0.0155 -0.0245 293.485471556
0.0155 -0.0235 293.441473912
0.0155 -0.0225 293.397065555
0.0155 -0.0215 293.454720753
0.0155 -0.0205 293.529848327
0.0155 -0.0195 294.091010449
0.0155 -0.0185 294.826466649
0.0155 -0.0175 296.513324427
0.0155 -0.0165 299.038520013
0.0155 -0.0155 303.630587139
0.0155 -0.0145 312.052841382
0.0155 -0.0135 320.340450473
0.0155 -0.0125 327.93342508
0.0155 -0.0115 333.395982024
0.0155 -0.0105 336.75898484
0.0155 -0.0095 338.936696222
0.0155 -0.0085 340.490223578
0.0155 -0.0075 340.966479601
0.0155 -0.0065 341.585049119
0.0155 -0.0055 343.652393578
0.0155 -0.0045 343.73130387
0.0155 -0.0035 344.312460467
0.0155 -0.0025 345.356448197
0.0155 -0.0015 344.937678534
0.0155 -0.0005 345.031503217
0.0155 0.0005 345.148783253
0.0155 0.0015 344.556045644
0.0155 0.0025 344.382003488
0.0155 0.0035 344.126300454
0.0155 0.0045 343.625814601
0.0155 0.0055 343.623350861
0.0155 0.0065 343.432366124
0.0155 0.0075 343.104894757
0.0155 0.0085 343.866177369
0.0155 0.0095 344.028377628
0.0155 0.0105 344.268722079
0.0155 0.0115 346.337849214
0.0155 0.0125 347.436335048
0.0155 0.0135 349.577325162
0.0155 0.0145 353.014366615
0.0155 0.0155 355.251179321
0.0155 0.0165 361.404529219
0.0155 0.0175 367.566735001
0.0155 0.0185 373.513455188
0.0155 0.0195 379.460175376
0.0155 0.0205 384.767941917
0.0155 0.0215 390.714034789
0.0155 0.0225 396.78419545
0.0155 0.0235 404.670543338
0.0155 0.0245 409.862323264
0.0155 0.0255 412.828717613
0.0155 0.0265 416.196530446
0.0155 0.0275 419.87665501
0.0155 0.0285 424.603558471
0.0155 0.0295 429.716929639
0.0155 0.0305 432.408261151
0.0155 0.0315 434.627531496
0.0165 -0.0315 295.033825072
0.0165 -0.0305 294.550421508
0.0165 -0.0295 294.050873384
0.0165 -0.0285 293.861811564
0.0165 -0.0275 293.695444001
0.0165 -0.0265 293.616270818
0.0165 -0.0255 293.566574669
0.0165 -0.0245 293.514016972
0.0165 -0.0235 293.468167791
0.0165 -0.0225 293.423759434
0.0165 -0.0215 293.481932965
0.0165 -0.0205 293.537541624
0.0165 -0.0195 294.012186295
0.0165 -0.0185 294.723097699
0.0165 -0.0175 296.227272289
0.0165 -0.0165 298.727998073
0.0165 -0.0155 301.920978723
0.0165 -0.0145 310.142358627
0.0165 -0.0135 318.294963474