% Model:              SIMBench260525.mph
% Version:            COMSOL 6.2.0.339
% Date:               May 27 2026, 17:38
% Dimension:          2
% Nodes:              4096
% Expressions:        1
% Description:        温度
% Length unit:        m
% x                       y                        T (K)
5.0E-4                    -0.0315                  386.73303453725987
5.0E-4                    -0.0305                  385.0566972734222
5.0E-4                    -0.0295                  383.36619586239163
5.0E-4                    -0.0285                  379.93249896937175
5.0E-4                    -0.0275                  375.8873948253333
5.0E-4                    -0.0265                  371.84229068129474
5.0E-4                    -0.0255                  366.9690932433176
5.0E-4                    -0.0245                  362.54918618308375
5.0E-4                    -0.0235                  358.17570052228854
5.0E-4                    -0.0225                  354.86330153417896
5.0E-4                    -0.0215                  351.9621995886009
5.0E-4                    -0.0205                  349.25020605835533
5.0E-4                    -0.0195                  347.7224488402867
5.0E-4                    -0.0185                  346.1041701685823
5.0E-4                    -0.0175                  344.6962136065359
5.0E-4                    -0.0165                  343.7493490014855
5.0E-4                    -0.0155                  342.54410030879774
5.0E-4                    -0.0145                  341.61641447490007
5.0E-4                    -0.0135                  340.78425771461013
5.0E-4                    -0.0125                  339.6274404221827
5.0E-4                    -0.0115                  338.85482403303246
5.0E-4                    -0.0105                  338.04404620356723
5.0E-4                    -0.0095                  336.96480156732497
5.0E-4                    -0.0085                  336.2251318440749
5.0E-4                    -0.0075                  335.1440918602929
5.0E-4                    -0.0065                  333.87736935254054
5.0E-4                    -0.0055                  332.7538068745528
5.0E-4                    -0.0045                  330.36791088518873
5.0E-4                    -0.0035                  327.8036673171312
5.0E-4                    -0.0025                  325.2977941081059
5.0E-4                    -0.0015                  316.43913223257323
5.0E-4                    -5.0E-4                  307.36474580059974
5.0E-4                    5.0E-4                   298.72375363378063
5.0E-4                    0.0015                   297.6064173261439
5.0E-4                    0.0025                   296.4890810185071
5.0E-4                    0.0035                   294.54222576580173
5.0E-4                    0.0045                   294.46034302827053
5.0E-4                    0.0055                   294.37846029073927
5.0E-4                    0.0065                   293.5051182339908
5.0E-4                    0.0075                   293.29229588023827
5.0E-4                    0.0085                   293.2702859504306
5.0E-4                    0.0095                   293.436862982419
5.0E-4                    0.0105                   294.02649393624887
5.0E-4                    0.0115                   294.0094950983729
5.0E-4                    0.0125                   293.992496260497
5.0E-4                    0.0135                   294.9978638298014
5.0E-4                    0.0145                   295.5677550933742
5.0E-4                    0.0155                   297.89024722471305
5.0E-4                    0.0165                   304.006896335498
5.0E-4                    0.0175                   309.9473651504786
5.0E-4                    0.0185                   314.35923750856665
5.0E-4                    0.0195                   318.45076940505425
5.0E-4                    0.0205                   322.5723380965279
5.0E-4                    0.0215                   324.50500794146654
5.0E-4                    0.0225                   326.6257430160127
5.0E-4                    0.0235                   328.6418140636256
5.0E-4                    0.0245                   330.13756217164416
5.0E-4                    0.0255                   332.2795132739684
5.0E-4                    0.0265                   334.2762824628099
5.0E-4                    0.0275                   337.10998464636185
5.0E-4                    0.0285                   340.2767237183307
5.0E-4                    0.0295                   343.47034313758047
5.0E-4                    0.0305                   345.31728708300284
5.0E-4                    0.0315                   347.16423102842526
0.0015                    -0.0315                  385.8260833647752
0.0015                    -0.0305                  384.6625779912383
0.0015                    -0.0295                  382.3678421922184
0.0015                    -0.0285                  378.6526200805581
0.0015                    -0.0275                  374.76622632806624
0.0015                    -0.0265                  370.02386518776257
0.0015                    -0.0255                  364.8942389232566
0.0015                    -0.0245                  360.2619579883489
0.0015                    -0.0235                  356.4136170883422
0.0015                    -0.0225                  352.7965565288007
0.0015                    -0.0215                  349.7630382463411
0.0015                    -0.0205                  347.992785875834
0.0015                    -0.0195                  346.5568471858477
0.0015                    -0.0185                  344.9576621311333
0.0015                    -0.0175                  344.20778474524434
0.0015                    -0.0165                  343.61839088651897
0.0015                    -0.0155                  342.43031927648195
0.0015                    -0.0145                  342.13436545806417
0.0015                    -0.0135                  341.87864895647755
0.0015                    -0.0125                  340.72183166405006
0.0015                    -0.0115                  340.63404421595453
0.0015                    -0.0105                  340.43780573814433
0.0015                    -0.0095                  339.401388897546
0.0015                    -0.0085                  339.1150605277614
0.0015                    -0.0075                  338.6316303929898
0.0015                    -0.0065                  337.40103875334916
0.0015                    -0.0055                  336.4184017942283
0.0015                    -0.0045                  334.9975111964575
0.0015                    -0.0035                  332.45365765843155
0.0015                    -0.0025                  329.9899827709662
0.0015                    -0.0015                  325.12238391689664
0.0015                    -5.0E-4                  316.0787977739003
0.0015                    5.0E-4                   307.0970059904829
0.0015                    0.0015                   301.64773053161986
0.0015                    0.0025                   299.59128307671824
0.0015                    0.0035                   296.65777127418966
0.0015                    0.0045                   295.96646532275065
0.0015                    0.0055                   294.75030635252205
0.0015                    0.0065                   293.7483355783156
0.0015                    0.0075                   293.34643915250507
0.0015                    0.0085                   293.3195346031505
0.0015                    0.0095                   293.5802757020482
0.0015                    0.0105                   294.46266951058715
0.0015                    0.0115                   295.08842746464
0.0015                    0.0125                   295.71196256387134
0.0015                    0.0135                   297.10062224554923
0.0015                    0.0145                   297.81108512182897
0.0015                    0.0155                   303.6387789887001
0.0015                    0.0165                   310.1077886910934
0.0015                    0.0175                   315.59698250380785
0.0015                    0.0185                   318.7811084065139
0.0015                    0.0195                   322.3438453186457
0.0015                    0.0205                   325.1465142903571
0.0015                    0.0215                   326.3052415880344
0.0015                    0.0225                   328.1418548534615
0.0015                    0.0235                   329.2981010539948
0.0015                    0.0245                   330.1625479805041
0.0015                    0.0255                   332.2835336041273
0.0015                    0.0265                   334.01090444470447
0.0015                    0.0275                   336.17853285142286
0.0015                    0.0285                   339.3578210664049
0.0015                    0.0295                   342.61215448683777
0.0015                    0.0305                   345.0994935458991
0.0015                    0.0315                   346.67024682512954
0.0025                    -0.0315                  384.9191321922906
0.0025                    -0.0305                  383.2891621477032
0.0025                    -0.0295                  380.7896057923257
0.0025                    -0.0285                  377.1161309307373
0.0025                    -0.0275                  372.83015975933364
0.0025                    -0.0265                  367.72140098907516
0.0025                    -0.0255                  362.65735992801353
0.0025                    -0.0245                  358.1892445423743
0.0025                    -0.0235                  354.58002480490626
0.0025                    -0.0225                  350.97080506743816
0.0025                    -0.0215                  348.39732623847055
0.0025                    -0.0205                  346.95673796687515
0.0025                    -0.0195                  345.5161496952798
0.0025                    -0.0185                  344.67614796401796
0.0025                    -0.0175                  344.07889741891074
0.0025                    -0.0165                  343.4816468738036
0.0025                    -0.0155                  343.3237963320581
0.0025                    -0.0145                  343.1063909737553
0.0025                    -0.0135                  342.8889856154524
0.0025                    -0.0125                  342.95322560517377
0.0025                    -0.0115                  342.8743381472904
0.0025                    -0.0105                  342.7954506894072
0.0025                    -0.0095                  342.66558956808706
0.0025                    -0.0085                  342.3754046522182
0.0025                    -0.0075                  342.0852197363494
0.0025                    -0.0065                  341.21889675170553
0.0025                    -0.0055                  340.2360060278328
0.0025                    -0.0045                  339.2531153039601
0.0025                    -0.0035                  336.93218081145335
0.0025                    -0.0025                  334.4401510992988
0.0025                    -0.0015                  331.9481213871442
0.0025                    -5.0E-4                  324.0986614347576
0.0025                    5.0E-4                   314.98217128293595
0.0025                    0.0015                   306.3050808360994
0.0025                    0.0025                   302.91786933361925
0.0025                    0.0035                   299.98504370294495
0.0025                    0.0045                   296.50375266820686
0.0025                    0.0055                   295.05801443890584
0.0025                    0.0065                   293.99155292264044
0.0025                    0.0075                   293.51225772795203
0.0025                    0.0085                   293.4437913211028
0.0025                    0.0095                   293.72368842167737
0.0025                    0.0105                   294.72259096445873
0.0025                    0.0115                   295.87981596761654
0.0025                    0.0125                   297.8028765575327
0.0025                    0.0135                   299.2426651331897
0.0025                    0.0145                   302.7947216376296
0.0025                    0.0155                   309.3381798143344
0.0025                    0.0165                   315.88163799103916
0.0025                    0.0175                   319.725730385376
0.0025                    0.0185                   322.91032430598915
0.0025                    0.0195                   326.02318323630755
0.0025                    0.0205                   327.34258460716177
0.0025                    0.0215                   328.49939022108066
0.0025                    0.0225                   329.4619281843271
0.0025                    0.0235                   330.2645481354533
0.0025                    0.0245                   331.06716808657967
0.0025                    0.0255                   332.16753637832915
0.0025                    0.0265                   333.76409477470656
0.0025                    0.0275                   335.47289726717617
0.0025                    0.0285                   338.5153511317386
0.0025                    0.0295                   341.86192158311263
0.0025                    0.0305                   344.57649349579606
0.0025                    0.0315                   346.16292258357
0.0035                    -0.0315                  383.1109008824866
0.0035                    -0.0305                  381.0918345973937
0.0035                    -0.0295                  379.03465126315064
0.0035                    -0.0285                  375.04931449870287
0.0035                    -0.0275                  369.6784808540153
0.0035                    -0.0265                  364.38819789235123
0.0035                    -0.0255                  359.41242752298643
0.0035                    -0.0245                  355.98775067688615
0.0035                    -0.0235                  352.47043251889295
0.0035                    -0.0225                  349.03469456611094
0.0035                    -0.0215                  348.2413921850291
0.0035                    -0.0205                  347.0566234974386
0.0035                    -0.0195                  345.8545114985635
0.0035                    -0.0185                  346.2279061582809
0.0035                    -0.0175                  345.94140079441104
0.0035                    -0.0165                  345.6516496972365
0.0035                    -0.0155                  346.68643436318496
0.0035                    -0.0145                  346.7763098883032
0.0035                    -0.0135                  346.87174967223586
0.0035                    -0.0125                  347.92076395127236
0.0035                    -0.0115                  348.03250615858747
0.0035                    -0.0105                  348.06273794585945
0.0035                    -0.0095                  348.3362866425827
0.0035                    -0.0085                  348.0984710099105
0.0035                    -0.0075                  347.4138980760468
0.0035                    -0.0065                  346.07960972290994
0.0035                    -0.0055                  345.0906178879493
0.0035                    -0.0045                  343.16401594921336
0.0035                    -0.0035                  340.1238269247589
0.0035                    -0.0025                  337.63179721260434
0.0035                    -0.0015                  334.3373366442389
0.0035                    -5.0E-4                  329.5189028448074
0.0035                    5.0E-4                   320.4024126929858
0.0035                    0.0015                   313.0027672729411
0.0035                    0.0025                   307.6803919641567
0.0035                    0.0035                   303.85830721438754
0.0035                    0.0045                   297.5604881390219
0.0035                    0.0055                   295.5569270660809
0.0035                    0.0065                   294.3479996880997
0.0035                    0.0075                   293.54328792611295
0.0035                    0.0085                   293.5282697219649
0.0035                    0.0095                   294.083284934722
0.0035                    0.0105                   295.00326170243557
0.0035                    0.0115                   297.7582159989561
0.0035                    0.0125                   301.60729581646586
0.0035                    0.0135                   303.0470843921229
0.0035                    0.0145                   308.6328932372801
0.0035                    0.0155                   314.8464387720975
0.0035                    0.0165                   319.99919528218135
0.0035                    0.0175                   322.6728233161398
0.0035                    0.0185                   325.85037203901186
0.0035                    0.0195                   328.3574986740752
0.0035                    0.0205                   330.23963458209096
0.0035                    0.0215                   331.3768844564228
0.0035                    0.0225                   331.93371606321597
0.0035                    0.0235                   332.6566967154474
0.0035                    0.0245                   333.07742859021596
0.0035                    0.0255                   333.3092658482113
0.0035                    0.0265                   334.9058242445886
0.0035                    0.0275                   335.98619139395777
0.0035                    0.0285                   338.2743228160605
0.0035                    0.0295                   341.3552588674096
0.0035                    0.0305                   343.9118350915737
0.0035                    0.0315                   345.63137698993694
0.0045                    -0.0315                  381.5442277043782
0.0045                    -0.0305                  379.3578335173943
0.0045                    -0.0295                  377.15327249441924
0.0045                    -0.0285                  371.9789721461644
0.0045                    -0.0275                  366.5914022998109
0.0045                    -0.0265                  361.20383245345744
0.0045                    -0.0255                  357.1963563090036
0.0045                    -0.0245                  353.7716794629033
0.0045                    -0.0235                  350.347002616803
0.0045                    -0.0225                  348.74535153770444
0.0045                    -0.0215                  347.9520491566226
0.0045                    -0.0205                  347.15650902800206
0.0045                    -0.0195                  347.1275333010285
0.0045                    -0.0185                  347.5009279607459
0.0045                    -0.0175                  347.8039041699114
0.0045                    -0.0165                  348.5589111410923
0.0045                    -0.0155                  349.59369580704083
0.0045                    -0.0145                  350.44622880285124
0.0045                    -0.0135                  351.3425917313049
0.0045                    -0.0125                  352.39160601034143
0.0045                    -0.0115                  353.1906741698846
0.0045                    -0.0105                  353.44271810396253
0.0045                    -0.0095                  353.71626680068573
0.0045                    -0.0085                  353.81677370436074
0.0045                    -0.0075                  352.4824853512239
0.0045                    -0.0065                  351.14819699808703
0.0045                    -0.0055                  349.79039585331486
0.0045                    -0.0045                  346.70824101535106
0.0045                    -0.0035                  343.6260861773873
0.0045                    -0.0025                  340.51435932124343
0.0045                    -0.0015                  336.70597222983935
0.0045                    -5.0E-4                  332.8975851384352
0.0045                    5.0E-4                   326.79894446358924
0.0045                    0.0015                   319.7004537097828
0.0045                    0.0025                   312.60196295597643
0.0045                    0.0035                   306.61073922029163
0.0045                    0.0045                   300.312920144926
0.0045                    0.0055                   296.1641025074566
0.0045                    0.0065                   295.0042754141757
0.0045                    0.0075                   293.77303349072366
0.0045                    0.0085                   293.86083024519155
0.0045                    0.0095                   294.5747200845027
0.0045                    0.0105                   295.33533512754
0.0045                    0.0115                   299.8501798784284
0.0045                    0.0125                   304.36502462931674
0.0045                    0.0135                   309.0876406936832
0.0045                    0.0145                   314.68262011881984
0.0045                    0.0155                   320.3546977298605
0.0045                    0.0165                   323.2233135226569
0.0045                    0.0175                   325.89694155661533
0.0045                    0.0185                   328.4808021000341
0.0045                    0.0195                   330.69181411184286
0.0045                    0.0205                   332.90282612365155
0.0045                    0.0215                   333.8927992296154
0.0045                    0.0225                   334.44963083640846
0.0045                    0.0235                   335.00798360825155
0.0045                    0.0245                   334.8370824362937
0.0045                    0.0255                   334.6651662738075
0.0045                    0.0265                   335.46176580254644
0.0045                    0.0275                   336.409502822044
0.0045                    0.0285                   338.789361749994
0.0045                    0.0295                   341.31418809790546
0.0045                    0.0305                   343.48416258048724
0.0045                    0.0315                   345.4579813945508
0.0055                    -0.0315                  379.9775545262699
0.0055                    -0.0305                  377.64966804885796
0.0055                    -0.0295                  375.28256157198524
0.0055                    -0.0285                  369.68924767165873
0.0055                    -0.0275                  364.28679178235825
0.0055                    -0.0265                  359.5173321903796
0.0055                    -0.0255                  355.82784007994894
0.0055                    -0.0245                  352.33570057855974
0.0055                    -0.0235                  349.7567220674437
0.0055                    -0.0225                  349.207014466367
0.0055                    -0.0215                  348.412734733878
0.0055                    -0.0205                  348.45969941517245
0.0055                    -0.0195                  349.30016892376864
0.0055                    -0.0185                  349.6679045860569
0.0055                    -0.0175                  350.80815407818477
0.0055                    -0.0165                  352.3538314626086
0.0055                    -0.0155                  353.38152264329364
0.0055                    -0.0145                  354.8012738534452
0.0055                    -0.0135                  356.1925748929225
0.0055                    -0.0125                  357.23930055980816
0.0055                    -0.0115                  357.9835805330353
0.0055                    -0.0105                  358.3522921254232
0.0055                    -0.0095                  358.62788537096645
0.0055                    -0.0085                  357.6192368099373
0.0055                    -0.0075                  356.15955358746055
0.0055                    -0.0065                  354.8285895258753
0.0055                    -0.0055                  351.43280271110956
0.0055                    -0.0045                  348.0501803662976
0.0055                    -0.0035                  344.9207130750216
0.0055                    -0.0025                  339.66791426601895
0.0055                    -0.0015                  335.5686840533791
0.0055                    -5.0E-4                  331.64396536748086
0.0055                    5.0E-4                   327.4904394933334
0.0055                    0.0015                   320.35475565740603
0.0055                    0.0025                   313.58929163679
0.0055                    0.0035                   307.28471748497645
0.0055                    0.0045                   301.0070337607778
0.0055                    0.0055                   296.38687831997555
0.0055                    0.0065                   294.7602279580032
0.0055                    0.0075                   293.8627136284987
0.0055                    0.0085                   293.74826959923075
0.0055                    0.0095                   294.4621594385419
0.0055                    0.0105                   296.5998148735686
0.0055                    0.0115                   300.5209473386644
0.0055                    0.0125                   305.11984585918736
0.0055                    0.0135                   310.2053668463539
0.0055                    0.0145                   315.80615623282904
0.0055                    0.0155                   319.5286201152879
0.0055                    0.0165                   321.9432010810764
0.0055                    0.0175                   324.5822097590619
0.0055                    0.0185                   328.22535679101816
0.0055                    0.0195                   330.6076481424391
0.0055                    0.0205                   333.06827858820986
0.0055                    0.0215                   335.51872036116464
0.0055                    0.0225                   336.0826505187451
0.0055                    0.0235                   336.4792243477446
0.0055                    0.0245                   336.50140122515427
0.0055                    0.0255                   336.3826784501125
0.0055                    0.0265                   336.5125321627516
0.0055                    0.0275                   336.83281425013024
0.0055                    0.0285                   339.19980411391043
0.0055                    0.0295                   341.56727653271014
0.0055                    0.0305                   343.5459329313088
0.0055                    0.0315                   345.29310673543665
0.0065                    -0.0315                  378.2532320069304
0.0065                    -0.0305                  375.8067421636022
0.0065                    -0.0295                  373.1598819811984
0.0065                    -0.0285                  367.56656808087195
0.0065                    -0.0275                  362.0084722194862
0.0065                    -0.0265                  358.27097678640206
0.0065                    -0.0255                  354.53348135331794
0.0065                    -0.0245                  350.9713696141482
0.0065                    -0.0235                  350.1612572050696
0.0065                    -0.0225                  349.7254579340623
0.0065                    -0.0215                  349.2049505683101
0.0065                    -0.0205                  350.36087204226374
0.0065                    -0.0195                  351.5167935162174
0.0065                    -0.0185                  352.24724178713416
0.0065                    -0.0175                  354.238765790706
0.0065                    -0.0165                  356.23028979427784
0.0065                    -0.0155                  357.51526217474645
0.0065                    -0.0145                  359.3048759890298
0.0065                    -0.0135                  361.0944898033132
0.0065                    -0.0125                  362.088350119162
0.0065                    -0.0115                  362.6048284157439
0.0065                    -0.0105                  363.1199526822386
0.0065                    -0.0095                  362.8591930719985
0.0065                    -0.0085                  361.1100688704007
0.0065                    -0.0075                  359.39713897479515
0.0065                    -0.0065                  357.08786210627426
0.0065                    -0.0055                  352.81797509227124
0.0065                    -0.0045                  348.7608608145554
0.0065                    -0.0035                  344.4359043950816
0.0065                    -0.0025                  338.83575234946966
0.0065                    -0.0015                  333.7954697240965
0.0065                    -5.0E-4                  329.94039454514825
0.0065                    5.0E-4                   326.11791113901586
0.0065                    0.0015                   320.37888831750234
0.0065                    0.0025                   314.05150182714544
0.0065                    0.0035                   307.7241153367885
0.0065                    0.0045                   302.3137372950438
0.0065                    0.0055                   297.91468126248844
0.0065                    0.0065                   294.5161805018307
0.0065                    0.0075                   294.19298045526784
0.0065                    0.0085                   293.98131439053896
0.0065                    0.0095                   294.8919409112522
0.0065                    0.0105                   297.8876828295388