% Model:              SIMBench260525.mph
% Version:            COMSOL 6.2.0.339
% Date:               May 27 2026, 18:03
% Dimension:          2
% Nodes:              4096
% Expressions:        1
% Description:        温度
% Length unit:        m
% x                       y                        T (K)
% mirrored_by_python_y_to_minus_y, coord_match_decimals=12
0.0005 -0.0315 308.850191909
0.0005 -0.0305 307.695307628
0.0005 -0.0295 306.53909592
0.0005 -0.0285 304.60081527
0.0005 -0.0275 301.821387397
0.0005 -0.0265 299.536631212
0.0005 -0.0255 298.024168245
0.0005 -0.0245 296.544634989
0.0005 -0.0235 294.834188541
0.0005 -0.0225 294.064583594
0.0005 -0.0215 293.336191223
0.0005 -0.0205 293.162026441
0.0005 -0.0195 293.149668214
0.0005 -0.0185 293.147186213
0.0005 -0.0175 293.150973132
0.0005 -0.0165 293.153763951
0.0005 -0.0155 293.150995149
0.0005 -0.0145 293.144354036
0.0005 -0.0135 293.135216824
0.0005 -0.0125 293.135057735
0.0005 -0.0115 293.159361575
0.0005 -0.0105 293.587243378
0.0005 -0.0095 295.33919951
0.0005 -0.0085 297.215162234
0.0005 -0.0075 301.154467119
0.0005 -0.0065 303.74142128
0.0005 -0.0055 306.328375441
0.0005 -0.0045 312.181252759
0.0005 -0.0035 319.925336603
0.0005 -0.0025 327.224334711
0.0005 -0.0015 329.444431458
0.0005 -0.0005 331.130733896
0.0005 0.0005 332.719112125
0.0005 0.0015 333.628384031
0.0005 0.0025 334.325005315
0.0005 0.0035 334.973984695
0.0005 0.0045 335.534829159
0.0005 0.0055 336.093182748
0.0005 0.0065 336.499315495
0.0005 0.0075 337.096097163
0.0005 0.0085 337.726824829
0.0005 0.0095 338.133391845
0.0005 0.0105 338.925081615
0.0005 0.0115 339.716771386
0.0005 0.0125 340.325730843
0.0005 0.0135 341.327099706
0.0005 0.0145 342.328468569
0.0005 0.0155 343.323500306
0.0005 0.0165 344.767355429
0.0005 0.0175 346.215182946
0.0005 0.0185 348.183844868
0.0005 0.0195 350.687229776
0.0005 0.0205 353.291933391
0.0005 0.0215 356.917530301
0.0005 0.0225 360.967434021
0.0005 0.0235 365.307651518
0.0005 0.0245 370.268298666
0.0005 0.0255 375.270334513
0.0005 0.0265 380.490783803
0.0005 0.0275 384.807401321
0.0005 0.0285 388.983793817
0.0005 0.0295 392.56918513
0.0005 0.0305 394.259484436
0.0005 0.0315 395.938355175
0.0015 -0.0315 308.102510688
0.0015 -0.0305 307.203048353
0.0015 -0.0295 306.073753512
0.0015 -0.0285 304.961077543
0.0015 -0.0275 302.511764678
0.0015 -0.0265 300.823591192
0.0015 -0.0255 299.175722062
0.0015 -0.0245 297.508936421
0.0015 -0.0235 295.419667449
0.0015 -0.0225 294.044382715
0.0015 -0.0215 293.537547632
0.0015 -0.0205 293.185339089
0.0015 -0.0195 293.140694952
0.0015 -0.0185 293.150459669
0.0015 -0.0175 293.15869484
0.0015 -0.0165 293.159387511
0.0015 -0.0155 293.155830148
0.0015 -0.0145 293.150388432
0.0015 -0.0135 293.128897084
0.0015 -0.0125 293.100170162
0.0015 -0.0115 293.124427458
0.0015 -0.0105 294.054805793
0.0015 -0.0095 295.243553947
0.0015 -0.0085 298.178350787
0.0015 -0.0075 303.374497294
0.0015 -0.0065 307.061468603
0.0015 -0.0055 311.025442567
0.0015 -0.0045 316.123222459
0.0015 -0.0035 323.146634935
0.0015 -0.0025 327.401079707
0.0015 -0.0015 330.11827254
0.0015 -0.0005 331.933257341
0.0015 0.0005 333.26532101
0.0015 0.0015 334.518977282
0.0015 0.0025 335.215598566
0.0015 0.0035 335.787523297
0.0015 0.0045 336.354872878
0.0015 0.0055 336.878203646
0.0015 0.0065 337.141409441
0.0015 0.0075 337.512789738
0.0015 0.0085 338.044601262
0.0015 0.0095 338.295091082
0.0015 0.0105 338.778479956
0.0015 0.0115 339.424347661
0.0015 0.0125 339.852831555
0.0015 0.0135 340.605358327
0.0015 0.0145 341.472043266
0.0015 0.0155 342.225496637
0.0015 0.0165 343.464028892
0.0015 0.0175 344.939688468
0.0015 0.0185 346.429947227
0.0015 0.0195 348.776486248
0.0015 0.0205 351.647122927
0.0015 0.0215 354.593577365
0.0015 0.0225 358.631645548
0.0015 0.0235 363.440100083
0.0015 0.0245 368.294341478
0.0015 0.0255 373.350857528
0.0015 0.0265 378.773425464
0.0015 0.0275 383.904568214
0.0015 0.0285 387.864484125
0.0015 0.0295 391.534322168
0.0015 0.0305 393.916144114
0.0015 0.0315 395.033729661
0.0025 -0.0315 307.354829467
0.0025 -0.0305 306.435856217
0.0025 -0.0295 305.44352049
0.0025 -0.0285 304.36632732
0.0025 -0.0275 303.50646471
0.0025 -0.0265 301.853209329
0.0025 -0.0255 300.199953947
0.0025 -0.0245 298.131556588
0.0025 -0.0235 296.052296101
0.0025 -0.0225 294.112305875
0.0025 -0.0215 293.683276665
0.0025 -0.0205 293.332482997
0.0025 -0.0195 293.14350817
0.0025 -0.0185 293.153668449
0.0025 -0.0175 293.163828727
0.0025 -0.0165 293.164432185
0.0025 -0.0155 293.160857128
0.0025 -0.0145 293.151279237
0.0025 -0.0135 293.122552853
0.0025 -0.0125 293.093826469
0.0025 -0.0115 293.47706248
0.0025 -0.0105 294.410060765
0.0025 -0.0095 295.34305905
0.0025 -0.0085 299.572255251
0.0025 -0.0075 304.775451394
0.0025 -0.0065 310.099890395
0.0025 -0.0055 315.237756362
0.0025 -0.0045 320.341984074
0.0025 -0.0035 324.730290973
0.0025 -0.0025 327.44936899
0.0025 -0.0015 330.168447006
0.0025 -0.0005 332.585581497
0.0025 0.0005 333.848491998
0.0025 0.0015 335.111402498
0.0025 0.0025 336.219344948
0.0025 0.0035 336.789332538
0.0025 0.0045 337.359320129
0.0025 0.0055 337.784027773
0.0025 0.0065 338.050120506
0.0025 0.0075 338.316213238
0.0025 0.0085 338.497432553
0.0025 0.0095 338.752134492
0.0025 0.0105 339.005350637
0.0025 0.0115 339.286274056
0.0025 0.0125 339.718897023
0.0025 0.0135 340.076077268
0.0025 0.0145 340.782386682
0.0025 0.0155 341.538321581
0.0025 0.0165 342.266563707
0.0025 0.0175 343.757041338
0.0025 0.0185 345.247518968
0.0025 0.0195 346.984278757
0.0025 0.0205 349.932370875
0.0025 0.0215 352.880462994
0.0025 0.0225 356.468410516
0.0025 0.0235 361.272112207
0.0025 0.0245 366.075813899
0.0025 0.0255 371.211545433
0.0025 0.0265 376.523582652
0.0025 0.0275 381.854512505
0.0025 0.0285 386.396419845
0.0025 0.0295 390.028905576
0.0025 0.0305 392.539997235
0.0025 0.0315 394.129104148
0.0035 -0.0315 306.574857864
0.0035 -0.0305 305.640092012
0.0035 -0.0295 304.68323851
0.0035 -0.0285 303.8197574
0.0035 -0.0275 303.380930965
0.0035 -0.0265 302.303073034
0.0035 -0.0255 300.414634722
0.0035 -0.0245 298.14892309
0.0035 -0.0235 296.055658151
0.0035 -0.0225 294.573959263
0.0035 -0.0215 293.626279959
0.0035 -0.0205 293.288780663
0.0035 -0.0195 293.182731779
0.0035 -0.0185 293.156619985
0.0035 -0.0175 293.16584543
0.0035 -0.0165 293.172984427
0.0035 -0.0155 293.169409369
0.0035 -0.0145 293.145318889
0.0035 -0.0135 293.116097574
0.0035 -0.0125 293.128770437
0.0035 -0.0115 293.424581635
0.0035 -0.0105 294.212430469
0.0035 -0.0095 296.061265801
0.0035 -0.0085 299.286109646
0.0035 -0.0075 304.48930579
0.0035 -0.0065 310.280202666
0.0035 -0.0055 315.992141442
0.0035 -0.0045 321.096369153
0.0035 -0.0035 324.042375841
0.0035 -0.0025 326.75424977
0.0035 -0.0015 329.496035828
0.0035 -0.0005 332.720290286
0.0035 0.0005 334.652993035
0.0035 0.0015 336.052009439
0.0035 0.0025 338.053830371
0.0035 0.0035 338.915262309
0.0035 0.0045 339.523078523
0.0035 0.0055 340.20991642
0.0035 0.0065 340.505088448
0.0035 0.0075 340.574698846
0.0035 0.0085 340.441912132
0.0035 0.0095 340.696614071
0.0035 0.0105 340.57409946
0.0035 0.0115 340.352205266
0.0035 0.0125 340.784828233
0.0035 0.0135 340.826645509
0.0035 0.0145 340.997920247
0.0035 0.0155 341.753855146
0.0035 0.0165 342.162099549
0.0035 0.0175 343.023907009
0.0035 0.0185 344.505248799
0.0035 0.0195 345.64863639
0.0035 0.0205 347.867973848
0.0035 0.0215 350.783451287
0.0035 0.0225 353.545886713
0.0035 0.0235 357.834954699
0.0035 0.0245 362.754955508
0.0035 0.0255 367.911826648
0.0035 0.0265 373.19721591
0.0035 0.0275 378.66467467
0.0035 0.0285 384.221154318
0.0035 0.0295 388.344880005
0.0035 0.0305 390.408806949
0.0035 0.0315 392.282796277
0.0045 -0.0315 305.811183363
0.0045 -0.0305 304.866041413
0.0045 -0.0295 303.943874919
0.0045 -0.0285 303.505595979
0.0045 -0.0275 303.065725254
0.0045 -0.0265 302.625854528
0.0045 -0.0255 300.534584833
0.0045 -0.0245 298.2688732
0.0045 -0.0235 296.232339383
0.0045 -0.0225 295.035612651
0.0045 -0.0215 293.838885918
0.0045 -0.0205 293.361663895
0.0045 -0.0195 293.255615011
0.0045 -0.0185 293.159571522
0.0045 -0.0175 293.167606477
0.0045 -0.0165 293.175587011
0.0045 -0.0155 293.168986449
0.0045 -0.0145 293.13937674
0.0045 -0.0135 293.109767031
0.0045 -0.0125 293.30591419
0.0045 -0.0115 293.601725387
0.0045 -0.0105 294.014800174
0.0045 -0.0095 297.061485173
0.0045 -0.0085 300.123937804
0.0045 -0.0075 304.422118293
0.0045 -0.0065 310.460514937
0.0045 -0.0055 316.498911581
0.0045 -0.0045 320.651779427
0.0045 -0.0035 323.35618787
0.0045 -0.0025 326.060596314
0.0045 -0.0015 329.105462174
0.0045 -0.0005 332.329716632
0.0045 0.0005 335.457494072
0.0045 0.0015 337.302234449
0.0045 0.0025 339.304055382
0.0045 0.0035 341.04119208
0.0045 0.0045 341.719381668
0.0045 0.0055 342.406219565
0.0045 0.0065 342.932376011
0.0045 0.0075 342.774747442
0.0045 0.0085 342.617118873
0.0045 0.0095 342.514017861
0.0045 0.0105 342.142848282
0.0045 0.0115 341.771678704
0.0045 0.0125 341.670686935
0.0045 0.0135 341.577213749
0.0045 0.0145 341.483740564
0.0045 0.0155 341.778623138
0.0045 0.0165 342.141940444
0.0045 0.0175 342.505257751
0.0045 0.0185 343.564669082
0.0045 0.0195 344.708056673
0.0045 0.0205 345.851444264
0.0045 0.0215 348.605172691
0.0045 0.0225 351.367608117
0.0045 0.0235 354.39779719
0.0045 0.0245 359.527332921
0.0045 0.0255 364.684204062
0.0045 0.0265 369.92201163
0.0045 0.0275 375.493089787
0.0045 0.0285 381.064167944
0.0045 0.0295 386.520706739
0.0045 0.0305 388.535471913
0.0045 0.0315 390.507788
0.0055 -0.0315 305.047508862
0.0055 -0.0305 304.32967932
0.0055 -0.0295 303.658990786
0.0055 -0.0285 303.282759366
0.0055 -0.0275 302.842888641
0.0055 -0.0265 302.198043911
0.0055 -0.0255 300.768889711
0.0055 -0.0245 298.498163755
0.0055 -0.0235 296.392829812
0.0055 -0.0225 294.913472706
0.0055 -0.0215 293.784544376
0.0055 -0.0205 293.355580874
0.0055 -0.0195 293.249949541
0.0055 -0.0185 293.184230391
0.0055 -0.0175 293.173887902
0.0055 -0.0165 293.181818265
0.0055 -0.0155 293.170247822
0.0055 -0.0145 293.141825213
0.0055 -0.0135 293.136735476
0.0055 -0.0125 293.267738924
0.0055 -0.0115 293.56562758
0.0055 -0.0105 294.422340353
0.0055 -0.0095 296.772525472
0.0055 -0.0085 299.84481812
0.0055 -0.0075 304.656472376
0.0055 -0.0065 310.584645201
0.0055 -0.0055 316.407980782
0.0055 -0.0045 319.327417518
0.0055 -0.0035 322.035877658
0.0055 -0.0025 324.808490224
0.0055 -0.0015 327.852915682
0.0055 -0.0005 331.080106372
0.0055 0.0005 334.55430886
0.0055 0.0015 337.606910722
0.0055 0.0025 339.607626404
0.0055 0.0035 341.85392832
0.0055 0.0045 343.306755326
0.0055 0.0055 343.991682757
0.0055 0.0065 344.810596792
0.0055 0.0075 344.971031739
0.0055 0.0085 344.813384106
0.0055 0.0095 344.429342151
0.0055 0.0105 344.047280418
0.0055 0.0115 343.678512548
0.0055 0.0125 342.941936565
0.0055 0.0135 342.803164403
0.0055 0.0145 342.684972423
0.0055 0.0155 342.29064435
0.0055 0.0165 342.655787252
0.0055 0.0175 342.967917655
0.0055 0.0185 343.288866734
0.0055 0.0195 344.432747184
0.0055 0.0205 345.487922037
0.0055 0.0215 347.079017321
0.0055 0.0225 349.835176181
0.0055 0.0235 352.548685056
0.0055 0.0245 356.620917153
0.0055 0.0255 361.800001762
0.0055 0.0265 367.179212713
0.0055 0.0275 372.707040238
0.0055 0.0285 378.28765907
0.0055 0.0295 384.135536339
0.0055 0.0305 386.501973523
0.0055 0.0315 388.732779723
0.0065 -0.0315 304.720012098
0.0065 -0.0305 304.017696833
0.0065 -0.0295 303.376917048
0.0065 -0.0285 303.003310975
0.0065 -0.0275 302.563306604
0.0065 -0.0265 301.741393375
0.0065 -0.0255 300.919480145
0.0065 -0.0245 298.786726082
0.0065 -0.0235 296.748434807
0.0065 -0.0225 294.735475601
0.0065 -0.0215 293.981679119
0.0065 -0.0205 293.524160332
0.0065 -0.0195 293.24088964
0.0065 -0.0185 293.212407022
0.0065 -0.0175 293.183924403
0.0065 -0.0165 293.178886125
0.0065 -0.0155 293.165077492
0.0065 -0.0145 293.145575082
0.0065 -0.0135 293.194304718
0.0065 -0.0125 293.259932429
0.0065 -0.0115 293.616813316
0.0065 -0.0105 294.913098602
0.0065 -0.0095 296.213462033
0.0065 -0.0085 300.11166611
0.0065 -0.0075 305.288010938
0.0065 -0.0065 310.695717316
0.0065 -0.0055 314.780293111
0.0065 -0.0045 317.729642639
0.0065 -0.0035 320.555097267
0.0065 -0.0025 323.483786087
0.0065 -0.0015 326.454409549
0.0065 -0.0005 329.598029856
0.0065 0.0005 333.454533196
0.0065 0.0015 337.322291141
0.0065 0.0025 339.712388227
0.0065 0.0035 342.179455199
0.0065 0.0045 344.64652217
0.0065 0.0055 345.46994386
0.0065 0.0065 346.356221333
0.0065 0.0075 347.166366967
0.0065 0.0085 346.895630964
0.0065 0.0095 346.455692862
0.0065 0.0105 346.028864343
0.0065 0.0115 345.450309393
0.0065 0.0125 344.689952971
0.0065 0.0135 344.12541988
0.0065 0.0145 343.802998868
0.0065 0.0155 343.370892419
0.0065 0.0165 343.267350142
0.0065 0.0175 343.439532106
0.0065 0.0185 343.574398779
0.0065 0.0195 344.264649795
0.0065 0.0205 345.195789272
0.0065 0.0215 346.12692875
0.0065 0.0225 348.41818612
0.0065 0.0235 351.094242568
0.0065 0.0245 353.770299016
0.0065 0.0255 358.984680966
0.0065 0.0265 364.455629675
0.0065 0.0275 369.926578384
0.0065 0.0285 375.745246194
0.0065 0.0295 381.593123463
0.0065 0.0305 384.234036927
0.0065 0.0315 386.599821938
0.0075 -0.0315 304.422095499
0.0075 -0.0305 303.714184609
0.0075 -0.0295 303.125483932
0.0075 -0.0285 302.824465029
0.0075 -0.0275 302.484890245
0.0075 -0.0265 301.551492506
0.0075 -0.0255 300.618094766
0.0075 -0.0245 298.960973117
0.0075 -0.0235 296.859873113
0.0075 -0.0225 294.791416491
0.0075 -0.0215 294.027738932
0.0075 -0.0205 293.569641488
0.0075 -0.0195 293.269544412
0.0075 -0.0185 293.223225532
0.0075 -0.0175 293.19533581
0.0075 -0.0165 293.179820983
0.0075 -0.0155 293.165729133
0.0075 -0.0145 293.158039149
0.0075 -0.0135 293.211695435
0.0075 -0.0125 293.278152097
0.0075 -0.0115 293.743402518
0.0075 -0.0105 295.045931265
0.0075 -0.0095 296.348460012
0.0075 -0.0085 300.111935619
0.0075 -0.0075 305.297116036
0.0075 -0.0065 310.404850105
0.0075 -0.0055 313.967240747
0.0075 -0.0045 316.907163188
0.0075 -0.0035 319.189195529
0.0075 -0.0025 322.007595328
0.0075 -0.0015 324.979708509
0.0075 -0.0005 327.986946401
0.0075 0.0005 331.855544044
0.0075 0.0015 335.724141686
0.0075 0.0025 339.261551951
0.0075 0.0035 341.722939949
0.0075 0.0045 344.184327948
0.0075 0.0055 346.256924009
0.0075 0.0065 347.134690229
0.0075 0.0075 348.012456449
0.0075 0.0085 348.381263612
0.0075 0.0095 347.932456721
0.0075 0.0105 347.502916242
0.0075 0.0115 346.945646073
0.0075 0.0125 346.179460688
0.0075 0.0135 345.410771123
0.0075 0.0145 344.857681277
0.0075 0.0155 344.424051172
0.0075 0.0165 343.988108173
0.0075 0.0175 343.990440846
0.0075 0.0185 344.12797698
0.0075 0.0195 344.244142363
0.0075 0.0205 345.126480729
0.0075 0.0215 346.04539985
0.0075 0.0225 347.322435133
0.0075 0.0235 349.923841506
0.0075 0.0245 352.525247879
0.0075 0.0255 356.326127869
0.0075 0.0265 361.845335854
0.0075 0.0275 367.367772643
0.0075 0.0285 373.210683832
0.0075 0.0295 379.082783297
0.0075 0.0305 382.196306256
0.0075 0.0315 384.660617496
0.0085 -0.0315 304.132946198
0.0085 -0.0305 303.506169108
0.0085 -0.0295 302.963513166
0.0085 -0.0285 302.69346467
0.0085 -0.0275 302.406177223
0.0085 -0.0265 301.530024461
0.0085 -0.0255 300.700348486
0.0085 -0.0245 299.002970411
0.0085 -0.0235 296.701819086
0.0085 -0.0225 295.053093381
0.0085 -0.0215 294.046458021
0.0085 -0.0205 293.568675051
0.0085 -0.0195 293.369178523
0.0085 -0.0185 293.223024568
0.0085 -0.0175 293.201910067
0.0085 -0.0165 293.185516735
0.0085 -0.0155 293.171172577
0.0085 -0.0145 293.172889138
0.0085 -0.0135 293.190903964
0.0085 -0.0125 293.373826198
0.0085 -0.0115 293.862239747
0.0085 -0.0105 294.797207645
0.0085 -0.0095 296.939315007
0.0085 -0.0085 299.828349296
0.0085 -0.0075 304.581053766
0.0085 -0.0065 309.465984099
0.0085 -0.0055 314.149707344
0.0085 -0.0045 317.089629785
0.0085 -0.0035 318.492528871
0.0085 -0.0025 320.335044387
0.0085 -0.0015 323.301076447
0.0085 -0.0005 326.237271257
0.0085 0.0005 329.587654668
0.0085 0.0015 333.431398079
0.0085 0.0025 337.22123348
0.0085 0.0035 340.233441434
0.0085 0.0045 342.812607429
0.0085 0.0055 345.530883128
0.0085 0.0065 346.949073118
0.0085 0.0075 347.916167917
0.0085 0.0085 348.944300866
0.0085 0.0095 348.769931231
0.0085 0.0105 348.42776921
0.0085 0.0115 348.126126098
0.0085 0.0125 347.401362759
0.0085 0.0135 346.627256685
0.0085 0.0145 345.852658323
0.0085 0.0155 345.418915449
0.0085 0.0165 344.979961139
0.0085 0.0175 344.603870453
0.0085 0.0185 344.733750363
0.0085 0.0195 344.838398244
0.0085 0.0205 345.238338474
0.0085 0.0215 346.121331883
0.0085 0.0225 346.966082713
0.0085 0.0235 349.246655502
0.0085 0.0245 351.584189003
0.0085 0.0255 355.142876089
0.0085 0.0265 359.616316763
0.0085 0.0275 364.838088339
0.0085 0.0285 370.932710921
0.0085 0.0295 377.224300083
0.0085 0.0305 380.30752993
0.0085 0.0315 382.726756901
0.0095 -0.0315 303.953312409
0.0095 -0.0305 303.348170762
0.0095 -0.0295 302.796927985
0.0095 -0.0285 302.52687949
0.0095 -0.0275 302.322831563
0.0095 -0.0265 301.603800447
0.0095 -0.0255 300.783539174
0.0095 -0.0245 299.109894771
0.0095 -0.0235 296.808593787
0.0095 -0.0225 295.111124497
0.0095 -0.0215 294.138239582
0.0095 -0.0205 293.61553961
0.0095 -0.0195 293.414551333
0.0095 -0.0185 293.238976004
0.0095 -0.0175 293.20754998
0.0095 -0.0165 293.191448105
0.0095 -0.0155 293.182734552
0.0095 -0.0145 293.184862043
0.0095 -0.0135 293.186989534
0.0095 -0.0125 293.555371193
0.0095 -0.0115 294.046838911
0.0095 -0.0105 294.61923668
0.0095 -0.0095 297.464282448
0.0095 -0.0085 300.359977887
0.0095 -0.0075 303.811881507
0.0095 -0.0065 308.598163078
0.0095 -0.0055 313.384444649
0.0095 -0.0045 316.425096778
0.0095 -0.0035 317.801548361
0.0095 -0.0025 319.177999945
0.0095 -0.0015 321.599866203
0.0095 -0.0005 324.536136771
0.0095 0.0005 327.472407339
0.0095 0.0015 331.054334017
0.0095 0.0025 334.841536206
0.0095 0.0035 338.586251321
0.0095 0.0045 341.302912459
0.0095 0.0055 344.00929848
0.0095 0.0065 346.59581188
0.0095 0.0075 347.607458419
0.0095 0.0085 348.619104959
0.0095 0.0095 349.48248178
0.0095 0.0105 349.164208763
0.0095 0.0115 348.845935746
0.0095 0.0125 348.549551695
0.0095 0.0135 347.764139138
0.0095 0.0145 346.978726582
0.0095 0.0155 346.450408954
0.0095 0.0165 346.016993643
0.0095 0.0175 345.583578333
0.0095 0.0185 345.36778368
0.0095 0.0195 345.473471255
0.0095 0.0205 345.5790451
0.0095 0.0215 346.236755631
0.0095 0.0225 347.089203173
0.0095 0.0235 348.375311243
0.0095 0.0245 350.590885549
0.0095 0.0255 354.180776148
0.0095 0.0265 358.606246339
0.0095 0.0275 363.101107904
0.0095 0.0285 369.074227707
0.0095 0.0295 375.365816869
0.0095 0.0305 378.443997955
0.0095 0.0315 381.084931309
0.0105 -0.0315 303.747485883
0.0105 -0.0305 303.151354184
0.0105 -0.0295 302.66695239
0.0105 -0.0285 302.473582575
0.0105 -0.0275 302.270161048
0.0105 -0.0265 301.573959013
0.0105 -0.0255 300.807961067
0.0105 -0.0245 299.292315072
0.0105 -0.0235 297.04114409
0.0105 -0.0225 294.943114683
0.0105 -0.0215 294.127740616
0.0105 -0.0205 293.674970196
0.0105 -0.0195 293.372028402
0.0105 -0.0185 293.271930527
0.0105 -0.0175 293.210973158
0.0105 -0.0165 293.195215623
0.0105 -0.0155 293.180643557
0.0105 -0.0145 293.180063121
0.0105 -0.0135 293.256742978
0.0105 -0.0125 293.467045248
0.0105 -0.0115 293.958512966
0.0105 -0.0105 295.001291662
0.0105 -0.0095 296.901485971
0.0105 -0.0085 299.79718141
0.0105 -0.0075 303.886968201
0.0105 -0.0065 308.456629167
0.0105 -0.0055 313.005074965
0.0105 -0.0045 315.613858152
0.0105 -0.0035 317.182549462
0.0105 -0.0025 318.498533795
0.0105 -0.0015 319.795617664
0.0105 -0.0005 322.731888231
0.0105 0.0005 325.301041535
0.0105 0.0015 327.819615426
0.0105 0.0025 331.606817614
0.0105 0.0035 334.883663579
0.0105 0.0045 337.778658464
0.0105 0.0055 340.485044485
0.0105 0.0065 343.308094861
0.0105 0.0075 345.338782237
0.0105 0.0085 346.350428776
0.0105 0.0095 347.979316113
0.0105 0.0105 348.581510141
0.0105 0.0115 348.292381777
0.0105 0.0125 348.811702986
0.0105 0.0135 348.519480454
0.0105 0.0145 347.822272682
0.0105 0.0155 347.565088247
0.0105 0.0165 347.188648657
0.0105 0.0175 346.740801515
0.0105 0.0185 346.26957386
0.0105 0.0195 346.201189871
0.0105 0.0205 346.306280781
0.0105 0.0215 346.447993254
0.0105 0.0225 347.300440796
0.0105 0.0235 348.765240903
0.0105 0.0245 350.220272016
0.0105 0.0255 353.004992239
0.0105 0.0265 357.258271652
0.0105 0.0275 361.814461649
0.0105 0.0285 367.77094275
0.0105 0.0295 373.756156367
0.0105 0.0305 376.97905844
0.0105 0.0315 379.710031598
0.0115 -0.0315 303.559488268
0.0115 -0.0305 303.026919622
0.0115 -0.0295 302.55696705
0.0115 -0.0285 302.388945888
0.0115 -0.0275 302.217490534
0.0115 -0.0265 301.573041165
0.0115 -0.0255 300.858257441
0.0115 -0.0245 299.434080454
0.0115 -0.0235 297.220428049
0.0115 -0.0225 295.006775644
0.0115 -0.0215 294.22459919
0.0115 -0.0205 293.744133276
0.0115 -0.0195 293.405321976
0.0115 -0.0185 293.304969631
0.0115 -0.0175 293.214396336
0.0115 -0.0165 293.199631291
0.0115 -0.0155 293.185059225
0.0115 -0.0145 293.184507548
0.0115 -0.0135 293.350108471
0.0115 -0.0125 293.515709395
0.0115 -0.0115 294.077004161
0.0115 -0.0105 295.383346643
0.0115 -0.0095 296.689689126
0.0115 -0.0085 299.853058559
0.0115 -0.0075 304.081564664
0.0115 -0.0065 308.315095256
0.0115 -0.0055 311.636699416
0.0115 -0.0045 314.245482603
0.0115 -0.0035 316.563550562
0.0115 -0.0025 317.773494232
0.0115 -0.0015 318.960657227
0.0115 -0.0005 320.86941953
0.0115 0.0005 323.060507462
0.0115 0.0015 325.251595395
0.0115 0.0025 328.190563966
0.0115 0.0035 331.181075838
0.0115 0.0045 334.171587709
0.0115 0.0055 337.016584823
0.0115 0.0065 339.872192766
0.0115 0.0075 342.72780071
0.0115 0.0085 344.424392702
0.0115 0.0095 346.112470764
0.0115 0.0105 347.800548825
0.0115 0.0115 348.20206772
0.0115 0.0125 348.721388929
0.0115 0.0135 349.240710139
0.0115 0.0145 348.875407962
0.0115 0.0155 348.618223527
0.0115 0.0165 348.360303671
0.0115 0.0175 347.883926774
0.0115 0.0185 347.399029647
0.0115 0.0195 347.004843603
0.0115 0.0205 347.071611467
0.0115 0.0215 347.138379331
0.0115 0.0225 347.652714907
0.0115 0.0235 348.890547401
0.0115 0.0245 350.128379896
0.0115 0.0255 352.806377687
0.0115 0.0265 356.279547694
0.0115 0.0275 360.527815394
0.0115 0.0285 366.574146179
0.0115 0.0295 372.62739932
0.0115 0.0305 375.756276883
0.0115 0.0315 378.368081971
0.0125 -0.0315 303.435854327
0.0125 -0.0305 302.923412273
0.0125 -0.0295 302.446981711
0.0125 -0.0285 302.286142802
0.0125 -0.0275 302.154419946
0.0125 -0.0265 301.592063072
0.0125 -0.0255 300.909941142
0.0125 -0.0245 299.575845836
0.0125 -0.0235 297.3191521
0.0125 -0.0225 295.020905205
0.0125 -0.0215 294.259953775
0.0125 -0.0205 293.746899755
0.0125 -0.0195 293.438951418
0.0125 -0.0185 293.332505779
0.0125 -0.0175 293.226841202
0.0125 -0.0165 293.202279035
0.0125 -0.0155 293.187673947
0.0125 -0.0145 293.204371526
0.0125 -0.0135 293.347735317
0.0125 -0.0125 293.517336791
0.0125 -0.0115 294.008712174
0.0125 -0.0105 295.293526677
0.0125 -0.0095 296.627322627
0.0125 -0.0085 299.420939037
0.0125 -0.0075 303.654906176
0.0125 -0.0065 307.872904371
0.0125 -0.0055 311.399337353
0.0125 -0.0045 313.998655305
0.0125 -0.0035 315.909464054
0.0125 -0.0025 317.040897862
0.0125 -0.0015 318.2280642
0.0125 -0.0005 319.118209595
0.0125 0.0005 321.048976586
0.0125 0.0015 323.241542227
0.0125 0.0025 324.552995362
0.0125 0.0035 327.457962296
0.0125 0.0045 330.448288482
0.0125 0.0055 332.158139617
0.0125 0.0065 334.997871836
0.0125 0.0075 337.76928967
0.0125 0.0085 339.830162714
0.0125 0.0095 341.488285937
0.0125 0.0105 343.358520377
0.0125 0.0115 345.428199042
0.0125 0.0125 345.916528741
0.0125 0.0135 346.970671141
0.0125 0.0145 348.383449192
0.0125 0.0155 348.025555507
0.0125 0.0165 348.267980956
0.0125 0.0175 348.884472991
0.0125 0.0185 348.399575864
0.0125 0.0195 348.198820024
0.0125 0.0205 348.170091492
0.0125 0.0215 348.204065834
0.0125 0.0225 348.329037699
0.0125 0.0235 348.961368882
0.0125 0.0245 350.036487775
0.0125 0.0255 352.794627031
0.0125 0.0265 356.084564607
0.0125 0.0275 359.863871722
0.0125 0.0285 365.502046192
0.0125 0.0295 371.498642273
0.0125 0.0305 374.576692808
0.0125 0.0315 377.33309288
0.0135 -0.0315 303.296282946
0.0135 -0.0305 302.785753536
0.0135 -0.0295 302.352620349
0.0135 -0.0285 302.235734235
0.0135 -0.0275 302.104011378
0.0135 -0.0265 301.553805587
0.0135 -0.0255 300.898692826
0.0135 -0.0245 299.651462821
0.0135 -0.0235 297.328905707
0.0135 -0.0225 295.030658812
0.0135 -0.0215 294.335827748
0.0135 -0.0205 293.79675199
0.0135 -0.0195 293.453898438
0.0135 -0.0185 293.335016658
0.0135 -0.0175 293.242701293
0.0135 -0.0165 293.212378423
0.0135 -0.0155 293.204312952
0.0135 -0.0145 293.235516489
0.0135 -0.0135 293.315673996
0.0135 -0.0125 293.654513737
0.0135 -0.0115 294.204286212
0.0135 -0.0105 295.021213204
0.0135 -0.0095 297.020197612
0.0135 -0.0085 299.510971423
0.0135 -0.0075 302.985320512
0.0135 -0.0065 307.165146161
0.0135 -0.0055 311.331212653
0.0135 -0.0045 314.226069419
0.0135 -0.0035 315.264529815
0.0135 -0.0025 316.304981171
0.0135 -0.0015 317.39955733
0.0135 -0.0005 318.125348679
0.0135 0.0005 319.135643784
0.0135 0.0015 320.906006492
0.0135 0.0025 322.009467918
0.0135 0.0035 323.726714478
0.0135 0.0045 325.936086102
0.0135 0.0055 327.488473743
0.0135 0.0065 329.613370007
0.0135 0.0075 331.976199841
0.0135 0.0085 334.125602192
0.0135 0.0095 336.00693831
0.0135 0.0105 338.45399128
0.0135 0.0115 341.070567051
0.0135 0.0125 342.385644769
0.0135 0.0135 344.500651067
0.0135 0.0145 346.796285645
0.0135 0.0155 347.252171438
0.0135 0.0165 348.156996873
0.0135 0.0175 349.191816815
0.0135 0.0185 349.553779435
0.0135 0.0195 349.293919101
0.0135 0.0205 349.18361436
0.0135 0.0215 349.188157731
0.0135 0.0225 349.265944615
0.0135 0.0235 349.898275799
0.0135 0.0245 350.465954861
0.0135 0.0255 352.390760512
0.0135 0.0265 355.581269539
0.0135 0.0275 359.420965227
0.0135 0.0285 365.059139697
0.0135 0.0295 370.635398837
0.0135 0.0305 373.641570726
0.0135 0.0315 376.413827873
0.0145 -0.0315 303.169421635
0.0145 -0.0305 302.688651261
0.0145 -0.0295 302.25800537
0.0145 -0.0285 302.153367506
0.0145 -0.0275 302.048729642
0.0145 -0.0265 301.580509611
0.0145 -0.0255 301.008776649
0.0145 -0.0245 299.77287035
0.0145 -0.0235 297.408680191
0.0145 -0.0225 295.044490032
0.0145 -0.0215 294.379948799
0.0145 -0.0205 293.811035469
0.0145 -0.0195 293.486172032
0.0145 -0.0185 293.349976301
0.0145 -0.0175 293.258511524
0.0145 -0.0165 293.228111162
0.0145 -0.0155 293.222731015
0.0145 -0.0145 293.259036978
0.0145 -0.0135 293.293609689
0.0145 -0.0125 293.787804614
0.0145 -0.0115 294.316502168
0.0145 -0.0105 294.932007617
0.0145 -0.0095 297.097372987
0.0145 -0.0085 299.589371074
0.0145 -0.0075 302.491447489
0.0145 -0.0065 306.632673021
0.0145 -0.0055 310.791372255
0.0145 -0.0045 313.767958798
0.0145 -0.0035 314.805881777
0.0145 -0.0025 315.843804756
0.0145 -0.0015 316.494227971
0.0145 -0.0005 317.222716271
0.0145 0.0005 317.951204572
0.0145 0.0015 318.687743933
0.0145 0.0025 319.79915361
0.0145 0.0035 320.806037286
0.0145 0.0045 321.978685638
0.0145 0.0055 323.548215651
0.0145 0.0065 324.776383232
0.0145 0.0075 326.595950791
0.0145 0.0085 328.756691631
0.0145 0.0095 330.281584328
0.0145 0.0105 332.735238543
0.0145 0.0115 335.34711849
0.0145 0.0125 337.468197358
0.0145 0.0135 339.998970952
0.0145 0.0145 342.529744546
0.0145 0.0155 345.414921302
0.0145 0.0165 346.44541811
0.0145 0.0175 346.837252753
0.0145 0.0185 349.120783439
0.0145 0.0195 349.370895882
0.0145 0.0205 349.435586587
0.0145 0.0215 349.828486269
0.0145 0.0225 350.202851531
0.0145 0.0235 350.651345803
0.0145 0.0245 351.099480434
0.0145 0.0255 352.985177772
0.0145 0.0265 355.501432323
0.0145 0.0275 358.954028027
0.0145 0.0285 364.47796738
0.0145 0.0295 370.001906733
0.0145 0.0305 372.9596542
0.0145 0.0315 375.565398382
0.0155 -0.0315 303.061636352
0.0155 -0.0305 302.595633966
0.0155 -0.0295 302.16339039
0.0155 -0.0285 302.0634725
0.0155 -0.0275 301.972877759
0.0155 -0.0265 301.600276228
0.0155 -0.0255 301.118860471
0.0155 -0.0245 299.894277879
0.0155 -0.0235 297.505941725
0.0155 -0.0225 295.099629384
0.0155 -0.0215 294.421897969
0.0155 -0.0205 293.825318949
0.0155 -0.0195 293.517999518
0.0155 -0.0185 293.368178411
0.0155 -0.0175 293.26802915
0.0155 -0.0165 293.243124023
0.0155 -0.0155 293.237201728
0.0155 -0.0145 293.266184626
0.0155 -0.0135 293.337928236
0.0155 -0.0125 293.681362635
0.0155 -0.0115 294.210060189
0.0155 -0.0105 295.188166041
0.0155 -0.0095 296.582970673
0.0155 -0.0085 299.07496876
0.0155 -0.0075 302.614650778
0.0155 -0.0065 306.457119264
0.0155 -0.0055 310.414316104
0.0155 -0.0045 313.101020422
0.0155 -0.0035 314.769973208
0.0155 -0.0025 315.581836692
0.0155 -0.0015 315.880794377
0.0155 -0.0005 316.511987709
0.0155 0.0005 316.965005934
0.0155 0.0015 317.167258911
0.0155 0.0025 318.218177912
0.0155 0.0035 318.73867583
0.0155 0.0045 319.08974055
0.0155 0.0055 320.659270564
0.0155 0.0065 321.175264235
0.0155 0.0075 321.845983034
0.0155 0.0085 323.97850279
0.0155 0.0095 324.634624505
0.0155 0.0105 325.884894193
0.0155 0.0115 328.322090221
0.0155 0.0125 329.916343662
0.0155 0.0135 332.033357272
0.0155 0.0145 334.681943108
0.0155 0.0155 337.562360272
0.0155 0.0165 341.418837961
0.0155 0.0175 344.544005428
0.0155 0.0185 347.128522403
0.0155 0.0195 349.447872662
0.0155 0.0205 349.695051924
0.0155 0.0215 350.140921704
0.0155 0.0225 350.604656347
0.0155 0.0235 351.208716774
0.0155 0.0245 351.733006007
0.0155 0.0255 353.608705298
0.0155 0.0265 355.905893463
0.0155 0.0275 358.959674243
0.0155 0.0285 363.986711266
0.0155 0.0295 369.368414628
0.0155 0.0305 372.315822343
0.0155 0.0315 374.95436418
0.0165 -0.0315 302.945356325
0.0165 -0.0305 302.47935394
0.0165 -0.0295 302.0736276
0.0165 -0.0285 301.991746859
0.0165 -0.0275 301.901152117
0.0165 -0.0265 301.53106853
0.0165 -0.0255 301.085230562
0.0165 -0.0245 299.969440114
0.0165 -0.0235 297.559208008
0.0165 -0.0225 295.152895667
0.0165 -0.0215 294.500047965
0.0165 -0.0205 293.874115961
0.0165 -0.0195 293.533702403
0.0165 -0.0185 293.380329411
0.0165 -0.0175 293.275796195
0.0165 -0.0165 293.251984247
0.0165 -0.0155 293.24121609
0.0165 -0.0145 293.265779417
0.0165 -0.0135 293.387419948