% Model:              SIMBench260525.mph
% Version:            COMSOL 6.2.0.339
% Date:               May 27 2026, 17:51
% Dimension:          2
% Nodes:              4096
% Expressions:        1
% Description:        温度
% Length unit:        m
% x                       y                        T (K)
% mirrored_by_python_y_to_minus_y, coord_match_decimals=12
0.0005 -0.0315 294.367908348
0.0005 -0.0305 294.106644662
0.0005 -0.0295 293.800727543
0.0005 -0.0285 293.457288894
0.0005 -0.0275 293.265703457
0.0005 -0.0265 293.200172076
0.0005 -0.0255 293.132716504
0.0005 -0.0245 293.119563601
0.0005 -0.0235 293.161782427
0.0005 -0.0225 293.949612558
0.0005 -0.0215 296.724296009
0.0005 -0.0205 299.669662982
0.0005 -0.0195 305.983687849
0.0005 -0.0185 307.76840293
0.0005 -0.0175 309.553118011
0.0005 -0.0165 316.836816651
0.0005 -0.0155 326.79860455
0.0005 -0.0145 336.60268472
0.0005 -0.0135 340.427979369
0.0005 -0.0125 345.528139207
0.0005 -0.0115 350.038600711
0.0005 -0.0105 351.117310232
0.0005 -0.0095 352.462407769
0.0005 -0.0085 353.4748486
0.0005 -0.0075 353.684829685
0.0005 -0.0065 354.006909698
0.0005 -0.0055 354.123283525
0.0005 -0.0045 354.10565837
0.0005 -0.0035 354.164382688
0.0005 -0.0025 354.067514625
0.0005 -0.0015 354.026397443
0.0005 -0.0005 354.021992871
0.0005 0.0005 353.892194722
0.0005 0.0015 353.882568912
0.0005 0.0025 353.878677445
0.0005 0.0035 353.800323924
0.0005 0.0045 353.862812991
0.0005 0.0055 353.925302058
0.0005 0.0065 353.978005993
0.0005 0.0075 354.163036313
0.0005 0.0085 354.348066632
0.0005 0.0095 354.624286217
0.0005 0.0105 355.006285695
0.0005 0.0115 355.394735955
0.0005 0.0125 356.113632368
0.0005 0.0135 356.944818954
0.0005 0.0145 357.829444452
0.0005 0.0155 358.666195904
0.0005 0.0165 359.143867656
0.0005 0.0175 359.826199236
0.0005 0.0185 360.759416889
0.0005 0.0195 361.470519858
0.0005 0.0205 362.253356811
0.0005 0.0215 363.175407488
0.0005 0.0225 364.100514642
0.0005 0.0235 365.007677209
0.0005 0.0245 366.3272423
0.0005 0.0255 367.725172993
0.0005 0.0265 369.262344081
0.0005 0.0275 371.817117524
0.0005 0.0285 374.418545886
0.0005 0.0295 377.133905212
0.0005 0.0305 378.870546528
0.0005 0.0315 380.603674957
0.0015 -0.0315 294.282721323
0.0015 -0.0305 294.069410341
0.0015 -0.0295 293.78537032
0.0015 -0.0285 293.533607334
0.0015 -0.0275 293.281844349
0.0015 -0.0265 293.210614008
0.0015 -0.0255 293.134697635
0.0015 -0.0245 293.055328993
0.0015 -0.0235 293.093549258
0.0015 -0.0225 294.790117219
0.0015 -0.0215 296.838202357
0.0015 -0.0205 301.518479267
0.0015 -0.0195 310.476799131
0.0015 -0.0185 315.780276957
0.0015 -0.0175 320.025948328
0.0015 -0.0165 326.877492502
0.0015 -0.0155 335.814245586
0.0015 -0.0145 341.393769335
0.0015 -0.0135 344.319103498
0.0015 -0.0125 348.977729931
0.0015 -0.0115 350.86947357
0.0015 -0.0105 351.651669807
0.0015 -0.0095 352.948138362
0.0015 -0.0085 353.14709641
0.0015 -0.0075 353.167380399
0.0015 -0.0065 353.489460411
0.0015 -0.0055 353.257727918
0.0015 -0.0045 353.053359513
0.0015 -0.0035 353.084934517
0.0015 -0.0025 352.813937965
0.0015 -0.0015 352.61053157
0.0015 -0.0005 352.564789513
0.0015 0.0005 352.345128569
0.0015 0.0015 352.204162141
0.0015 0.0025 352.160573048
0.0015 0.0035 352.025210815
0.0015 0.0045 351.983852809
0.0015 0.0055 352.023566675
0.0015 0.0065 352.030794584
0.0015 0.0075 352.141964616
0.0015 0.0085 352.353676716
0.0015 0.0095 352.589823312
0.0015 0.0105 352.926852446
0.0015 0.0115 353.471586106
0.0015 0.0125 354.111672888
0.0015 0.0135 354.903255315
0.0015 0.0145 356.027140549
0.0015 0.0155 357.255472879
0.0015 0.0165 357.80950296
0.0015 0.0175 358.993855129
0.0015 0.0185 360.30453802
0.0015 0.0195 361.015640989
0.0015 0.0205 361.919468281
0.0015 0.0215 362.834105391
0.0015 0.0225 363.75682659
0.0015 0.0235 364.64334789
0.0015 0.0245 365.635711978
0.0015 0.0255 367.087458926
0.0015 0.0265 368.719328502
0.0015 0.0275 370.642148339
0.0015 0.0285 373.429350235
0.0015 0.0295 376.426138342
0.0015 0.0305 378.585512754
0.0015 0.0315 380.182986558
0.0025 -0.0315 294.197534297
0.0025 -0.0305 294.021905433
0.0025 -0.0295 293.83045812
0.0025 -0.0285 293.597640784
0.0025 -0.0275 293.358162789
0.0025 -0.0265 293.216047409
0.0025 -0.0255 293.136678766
0.0025 -0.0245 293.057069261
0.0025 -0.0235 293.732921453
0.0025 -0.0225 295.46922704
0.0025 -0.0215 297.205532626
0.0025 -0.0205 304.348798781
0.0025 -0.0195 313.318708723
0.0025 -0.0185 322.468269558
0.0025 -0.0175 330.034918391
0.0025 -0.0165 336.947644238
0.0025 -0.0155 342.777270546
0.0025 -0.0145 345.711899693
0.0025 -0.0135 348.64652884
0.0025 -0.0125 350.721202421
0.0025 -0.0115 351.503518162
0.0025 -0.0105 352.285833902
0.0025 -0.0095 352.65049684
0.0025 -0.0085 352.663040702
0.0025 -0.0075 352.675584565
0.0025 -0.0065 352.521181998
0.0025 -0.0055 352.274672738
0.0025 -0.0045 352.028163477
0.0025 -0.0035 351.768036996
0.0025 -0.0025 351.497580902
0.0025 -0.0015 351.227124808
0.0025 -0.0005 351.002555757
0.0025 0.0005 350.782962284
0.0025 0.0015 350.563368811
0.0025 0.0025 350.418752865
0.0025 0.0035 350.283377534
0.0025 0.0045 350.148523866
0.0025 0.0055 350.14010653
0.0025 0.0065 350.147373272
0.0025 0.0075 350.149932187
0.0025 0.0085 350.379331452
0.0025 0.0095 350.615559304
0.0025 0.0105 350.870982441
0.0025 0.0115 351.510376771
0.0025 0.0125 352.149771102
0.0025 0.0135 352.890412825
0.0025 0.0145 354.117192697
0.0025 0.0155 355.343972569
0.0025 0.0165 356.685538517
0.0025 0.0175 357.996617665
0.0025 0.0185 359.307696813
0.0025 0.0195 360.74443357
0.0025 0.0205 361.659100966
0.0025 0.0215 362.573768361
0.0025 0.0225 363.587545158
0.0025 0.0235 364.507491799
0.0025 0.0245 365.42743844
0.0025 0.0255 366.682473839
0.0025 0.0265 368.343212538
0.0025 0.0275 370.066282228
0.0025 0.0285 372.721551861
0.0025 0.0295 375.75387698
0.0025 0.0305 378.020865135
0.0025 0.0315 379.762298159
0.0035 -0.0315 294.192929649
0.0035 -0.0305 294.029295679
0.0035 -0.0295 293.847033767
0.0035 -0.0285 293.614216432
0.0035 -0.0275 293.362184959
0.0035 -0.0265 293.19910724
0.0035 -0.0255 293.114245119
0.0035 -0.0245 293.031958061
0.0035 -0.0235 293.683943837
0.0035 -0.0225 295.099120963
0.0035 -0.0215 298.609333383
0.0035 -0.0205 305.308058248
0.0035 -0.0195 314.210343982
0.0035 -0.0185 324.867176763
0.0035 -0.0175 335.24736048
0.0035 -0.0165 342.160086327
0.0035 -0.0155 344.867021727
0.0035 -0.0145 347.203215535
0.0035 -0.0135 350.137844681
0.0035 -0.0125 350.40034654
0.0035 -0.0115 350.911579062
0.0035 -0.0105 351.604069955
0.0035 -0.0095 351.284897732
0.0035 -0.0085 351.194579745
0.0035 -0.0075 351.13777781
0.0035 -0.0065 350.795500207
0.0035 -0.0055 350.530662446
0.0035 -0.0045 350.282492191
0.0035 -0.0035 350.030534166
0.0035 -0.0025 349.76148846
0.0035 -0.0015 349.525435758
0.0035 -0.0005 349.33724006
0.0035 0.0005 349.117646587
0.0035 0.0015 348.936056883
0.0035 0.0025 348.791189952
0.0035 0.0035 348.655814621
0.0035 0.0045 348.536602904
0.0035 0.0055 348.456884088
0.0035 0.0065 348.46415083
0.0035 0.0075 348.444568773
0.0035 0.0085 348.511916597
0.0035 0.0095 348.74814445
0.0035 0.0105 348.917301499
0.0035 0.0115 349.298742158
0.0035 0.0125 349.938136489
0.0035 0.0135 350.574818465
0.0035 0.0145 351.538380205
0.0035 0.0155 352.794504276
0.0035 0.0165 354.544565235
0.0035 0.0175 356.010872067
0.0035 0.0185 357.567690694
0.0035 0.0195 360.417306597
0.0035 0.0205 361.822343636
0.0035 0.0215 362.878156515
0.0035 0.0225 364.310610129
0.0035 0.0235 365.304969852
0.0035 0.0245 366.103469496
0.0035 0.0255 366.745225917
0.0035 0.0265 368.302570499
0.0035 0.0275 370.293787099
0.0035 0.0285 372.417588726
0.0035 0.0295 375.243630263
0.0035 0.0305 377.217169786
0.0035 0.0315 379.220907618
0.0045 -0.0315 294.202833348
0.0045 -0.0305 294.038307174
0.0045 -0.0295 293.853865516
0.0045 -0.0285 293.594897739
0.0045 -0.0275 293.335453412
0.0045 -0.0265 293.187841984
0.0045 -0.0255 293.090954502
0.0045 -0.0245 293.219774702
0.0045 -0.0235 293.998712695
0.0045 -0.0225 294.777650687
0.0045 -0.0215 300.921160293
0.0045 -0.0205 307.619885157
0.0045 -0.0195 315.766659887
0.0045 -0.0185 327.266083968
0.0045 -0.0175 338.765508049
0.0045 -0.0165 345.134223571
0.0045 -0.0155 347.005667878
0.0045 -0.0145 348.877112184
0.0045 -0.0135 350.041809497
0.0045 -0.0125 350.193598322
0.0045 -0.0115 350.345387148
0.0045 -0.0105 350.338243311
0.0045 -0.0095 350.019071089
0.0045 -0.0085 349.726118788
0.0045 -0.0075 349.452071175
0.0045 -0.0065 349.109793571
0.0045 -0.0055 348.786652154
0.0045 -0.0045 348.535148004
0.0045 -0.0035 348.283189978
0.0045 -0.0025 348.027301925
0.0045 -0.0015 347.840296346
0.0045 -0.0005 347.653290766
0.0045 0.0005 347.461771436
0.0045 0.0015 347.315270461
0.0045 0.0025 347.168769486
0.0045 0.0035 347.034357207
0.0045 0.0045 346.924681942
0.0045 0.0055 346.815006677
0.0045 0.0065 346.768322207
0.0045 0.0075 346.739205359
0.0045 0.0085 346.710088511
0.0045 0.0095 346.844739545
0.0045 0.0105 347.001586339
0.0045 0.0115 347.158433133
0.0045 0.0125 347.724908777
0.0045 0.0135 348.361444287
0.0045 0.0145 348.997979797
0.0045 0.0155 350.533131899
0.0045 0.0165 352.283192858
0.0045 0.0175 354.025126468
0.0045 0.0185 356.516760222
0.0045 0.0195 359.366376125
0.0045 0.0205 361.985586306
0.0045 0.0215 363.358137632
0.0045 0.0225 364.790591246
0.0045 0.0235 366.096829808
0.0045 0.0245 366.738586229
0.0045 0.0255 367.380342649
0.0045 0.0265 368.401252573
0.0045 0.0275 370.526871303
0.0045 0.0285 372.652490033
0.0045 0.0295 374.786391282
0.0045 0.0305 376.908583717
0.0045 0.0315 379.090384991
0.0055 -0.0315 294.212737047
0.0055 -0.0305 294.013719635
0.0055 -0.0295 293.806708364
0.0055 -0.0285 293.559010829
0.0055 -0.0275 293.308721865
0.0055 -0.0265 293.177262433
0.0055 -0.0255 293.090011761
0.0055 -0.0245 293.285957101
0.0055 -0.0235 293.962772497
0.0055 -0.0225 295.800752118
0.0055 -0.0215 300.787516766
0.0055 -0.0205 307.512244122
0.0055 -0.0195 318.3393755
0.0055 -0.0185 329.76135879
0.0055 -0.0175 340.796726413
0.0055 -0.0165 345.963640741
0.0055 -0.0155 347.867614777
0.0055 -0.0145 349.456121429
0.0055 -0.0135 349.678292865
0.0055 -0.0125 349.830489042
0.0055 -0.0115 349.874768482
0.0055 -0.0105 349.63373565
0.0055 -0.0095 349.313458451
0.0055 -0.0085 349.059295583
0.0055 -0.0075 348.809908638
0.0055 -0.0065 348.462916494
0.0055 -0.0055 348.234190375
0.0055 -0.0045 348.032146537
0.0055 -0.0035 347.775590408
0.0055 -0.0025 347.615733869
0.0055 -0.0015 347.450778294
0.0055 -0.0005 347.26051223
0.0055 0.0005 347.130303278
0.0055 0.0015 346.990164571
0.0055 0.0025 346.843114742
0.0055 0.0035 346.71225104
0.0055 0.0045 346.601435515
0.0055 0.0055 346.491945065
0.0055 0.0065 346.316586434
0.0055 0.0075 346.287825372
0.0055 0.0085 346.247633376
0.0055 0.0095 346.086953529
0.0055 0.0105 346.246023713
0.0055 0.0115 346.356999771
0.0055 0.0125 346.412622265
0.0055 0.0135 347.057008725
0.0055 0.0145 347.57957407
0.0055 0.0155 348.248218452
0.0055 0.0165 349.998085388
0.0055 0.0175 351.598242574
0.0055 0.0185 353.514000241
0.0055 0.0195 356.351925189
0.0055 0.0205 359.715106395
0.0055 0.0215 362.397430424
0.0055 0.0225 363.82332951
0.0055 0.0235 366.085128268
0.0055 0.0245 367.460488999
0.0055 0.0255 368.109754118
0.0055 0.0265 369.104514324
0.0055 0.0275 370.825351225
0.0055 0.0285 372.964910051
0.0055 0.0295 375.295535213
0.0055 0.0305 377.121749316
0.0055 0.0315 378.959862364
0.0065 -0.0315 294.17461161
0.0065 -0.0305 293.966225892
0.0065 -0.0295 293.759551212
0.0065 -0.0285 293.511853677
0.0065 -0.0275 293.283784976
0.0065 -0.0265 293.190212911
0.0065 -0.0255 293.108423815
0.0065 -0.0245 293.336949487
0.0065 -0.0235 293.865378944
0.0065 -0.0225 297.109030103
0.0065 -0.0215 300.945018546
0.0065 -0.0205 309.856414643
0.0065 -0.0195 321.030320221
0.0065 -0.0185 332.268234725
0.0065 -0.0175 339.384763136
0.0065 -0.0165 344.703006196
0.0065 -0.0155 348.440709576
0.0065 -0.0145 348.995792001
0.0065 -0.0135 349.2381213
0.0065 -0.0125 349.424553897
0.0065 -0.0115 349.25307152
0.0065 -0.0105 349.054339024
0.0065 -0.0095 348.771659016
0.0065 -0.0085 348.608232373
0.0065 -0.0075 348.44480573
0.0065 -0.0065 348.155914871
0.0065 -0.0055 348.032178304
0.0065 -0.0045 347.908441738
0.0065 -0.0035 347.692218497
0.0065 -0.0025 347.588095836
0.0065 -0.0015 347.475656368
0.0065 -0.0005 347.313720808
0.0065 0.0005 347.204748842
0.0065 0.0015 347.087843609
0.0065 0.0025 346.949497415
0.0065 0.0035 346.821573223
0.0065 0.0045 346.699515748
0.0065 0.0055 346.547780301
0.0065 0.0065 346.363334071
0.0065 0.0075 346.245364903
0.0065 0.0085 346.092550849
0.0065 0.0095 345.878656051
0.0065 0.0105 345.863449107
0.0065 0.0115 345.797758132
0.0065 0.0125 345.666395253
0.0065 0.0135 346.024183701
0.0065 0.0145 346.272526486
0.0065 0.0155 346.465200998
0.0065 0.0165 347.706650576
0.0065 0.0175 349.063736678
0.0065 0.0185 350.410999543
0.0065 0.0195 352.956562396
0.0065 0.0205 356.875067284
0.0065 0.0215 360.793572172
0.0065 0.0225 362.846072792
0.0065 0.0235 365.61065015
0.0065 0.0245 368.191004651
0.0065 0.0255 368.95476463
0.0065 0.0265 370.051498602
0.0065 0.0275 371.148232573
0.0065 0.0285 373.445658446
0.0065 0.0295 375.776283607
0.0065 0.0305 377.642602101
0.0065 0.0315 379.39466432
0.0075 -0.0315 294.150225356
0.0075 -0.0305 293.936399935
0.0075 -0.0295 293.716639243
0.0075 -0.0285 293.495076427
0.0075 -0.0275 293.267550818
0.0075 -0.0265 293.171784153
0.0075 -0.0255 293.112568492
0.0075 -0.0245 293.624356457
0.0075 -0.0235 294.510562709
0.0075 -0.0225 297.286620198
0.0075 -0.0215 302.300342675
0.0075 -0.0205 310.665104946
0.0075 -0.0195 322.010551379
0.0075 -0.0185 333.074273639
0.0075 -0.0175 340.115426942
0.0075 -0.0165 345.246355515
0.0075 -0.0155 348.4761418
0.0075 -0.0145 348.779629494
0.0075 -0.0135 349.015933251
0.0075 -0.0125 349.108236234
0.0075 -0.0115 348.909657645
0.0075 -0.0105 348.711079056
0.0075 -0.0095 348.641391057
0.0075 -0.0085 348.474953984
0.0075 -0.0075 348.30851691
0.0075 -0.0065 348.306837244
0.0075 -0.0055 348.178461301
0.0075 -0.0045 348.050085357
0.0075 -0.0035 348.075678741
0.0075 -0.0025 347.966497507
0.0075 -0.0015 347.857316272
0.0075 -0.0005 347.840719059
0.0075 0.0005 347.729920261
0.0075 0.0015 347.618305619
0.0075 0.0025 347.491780546
0.0075 0.0035 347.363305806
0.0075 0.0045 347.197020062
0.0075 0.0055 346.964296861
0.0075 0.0065 346.779173722
0.0075 0.0075 346.508560966
0.0075 0.0085 346.243590175
0.0075 0.0095 346.029281978
0.0075 0.0105 345.689749363
0.0075 0.0115 345.527987484
0.0075 0.0125 345.397625797
0.0075 0.0135 345.12790941
0.0075 0.0145 345.337650711
0.0075 0.0155 345.547392012
0.0075 0.0165 345.625894486
0.0075 0.0175 346.985287112
0.0075 0.0185 348.344679738
0.0075 0.0195 349.590958456
0.0075 0.0205 353.505869684
0.0075 0.0215 357.420780911
0.0075 0.0225 361.015543865
0.0075 0.0235 364.071741204
0.0075 0.0245 367.127938543
0.0075 0.0255 370.027974183
0.0075 0.0265 371.217333877
0.0075 0.0275 372.455427343
0.0075 0.0285 374.424507809
0.0075 0.0295 376.393588276
0.0075 0.0305 378.043037228
0.0075 0.0315 379.731510674
0.0085 -0.0315 294.123262109
0.0085 -0.0305 293.890226171
0.0085 -0.0295 293.66099164
0.0085 -0.0285 293.458078489
0.0085 -0.0275 293.25131666
0.0085 -0.0265 293.175213842
0.0085 -0.0255 293.177845871
0.0085 -0.0245 293.776735475
0.0085 -0.0235 295.065010232
0.0085 -0.0225 298.054321521
0.0085 -0.0215 304.596263196
0.0085 -0.0205 311.138204872
0.0085 -0.0195 321.994764559
0.0085 -0.0185 332.670585097
0.0085 -0.0175 342.616828756
0.0085 -0.0165 347.408506415
0.0085 -0.0155 348.228059342
0.0085 -0.0145 348.866467207
0.0085 -0.0135 349.062617083
0.0085 -0.0125 349.034577573
0.0085 -0.0115 348.938857402
0.0085 -0.0105 348.80299885
0.0085 -0.0095 348.840591466
0.0085 -0.0085 348.776277248
0.0085 -0.0075 348.722460719
0.0085 -0.0065 348.862155828
0.0085 -0.0055 348.8296753
0.0085 -0.0045 348.843430426
0.0085 -0.0035 349.013162979
0.0085 -0.0025 348.972631573
0.0085 -0.0015 348.975819217
0.0085 -0.0005 349.064635833
0.0085 0.0005 348.978608001
0.0085 0.0015 348.859195269
0.0085 0.0025 348.735574911
0.0085 0.0035 348.607155058
0.0085 0.0045 348.307161376
0.0085 0.0055 347.974896813
0.0085 0.0065 347.789773673
0.0085 0.0075 347.332379208
0.0085 0.0085 346.898258561
0.0085 0.0095 346.683950363
0.0085 0.0105 346.145025136
0.0085 0.0115 345.733306309
0.0085 0.0125 345.573449066
0.0085 0.0135 345.130082396
0.0085 0.0145 344.951565731
0.0085 0.0155 345.086316506
0.0085 0.0165 344.926239
0.0085 0.0175 345.461757853
0.0085 0.0185 346.539448569
0.0085 0.0195 347.079416424
0.0085 0.0205 349.551316854
0.0085 0.0215 353.44571155
0.0085 0.0225 357.326624613
0.0085 0.0235 360.434486413
0.0085 0.0245 363.781153674
0.0085 0.0255 367.708072459
0.0085 0.0265 371.945338465
0.0085 0.0275 373.79522216
0.0085 0.0285 375.591533794
0.0085 0.0295 377.240583339
0.0085 0.0305 378.687371614
0.0085 0.0315 380.095614327
0.0095 -0.0315 294.082953212
0.0095 -0.0305 293.834915544
0.0095 -0.0295 293.605344037
0.0095 -0.0285 293.40315351
0.0095 -0.0275 293.234847103
0.0095 -0.0265 293.236996377
0.0095 -0.0255 293.264416677
0.0095 -0.0245 293.74246109
0.0095 -0.0235 295.410152046
0.0095 -0.0225 298.184707643
0.0095 -0.0215 305.18516061
0.0095 -0.0205 312.185613578
0.0095 -0.0195 322.493707939
0.0095 -0.0185 332.893797509
0.0095 -0.0175 343.293887079
0.0095 -0.0165 347.252478993
0.0095 -0.0155 348.044437852
0.0095 -0.0145 348.836396711
0.0095 -0.0135 349.013856798
0.0095 -0.0125 348.998580328
0.0095 -0.0115 348.983303859
0.0095 -0.0105 349.048762483
0.0095 -0.0095 349.087081227
0.0095 -0.0085 349.12539997
0.0095 -0.0075 349.297426021
0.0095 -0.0065 349.422049377
0.0095 -0.0055 349.5809363
0.0095 -0.0045 349.741444675
0.0095 -0.0035 349.90195305
0.0095 -0.0025 350.064357237
0.0095 -0.0015 350.142429938
0.0095 -0.0005 350.220502639
0.0095 0.0005 350.24473957
0.0095 0.0015 350.11798738
0.0095 0.0025 349.991235189
0.0095 0.0035 349.77732973
0.0095 0.0045 349.42693588
0.0095 0.0055 349.076542029
0.0095 0.0065 348.653187775
0.0095 0.0075 348.15840808
0.0095 0.0085 347.66384092
0.0095 0.0095 347.142084087
0.0095 0.0105 346.600300909
0.0095 0.0115 346.058517731
0.0095 0.0125 345.590276709
0.0095 0.0135 345.155235532
0.0095 0.0145 344.720194354
0.0095 0.0155 344.507227968
0.0095 0.0165 344.368454736
0.0095 0.0175 344.229681504
0.0095 0.0185 344.688764894
0.0095 0.0195 345.29687889
0.0095 0.0205 345.757984279
0.0095 0.0215 349.530113542
0.0095 0.0225 353.423291591
0.0095 0.0235 357.123684573
0.0095 0.0245 360.470853878
0.0095 0.0255 364.407871331
0.0095 0.0265 368.762100479
0.0095 0.0275 373.264754317
0.0095 0.0285 376.427454154
0.0095 0.0295 378.076503699
0.0095 0.0305 379.520793463
0.0095 0.0315 380.661667583
0.0105 -0.0315 294.059278093
0.0105 -0.0305 293.807354375
0.0105 -0.0295 293.561697848
0.0105 -0.0285 293.40487437
0.0105 -0.0275 293.236567964
0.0105 -0.0265 293.233374669
0.0105 -0.0255 293.29268736
0.0105 -0.0245 294.172311472
0.0105 -0.0235 296.549504628
0.0105 -0.0225 298.852892097
0.0105 -0.0215 304.726390574
0.0105 -0.0205 314.203081954
0.0105 -0.0195 324.807760226
0.0105 -0.0185 335.229874087
0.0105 -0.0175 343.318260472
0.0105 -0.0165 348.181165107
0.0105 -0.0155 348.973123966
0.0105 -0.0145 349.532755408
0.0105 -0.0135 349.617803116
0.0105 -0.0125 349.602526647
0.0105 -0.0115 349.779729591
0.0105 -0.0105 350.103151012
0.0105 -0.0095 350.141469755
0.0105 -0.0085 350.515629782
0.0105 -0.0075 350.998738351
0.0105 -0.0065 351.123361706
0.0105 -0.0055 351.641426105
0.0105 -0.0045 352.120953404
0.0105 -0.0035 352.281461779
0.0105 -0.0025 352.731936226
0.0105 -0.0015 353.025631272
0.0105 -0.0005 353.103703973
0.0105 0.0005 353.212232152
0.0105 0.0015 353.167663523
0.0105 0.0025 353.040911332
0.0105 0.0035 352.638919304
0.0105 0.0045 352.27636326
0.0105 0.0055 351.876072714
0.0105 0.0065 351.036432236
0.0105 0.0075 350.500052452
0.0105 0.0085 349.884444214
0.0105 0.0095 348.809355207
0.0105 0.0105 348.264154887
0.0105 0.0115 347.543648678
0.0105 0.0125 346.50350928
0.0105 0.0135 346.068468102
0.0105 0.0145 345.439048821
0.0105 0.0155 344.687640316
0.0105 0.0165 344.548867084
0.0105 0.0175 344.215067811
0.0105 0.0185 343.982477083
0.0105 0.0195 344.590591078
0.0105 0.0205 344.760798092
0.0105 0.0215 345.755037914
0.0105 0.0225 349.632690198
0.0105 0.0235 353.299214087
0.0105 0.0245 356.957832894
0.0105 0.0255 361.628075245
0.0105 0.0265 366.400973992
0.0105 0.0275 370.875333582
0.0105 0.0285 374.36491101
0.0105 0.0295 378.086091625
0.0105 0.0305 379.876747085
0.0105 0.0315 380.899920586
0.0115 -0.0315 294.032950618
0.0115 -0.0305 293.771543754
0.0115 -0.0295 293.522162153
0.0115 -0.0285 293.379172886
0.0115 -0.0275 293.236183618
0.0115 -0.0265 293.303106236
0.0115 -0.0255 293.522509428
0.0115 -0.0245 294.398489536
0.0115 -0.0235 297.081078451
0.0115 -0.0225 299.763667366
0.0115 -0.0215 305.823569837
0.0115 -0.0205 316.428248109
0.0115 -0.0195 327.032926382
0.0115 -0.0185 336.558762154
0.0115 -0.0175 341.976593617
0.0115 -0.0165 347.394425079
0.0115 -0.0155 349.90181008
0.0115 -0.0145 350.06600077
0.0115 -0.0135 350.162448564
0.0115 -0.0125 350.254726393
0.0115 -0.0115 350.621491954
0.0115 -0.0105 350.988257515
0.0115 -0.0095 351.319238362
0.0115 -0.0085 351.916753455
0.0115 -0.0075 352.514268549
0.0115 -0.0065 352.985060079
0.0115 -0.0055 353.683163786
0.0115 -0.0045 354.381267494
0.0115 -0.0035 354.803765361
0.0115 -0.0025 355.335742794
0.0115 -0.0015 355.867720228
0.0115 -0.0005 356.003797974
0.0115 0.0005 356.116259913
0.0115 0.0015 356.217339666
0.0115 0.0025 355.92389882
0.0115 0.0035 355.520571786
0.0115 0.0045 355.12579064
0.0115 0.0055 354.428118209
0.0115 0.0065 353.588477731
0.0115 0.0075 352.841696824
0.0115 0.0085 351.873224714
0.0115 0.0095 350.798135707
0.0115 0.0105 349.931113927
0.0115 0.0115 348.863604127
0.0115 0.0125 347.747914827
0.0115 0.0135 346.972107126
0.0115 0.0145 346.07458612
0.0115 0.0155 345.177065114
0.0115 0.0165 344.67510168
0.0115 0.0175 344.193095296
0.0115 0.0185 343.711088913
0.0115 0.0195 343.68999455
0.0115 0.0205 343.763611904
0.0115 0.0215 343.837229258
0.0115 0.0225 345.774237277
0.0115 0.0235 349.024484051
0.0115 0.0245 352.274730825
0.0115 0.0255 357.468561836
0.0115 0.0265 363.553632265
0.0115 0.0275 368.485912847
0.0115 0.0285 372.77206742
0.0115 0.0295 377.136757635
0.0115 0.0305 379.219240237
0.0115 0.0315 380.949095188
0.0125 -0.0315 293.993955697
0.0125 -0.0305 293.732547709
0.0125 -0.0295 293.482626459
0.0125 -0.0285 293.347735889
0.0125 -0.0275 293.262140959
0.0125 -0.0265 293.479925077
0.0125 -0.0255 293.806704063
0.0125 -0.0245 294.6246676
0.0125 -0.0235 297.293187796
0.0125 -0.0225 299.922395169
0.0125 -0.0215 307.115050838
0.0125 -0.0205 317.587088632
0.0125 -0.0195 328.236914792
0.0125 -0.0185 338.13603336
0.0125 -0.0175 343.143845443
0.0125 -0.0165 347.814418063
0.0125 -0.0155 350.559277427
0.0125 -0.0145 350.700909735
0.0125 -0.0135 350.825808259
0.0125 -0.0125 351.379283135
0.0125 -0.0115 351.897062702
0.0125 -0.0105 352.276479352
0.0125 -0.0095 353.343401809
0.0125 -0.0085 354.054225861
0.0125 -0.0075 354.632457721
0.0125 -0.0065 356.020017513
0.0125 -0.0055 356.710266693
0.0125 -0.0045 357.382489104
0.0125 -0.0035 358.596584863
0.0125 -0.0025 359.114630101
0.0125 -0.0015 359.655191861
0.0125 -0.0005 360.216728632
0.0125 0.0005 360.312923242
0.0125 0.0015 360.367573296
0.0125 0.0025 360.130502067
0.0125 0.0035 359.723218928
0.0125 0.0045 359.129295563
0.0125 0.0055 358.220425581
0.0125 0.0065 357.380339853
0.0125 0.0075 356.188643268
0.0125 0.0085 354.902008411
0.0125 0.0095 353.814972443
0.0125 0.0105 352.276579892
0.0125 0.0115 350.986352557
0.0125 0.0125 349.861943486
0.0125 0.0135 348.221854245
0.0125 0.0145 347.261804429
0.0125 0.0155 346.378580069
0.0125 0.0165 345.039133672
0.0125 0.0175 344.584105356
0.0125 0.0185 344.134715079
0.0125 0.0195 343.367765085
0.0125 0.0205 343.41915414
0.0125 0.0215 343.478940238
0.0125 0.0225 343.652283001
0.0125 0.0235 344.687164661
0.0125 0.0245 347.591628756
0.0125 0.0255 352.818204522
0.0125 0.0265 358.373851055
0.0125 0.0275 364.187284632
0.0125 0.0285 371.594844344
0.0125 0.0295 376.187423645
0.0125 0.0305 378.25290287
0.0125 0.0315 379.315321312
0.0135 -0.0315 293.954961642
0.0135 -0.0305 293.69355359
0.0135 -0.0295 293.469913157
0.0135 -0.0285 293.4037705
0.0135 -0.0275 293.31817557
0.0135 -0.0265 293.535933871
0.0135 -0.0255 293.885381955
0.0135 -0.0245 294.823162611
0.0135 -0.0235 297.422206905
0.0135 -0.0225 300.051414278
0.0135 -0.0215 308.597416134
0.0135 -0.0205 318.770606851
0.0135 -0.0195 328.864035556
0.0135 -0.0185 338.668730001
0.0135 -0.0175 345.727189988
0.0135 -0.0165 349.363267297
0.0135 -0.0155 350.982191481
0.0135 -0.0145 351.39016977
0.0135 -0.0135 351.565614496
0.0135 -0.0125 352.404886595
0.0135 -0.0115 353.27502052
0.0135 -0.0105 353.939247709
0.0135 -0.0095 355.226667195
0.0135 -0.0085 356.418267859
0.0135 -0.0075 357.403394413
0.0135 -0.0065 358.924549484
0.0135 -0.0055 360.146261151
0.0135 -0.0045 361.211034864
0.0135 -0.0035 362.567378406
0.0135 -0.0025 363.477975714
0.0135 -0.0015 364.163273075
0.0135 -0.0005 364.922382956
0.0135 0.0005 365.224871003
0.0135 0.0015 365.158867518
0.0135 0.0025 365.055304376
0.0135 0.0035 364.699026512
0.0135 0.0045 363.748014139
0.0135 0.0055 362.753612258
0.0135 0.0065 361.879993834
0.0135 0.0075 360.210047469
0.0135 0.0085 358.566310015
0.0135 0.0095 357.366944625
0.0135 0.0105 355.416418366
0.0135 0.0115 353.644250244
0.0135 0.0125 352.342704597
0.0135 0.0135 350.383435474
0.0135 0.0145 348.803625914
0.0135 0.0155 347.716556778
0.0135 0.0165 346.221783744
0.0135 0.0175 345.142514135
0.0135 0.0185 344.579288756
0.0135 0.0195 343.752296516
0.0135 0.0205 343.224035046
0.0135 0.0215 343.082434521
0.0135 0.0225 343.090758616
0.0135 0.0235 344.125640277
0.0135 0.0245 345.025664517
0.0135 0.0255 347.016426067
0.0135 0.0265 352.267488918
0.0135 0.0275 358.084822373
0.0135 0.0285 365.492382085
0.0135 0.0295 372.700322985
0.0135 0.0305 376.164115268
0.0135 0.0315 377.139177418
0.0145 -0.0315 293.926867602
0.0145 -0.0305 293.691060581
0.0145 -0.0295 293.473535425
0.0145 -0.0285 293.419245808
0.0145 -0.0275 293.36495619
0.0145 -0.0265 293.628248643
0.0145 -0.0255 294.029244754
0.0145 -0.0245 295.04518997
0.0145 -0.0235 297.616114567
0.0145 -0.0225 300.191974285
0.0145 -0.0215 309.971168646
0.0145 -0.0205 320.044087106
0.0145 -0.0195 329.802051028
0.0145 -0.0185 339.403426372
0.0145 -0.0175 347.800063186
0.0145 -0.0165 349.706876999
0.0145 -0.0155 351.494796113
0.0145 -0.0145 351.937134027
0.0145 -0.0135 352.78111495
0.0145 -0.0125 353.699539728
0.0145 -0.0115 354.586757897
0.0145 -0.0105 356.265307117
0.0145 -0.0095 357.531339636
0.0145 -0.0085 358.797372156
0.0145 -0.0075 360.825850284
0.0145 -0.0065 362.313030677
0.0145 -0.0055 363.963279304
0.0145 -0.0045 365.612854675
0.0145 -0.0035 366.94283433
0.0145 -0.0025 368.429428716
0.0145 -0.0015 369.262167971
0.0145 -0.0005 369.995488191
0.0145 0.0005 370.667572701
0.0145 0.0015 370.546538611
0.0145 0.0025 370.425504521
0.0145 0.0035 369.949386493
0.0145 0.0045 368.94628608
0.0145 0.0055 367.943185668
0.0145 0.0065 366.431587226
0.0145 0.0075 364.766215243
0.0145 0.0085 363.10084326
0.0145 0.0095 360.911272804
0.0145 0.0105 358.897804916
0.0145 0.0115 356.884337028
0.0145 0.0125 354.696183802
0.0145 0.0135 352.725556774
0.0145 0.0145 350.754929746
0.0145 0.0155 348.977407904
0.0145 0.0165 347.431369608
0.0145 0.0175 345.909660782
0.0145 0.0185 344.957824785
0.0145 0.0195 344.121698878
0.0145 0.0205 343.36399217
0.0145 0.0215 342.903819955
0.0145 0.0225 342.530720926
0.0145 0.0235 343.191242356
0.0145 0.0245 343.76083734
0.0145 0.0255 345.547300391
0.0145 0.0265 347.952674063
0.0145 0.0275 351.919160367
0.0145 0.0285 358.93262564
0.0145 0.0295 365.946090912
0.0145 0.0305 370.073330482
0.0145 0.0315 373.796933211
0.0155 -0.0315 293.920843229
0.0155 -0.0305 293.693124629
0.0155 -0.0295 293.477157693
0.0155 -0.0285 293.43199609
0.0155 -0.0275 293.405773559
0.0155 -0.0265 293.719769085
0.0155 -0.0255 294.173107552
0.0155 -0.0245 295.267217329
0.0155 -0.0235 297.959655478
0.0155 -0.0225 300.71140648
0.0155 -0.0215 310.919233009
0.0155 -0.0205 321.232407403
0.0155 -0.0195 331.00503491
0.0155 -0.0185 340.602815596
0.0155 -0.0175 348.654943951
0.0155 -0.0165 350.362738231
0.0155 -0.0155 352.245602973
0.0155 -0.0145 352.93757268
0.0155 -0.0135 354.172112946
0.0155 -0.0125 355.309592238
0.0155 -0.0115 356.608933026
0.0155 -0.0105 358.748879286
0.0155 -0.0095 360.316614571
0.0155 -0.0085 362.295336344
0.0155 -0.0075 364.838244719
0.0155 -0.0065 366.45953208
0.0155 -0.0055 368.694580044
0.0155 -0.0045 371.075729646
0.0155 -0.0035 372.405709301
0.0155 -0.0025 374.209828343
0.0155 -0.0015 375.738156076
0.0155 -0.0005 376.471726167
0.0155 0.0005 377.225316726
0.0155 0.0015 377.567383718
0.0155 0.0025 377.38012163
0.0155 0.0035 376.749073554
0.0155 0.0045 375.886746736
0.0155 0.0055 374.653523944
0.0155 0.0065 372.690628591
0.0155 0.0075 370.951686054
0.0155 0.0085 368.842858914
0.0155 0.0095 365.93474566
0.0155 0.0105 363.802318077
0.0155 0.0115 361.250412556
0.0155 0.0125 358.21091368
0.0155 0.0135 356.240286652
0.0155 0.0145 353.820552005
0.0155 0.0155 351.143246497
0.0155 0.0165 349.597208202
0.0155 0.0175 347.600897918
0.0155 0.0185 345.831541067
0.0155 0.0195 344.475459325
0.0155 0.0205 343.740989929
0.0155 0.0215 343.221443626
0.0155 0.0225 342.563151611
0.0155 0.0235 342.346450744
0.0155 0.0245 342.496010163
0.0155 0.0255 344.227727409
0.0155 0.0265 346.092382809
0.0155 0.0275 348.525687949
0.0155 0.0285 352.925489005
0.0155 0.0295 359.19185884
0.0155 0.0305 363.360838892
0.0155 0.0315 367.874761327
0.0165 -0.0315 293.910161048
0.0165 -0.0305 293.682442448
0.0165 -0.0295 293.494551284
0.0165 -0.0285 293.481430958
0.0165 -0.0275 293.455208427
0.0165 -0.0265 293.773886497
0.0165 -0.0255 294.245066956
0.0165 -0.0245 295.590079227
0.0165 -0.0235 298.479087672
0.0165 -0.0225 301.230838674
0.0165 -0.0215 311.480765377
0.0165 -0.0205 322.10151108
0.0165 -0.0195 332.198725966
0.0165 -0.0185 341.798463934
0.0165 -0.0175 349.52952358
0.0165 -0.0165 351.23731786
0.0165 -0.0155 352.954842741
0.0165 -0.0145 354.327621139
0.0165 -0.0135 355.562179705