% Model:              SIMBench260525.mph
% Version:            COMSOL 6.2.0.339
% Date:               May 27 2026, 18:05
% Dimension:          2
% Nodes:              4096
% Expressions:        1
% Description:        温度
% Length unit:        m
% x                       y                        T (K)
5.0E-4                    -0.0315                  372.7701658488925
5.0E-4                    -0.0305                  371.09034711078334
5.0E-4                    -0.0295                  369.39992443526046
5.0E-4                    -0.0285                  365.8647210738844
5.0E-4                    -0.0275                  361.89339803073364
5.0E-4                    -0.0265                  357.81075805836764
5.0E-4                    -0.0255                  353.1715715070568
5.0E-4                    -0.0245                  348.8797033483704
5.0E-4                    -0.0235                  344.74144085937974
5.0E-4                    -0.0225                  341.4905014967991
5.0E-4                    -0.0215                  338.489328487867
5.0E-4                    -0.0205                  335.9405200688048
5.0E-4                    -0.0195                  334.23480478127516
5.0E-4                    -0.0185                  332.56438238137366
5.0E-4                    -0.0175                  331.32729278235513
5.0E-4                    -0.0165                  330.3227042203302
5.0E-4                    -0.0155                  329.30358304782004
5.0E-4                    -0.0145                  328.6424945046004
5.0E-4                    -0.0135                  327.8850108778576
5.0E-4                    -0.0125                  327.1275272511149
5.0E-4                    -0.0115                  326.69721645358226
5.0E-4                    -0.0105                  326.13441381292995
5.0E-4                    -0.0095                  325.57161117227776
5.0E-4                    -0.0085                  325.22935815714357
5.0E-4                    -0.0075                  324.7276677503892
5.0E-4                    -0.0065                  324.2396133692532
5.0E-4                    -0.0055                  323.80820531271365
5.0E-4                    -0.0045                  323.294456492121
5.0E-4                    -0.0035                  322.7423851229518
5.0E-4                    -0.0025                  322.04312497086426
5.0E-4                    -0.0015                  321.33107515180103
5.0E-4                    -5.0E-4                  320.40630365580523
5.0E-4                    5.0E-4                   317.997269733739
5.0E-4                    0.0015                   315.2478135529008
5.0E-4                    0.0025                   312.87190514347185
5.0E-4                    0.0035                   307.8475200503811
5.0E-4                    0.0045                   302.5309933580056
5.0E-4                    0.0055                   298.2229460100323
5.0E-4                    0.0065                   297.57288316967504
5.0E-4                    0.0075                   296.9228203293178
5.0E-4                    0.0085                   295.00788190620455
5.0E-4                    0.0095                   294.1364814048618
5.0E-4                    0.0105                   293.32807531322663
5.0E-4                    0.0115                   293.14894066533014
5.0E-4                    0.0125                   293.14012356868864
5.0E-4                    0.0135                   293.1442795227291
5.0E-4                    0.0145                   293.1496912458044
5.0E-4                    0.0155                   293.15333316131114
5.0E-4                    0.0165                   293.15331817830815
5.0E-4                    0.0175                   293.14917204934136
5.0E-4                    0.0185                   293.1461984489115
5.0E-4                    0.0195                   293.1865201253564
5.0E-4                    0.0205                   293.25480191380547
5.0E-4                    0.0215                   293.72303515056603
5.0E-4                    0.0225                   295.4107437186444
5.0E-4                    0.0235                   297.183833036838
5.0E-4                    0.0245                   301.3285830937457
5.0E-4                    0.0255                   306.8905176420964
5.0E-4                    0.0265                   311.9525144296207
5.0E-4                    0.0275                   314.3159625582293
5.0E-4                    0.0285                   316.6537719649855
5.0E-4                    0.0295                   318.66741700914037
5.0E-4                    0.0305                   319.71163152199995
5.0E-4                    0.0315                   320.7318078578949
0.0015                    -0.0315                  371.87337624189826
0.0015                    -0.0305                  370.71434311794263
0.0015                    -0.0295                  368.3247744077531
0.0015                    -0.0285                  364.6407684475124
0.0015                    -0.0275                  360.7922306653779
0.0015                    -0.0265                  356.0629839289997
0.0015                    -0.0255                  351.1023907728244
0.0015                    -0.0245                  346.72388886124867
0.0015                    -0.0235                  342.9805295266983
0.0015                    -0.0225                  339.32675066316517
0.0015                    -0.0215                  336.33819585997776
0.0015                    -0.0205                  334.5134389694275
0.0015                    -0.0195                  332.7150901222632
0.0015                    -0.0185                  331.1717739164356
0.0015                    -0.0175                  330.3223760625365
0.0015                    -0.0165                  329.41959128660113
0.0015                    -0.0155                  328.5667700767158
0.0015                    -0.0145                  328.1068340118104
0.0015                    -0.0135                  327.51107924144713
0.0015                    -0.0125                  326.9581504117364
0.0015                    -0.0115                  326.67166194922055
0.0015                    -0.0105                  326.22014684884925
0.0015                    -0.0095                  325.8436350647048
0.0015                    -0.0085                  325.6082355657926
0.0015                    -0.0075                  325.1759271651903
0.0015                    -0.0065                  324.77837461290505
0.0015                    -0.0055                  324.4242203539162
0.0015                    -0.0045                  323.9295015946203
0.0015                    -0.0035                  323.2773460605521
0.0015                    -0.0025                  322.5987755960943
0.0015                    -0.0015                  321.8867257770311
0.0015                    -5.0E-4                  320.617472004289
0.0015                    5.0E-4                   319.09937957433
0.0015                    0.0015                   316.4407301547634
0.0015                    0.0025                   314.4121595609943
0.0015                    0.0035                   311.38118170873304
0.0015                    0.0045                   306.4012032183972
0.0015                    0.0055                   302.3224080781026
0.0015                    0.0065                   299.7903150511042
0.0015                    0.0075                   298.259176700362
0.0015                    0.0085                   295.5149298665862
0.0015                    0.0095                   294.0454997817647
0.0015                    0.0105                   293.5231415867004
0.0015                    0.0115                   293.1319183168249
0.0015                    0.0125                   293.1234550817144
0.0015                    0.0135                   293.1427536358692
0.0015                    0.0145                   293.1569238536309
0.0015                    0.0155                   293.159263061562
0.0015                    0.0165                   293.1595570080135
0.0015                    0.0175                   293.15687890462175
0.0015                    0.0185                   293.1591409288797
0.0015                    0.0195                   293.16479445284097
0.0015                    0.0205                   293.3129033728238
0.0015                    0.0215                   294.22120557132337
0.0015                    0.0225                   295.4498902659401
0.0015                    0.0235                   298.3897668943447
0.0015                    0.0245                   302.70505258025634
0.0015                    0.0255                   307.8841404366632
0.0015                    0.0265                   310.89040647816574
0.0015                    0.0275                   313.2847753534104
0.0015                    0.0285                   315.508047059108
0.0015                    0.0295                   317.20351758148456
0.0015                    0.0305                   318.51869858433525
0.0015                    0.0315                   319.5024962314144
0.0025                    -0.0315                  370.9765866349039
0.0025                    -0.0305                  369.32189173409097
0.0025                    -0.0295                  366.7612742767609
0.0025                    -0.0285                  363.11712487229283
0.0025                    -0.0275                  358.6847800022333
0.0025                    -0.0265                  353.7964176607562
0.0025                    -0.0255                  348.94351303262613
0.0025                    -0.0245                  344.71108942198737
0.0025                    -0.0235                  341.0514946727189
0.0025                    -0.0225                  337.3918999234505
0.0025                    -0.0215                  334.9533129717503
0.0025                    -0.0205                  333.129569028267
0.0025                    -0.0195                  331.30582508478375
0.0025                    -0.0185                  330.31200680454384
0.0025                    -0.0175                  329.4622865714538
0.0025                    -0.0165                  328.6125663383637
0.0025                    -0.0155                  328.2050506446674
0.0025                    -0.0145                  327.74260931838984
0.0025                    -0.0135                  327.3220009313871
0.0025                    -0.0125                  327.1100292875005
0.0025                    -0.0115                  326.81964222357186
0.0025                    -0.0105                  326.632503105096
0.0025                    -0.0095                  326.3951381230348
0.0025                    -0.0085                  326.1556231001806
0.0025                    -0.0075                  325.8969760921841
0.0025                    -0.0065                  325.54037502406095
0.0025                    -0.0055                  325.18377395593785
0.0025                    -0.0045                  324.5985728592233
0.0025                    -0.0035                  323.92025306033634
0.0025                    -0.0025                  323.24193326144945
0.0025                    -0.0015                  322.0619115495002
0.0025                    -5.0E-4                  320.78286100958763
0.0025                    5.0E-4                   319.50381046967516
0.0025                    0.0015                   317.6729751401967
0.0025                    0.0025                   315.64080728203123
0.0025                    0.0035                   313.6086394238658
0.0025                    0.0045                   310.144486263757
0.0025                    0.0055                   306.0614858492088
0.0025                    0.0065                   301.96809677936716
0.0025                    0.0075                   298.9785313043309
0.0025                    0.0085                   296.2289096674847
0.0025                    0.0095                   294.057558399485
0.0025                    0.0105                   293.6651456164226
0.0025                    0.0115                   293.27273283336024
0.0025                    0.0125                   293.1225199400582
0.0025                    0.0135                   293.14183165534155
0.0025                    0.0145                   293.1611433706248
0.0025                    0.0155                   293.1651073318112
0.0025                    0.0165                   293.16541406118813
0.0025                    0.0175                   293.1648668308806
0.0025                    0.0185                   293.169339520992
0.0025                    0.0195                   293.17381221110355
0.0025                    0.0205                   293.6921521004492
0.0025                    0.0215                   294.5973100113837
0.0025                    0.0225                   295.6784716912475
0.0025                    0.0235                   299.74215299115764
0.0025                    0.0245                   304.04106494756076
0.0025                    0.0255                   307.6471614583944
0.0025                    0.0265                   310.07500691755126
0.0025                    0.0275                   312.50285237670806
0.0025                    0.0285                   314.1084445244977
0.0025                    0.0295                   315.8215448455429
0.0025                    0.0305                   317.1962432170088
0.0025                    0.0315                   318.2731846049338
0.0035                    -0.0315                  369.1284476104671
0.0035                    -0.0305                  367.13574109301726
0.0035                    -0.0295                  365.00719053163374
0.0035                    -0.0285                  360.9372835887215
0.0035                    -0.0275                  355.6256091720984
0.0035                    -0.0265                  350.4810092441784
0.0035                    -0.0255                  345.8214153597979
0.0035                    -0.0245                  342.0941231171067
0.0035                    -0.0235                  338.4122354816087
0.0035                    -0.0225                  335.2850058006427
0.0035                    -0.0215                  333.73700767421064
0.0035                    -0.0205                  331.961704900629
0.0035                    -0.0195                  330.66434800157003
0.0035                    -0.0185                  330.1441593266912
0.0035                    -0.0175                  329.3031153952822
0.0035                    -0.0165                  328.8916039670443
0.0035                    -0.0155                  328.78204093105626
0.0035                    -0.0145                  328.31959960477866
0.0035                    -0.0135                  328.3507440518504
0.0035                    -0.0125                  328.4656157289526
0.0035                    -0.0115                  328.17522866502395
0.0035                    -0.0105                  328.3322904016348
0.0035                    -0.0095                  328.39435936177665
0.0035                    -0.0085                  328.1548443389225
0.0035                    -0.0075                  327.8995712945542
0.0035                    -0.0065                  327.5896158463995
0.0035                    -0.0055                  327.1787766744159
0.0035                    -0.0045                  326.0340020110611
0.0035                    -0.0035                  325.20360423327304
0.0035                    -0.0025                  324.2335003635067
0.0035                    -0.0015                  322.11406452708366
0.0035                    -5.0E-4                  320.6773057718433
0.0035                    5.0E-4                   319.1429123723243
0.0035                    0.0015                   317.11507089859555
0.0035                    0.0025                   315.0831221226383
0.0035                    0.0035                   313.0522179256202
0.0035                    0.0045                   310.8349518733066
0.0035                    0.0055                   306.7519514587584
0.0035                    0.0065                   302.4712565310066
0.0035                    0.0075                   298.5620344679928
0.0035                    0.0085                   295.8124128311466
0.0035                    0.0095                   294.353228846743
0.0035                    0.0105                   293.5469932599635
0.0035                    0.0115                   293.22453797663917
0.0035                    0.0125                   293.1379580976207
0.0035                    0.0135                   293.14364172349195
0.0035                    0.0145                   293.16099005335195
0.0035                    0.0155                   293.1735093382313
0.0035                    0.0165                   293.17381606760824
0.0035                    0.0175                   293.168528847583
0.0035                    0.0185                   293.16862761729834
0.0035                    0.0195                   293.28604600613903
0.0035                    0.0205                   293.65228411685894
0.0035                    0.0215                   294.5283179934803
0.0035                    0.0225                   296.77618494316107
0.0035                    0.0235                   300.0656434254388
0.0035                    0.0245                   304.2618897648731
0.0035                    0.0255                   307.19394896072083
0.0035                    0.0265                   309.8154111106458
0.0035                    0.0275                   311.68805611994566
0.0035                    0.0285                   312.9441002519449
0.0035                    0.0295                   314.50418755692704
0.0035                    0.0305                   315.7373867945723
0.0035                    0.0315                   316.94999544149823
0.0045                    -0.0315                  367.44437764228644
0.0045                    -0.0305                  365.31306792848443
0.0045                    -0.0295                  363.15029626005526
0.0045                    -0.0285                  357.9178171000621
0.0045                    -0.0275                  352.58849889609826
0.0045                    -0.0265                  347.25918069213435
0.0045                    -0.0255                  343.2223210115158
0.0045                    -0.0245                  339.49502876882457
0.0045                    -0.0235                  335.7729762904985
0.0045                    -0.0225                  333.94799923832807
0.0045                    -0.0215                  332.40000111189596
0.0045                    -0.0205                  330.8284164880533
0.0045                    -0.0195                  330.3082278131744
0.0045                    -0.0185                  329.78803913829563
0.0045                    -0.0175                  329.2934492207367
0.0045                    -0.0165                  329.2294043433801
0.0045                    -0.0155                  329.1653594660236
0.0045                    -0.0145                  329.12476388883795
0.0045                    -0.0135                  329.3794871723138
0.0045                    -0.0125                  329.6342104557896
0.0045                    -0.0115                  329.7725403835963
0.0045                    -0.0105                  330.03207769817357
0.0045                    -0.0095                  330.2916150127508
0.0045                    -0.0085                  330.14468625331074
0.0045                    -0.0075                  329.88840341816996
0.0045                    -0.0065                  329.6321205830292
0.0045                    -0.0055                  328.74361617979366
0.0045                    -0.0045                  327.59884151643894
0.0045                    -0.0035                  326.4869554062097
0.0045                    -0.0025                  324.6363563137747
0.0045                    -0.0015                  322.5169204773517
0.0045                    -5.0E-4                  320.57175053409884
0.0045                    5.0E-4                   318.58259964173595
0.0045                    0.0015                   316.5547581680072
0.0045                    0.0025                   314.5256854660207
0.0045                    0.0035                   312.4961031284117
0.0045                    0.0045                   310.46652079080263
0.0045                    0.0055                   307.36509689796196
0.0045                    0.0065                   302.9744162826461
0.0045                    0.0075                   298.58373566733013
0.0045                    0.0085                   296.127771869422
0.0045                    0.0095                   294.775367545139
0.0045                    0.0105                   293.4288409035043
0.0045                    0.0115                   293.28636803576757
0.0045                    0.0125                   293.1997881567491
0.0045                    0.0135                   293.144956919582
0.0045                    0.0145                   293.1607653702499
0.0045                    0.0155                   293.1765738209179
0.0045                    0.0165                   293.1791094669436
0.0045                    0.0175                   293.17338517331046
0.0045                    0.0185                   293.16791571360466
0.0045                    0.0195                   293.5030445014886
0.0045                    0.0205                   293.8692826122085
0.0045                    0.0215                   295.0658720230739
0.0045                    0.0225                   297.8738981950746
0.0045                    0.0235                   300.68192436707534
0.0045                    0.0245                   303.73068648284254
0.0045                    0.0255                   306.6627456786904
0.0045                    0.0265                   309.4398535763982
0.0045                    0.0275                   310.69968763831577
0.0045                    0.0285                   311.95952170023327
0.0045                    0.0295                   313.21858044898073
0.0045                    0.0305                   314.5247159336243
0.0045                    0.0315                   315.85496719724
0.0055                    -0.0315                  365.7603076741057
0.0055                    -0.0305                  363.437413059839
0.0055                    -0.0295                  360.99339148467436
0.0055                    -0.0285                  355.35724144948364
0.0055                    -0.0275                  350.017347406507
0.0055                    -0.0265                  345.2147118562949
0.0055                    -0.0255                  341.21301475604776
0.0055                    -0.0245                  337.4475733471505
0.0055                    -0.0235                  334.7187619704727
0.0055                    -0.0225                  333.24113348341
0.0055                    -0.0215                  331.69925979938745
0.0055                    -0.0205                  330.93663506177
0.0055                    -0.0195                  330.4991747989531
0.0055                    -0.0185                  329.9785804089281
0.0055                    -0.0175                  330.0748058503838
0.0055                    -0.0165                  330.0784681258887
0.0055                    -0.0155                  330.0127127583762
0.0055                    -0.0145                  330.6220965286408
0.0055                    -0.0135                  330.90568807688214
0.0055                    -0.0125                  331.1803700849034
0.0055                    -0.0115                  331.73850632341316
0.0055                    -0.0105                  331.996192119067
0.0055                    -0.0095                  332.15813392958995
0.0055                    -0.0085                  331.9024056255075
0.0055                    -0.0075                  331.6472497259356
0.0055                    -0.0065                  330.99840456584866
0.0055                    -0.0055                  329.5835208874249
0.0055                    -0.0045                  328.4408672549752
0.0055                    -0.0035                  326.57418851829686
0.0055                    -0.0025                  324.07797826300776
0.0055                    -0.0015                  321.95939796447806
0.0055                    -5.0E-4                  319.55073951800176
0.0055                    5.0E-4                   317.2806090125456
0.0055                    0.0015                   315.24908335992995
0.0055                    0.0025                   313.542395299163
0.0055                    0.0035                   311.6292799027028
0.0055                    0.0045                   309.59823180919307
0.0055                    0.0055                   306.784303024994
0.0055                    0.0065                   302.51169994478244
0.0055                    0.0075                   298.3339633273525
0.0055                    0.0085                   295.8806624506112
0.0055                    0.0095                   294.5234215898888
0.0055                    0.0105                   293.546636110328
0.0055                    0.0115                   293.2696257047638
0.0055                    0.0125                   293.1822901330323
0.0055                    0.0135                   293.1555143457819
0.0055                    0.0145                   293.16644101128253
0.0055                    0.0155                   293.18132336448235
0.0055                    0.0165                   293.18408279504763
0.0055                    0.0175                   293.1783598113233
0.0055                    0.0185                   293.25280212318887
0.0055                    0.0195                   293.50872583325634
0.0055                    0.0205                   293.87386424787087
0.0055                    0.0215                   295.25830034740466
0.0055                    0.0225                   297.94396748145374
0.0055                    0.0235                   301.0075170840267
0.0055                    0.0245                   304.4076791403105
0.0055                    0.0255                   307.395145883801
0.0055                    0.0265                   309.07119172061863
0.0055                    0.0275                   310.0465443557414
0.0055                    0.0285                   311.3063784176589
0.0055                    0.0295                   312.5805943981512
0.0055                    0.0305                   313.6682821078452
0.0055                    0.0315                   314.7599389529818
0.0065                    -0.0315                  363.8479807525008
0.0065                    -0.0305                  361.3879998215484
0.0065                    -0.0295                  358.6923112604207
0.0065                    -0.0285                  353.05616122522997
0.0065                    -0.0275                  347.51423982696076
0.0065                    -0.0265                  343.40424352975907
0.0065                    -0.0255                  339.2942472325574
0.0065                    -0.0245                  335.4831318899717
0.0065                    -0.0235                  334.06191924020396
0.0065                    -0.0225                  332.64070659043625
0.0065                    -0.0215                  331.4195571742873
0.0065                    -0.0205                  331.09834118263655
0.0065                    -0.0195                  330.77712519098577
0.0065                    -0.0185                  330.5984370842941
0.0065                    -0.0175                  330.8341378608699
0.0065                    -0.0165                  331.02102940713866
0.0065                    -0.0155                  331.3719991362061
0.0065                    -0.0145                  332.01493355503544
0.0065                    -0.0135                  332.5324373121964
0.0065                    -0.0125                  333.01431336006783
0.0065                    -0.0115                  333.5915542486517
0.0065                    -0.0105                  334.0208012353263
0.0065                    -0.0095                  333.859785582939
0.0065                    -0.0085                  333.60391740808825
0.0065                    -0.0075                  333.34847462476296
0.0065                    -0.0065                  331.89396057085236
0.0065                    -0.0055                  330.3439069837244
0.0065                    -0.0045                  329.0134461131015
0.0065                    -0.0035                  326.18413056624763
0.0065                    -0.0025                  323.3548150193937
0.0065                    -0.0015                  321.05083243309537
0.0065                    -5.0E-4                  318.41565640820016
0.0065                    5.0E-4                   315.7821293110784
0.0065                    0.0015                   313.8960816234515
0.0065                    0.0025                   312.32479048476705
0.0065                    0.0035                   310.6858290405267
0.0065                    0.0045                   308.2201293570773
0.0065                    0.0055                   305.284250117788
0.0065                    0.0065                   301.8283596731265
0.0065                    0.0075                   298.6885717278606
0.0065                    0.0085                   296.01286799713847
0.0065                    0.0095                   294.1330188416699
0.0065                    0.0105                   293.7073021168708
0.0065                    0.0115                   293.28158539207163