% Model:              SIMBench260525.mph
% Version:            COMSOL 6.2.0.339
% Date:               May 27 2026, 17:42
% Dimension:          2
% Nodes:              4096
% Expressions:        1
% Description:        温度
% Length unit:        m
% x                       y                        T (K)
5.0E-4                    -0.0315                  349.4055220596228
5.0E-4                    -0.0305                  347.7991790310936
5.0E-4                    -0.0295                  346.1801221143547
5.0E-4                    -0.0285                  342.9492317879483
5.0E-4                    -0.0275                  339.34160994321377
5.0E-4                    -0.0265                  335.7339880984792
5.0E-4                    -0.0255                  331.67214033781295
5.0E-4                    -0.0245                  328.20091209459764
5.0E-4                    -0.0235                  324.80637504868446
5.0E-4                    -0.0225                  322.7275091223108
5.0E-4                    -0.0215                  320.73775380294336
5.0E-4                    -0.0205                  318.9149330152395
5.0E-4                    -0.0195                  318.0098337481627
5.0E-4                    -0.0185                  316.8989731498486
5.0E-4                    -0.0175                  315.9572961334396
5.0E-4                    -0.0165                  315.3533146604792
5.0E-4                    -0.0155                  314.51742596064685
5.0E-4                    -0.0145                  313.89829357570056
5.0E-4                    -0.0135                  313.35838813976477
5.0E-4                    -0.0125                  312.5671554265337
5.0E-4                    -0.0115                  312.06978567681585
5.0E-4                    -0.0105                  311.56494485321787
5.0E-4                    -0.0095                  310.8626259963309
5.0E-4                    -0.0085                  310.4105785306562
5.0E-4                    -0.0075                  309.6849991863019
5.0E-4                    -0.0065                  308.8173948122624
5.0E-4                    -0.0055                  308.06522977563554
5.0E-4                    -0.0045                  306.40285951153714
5.0E-4                    -0.0035                  304.61036057756877
5.0E-4                    -0.0025                  302.7258163307576
5.0E-4                    -0.0015                  300.2375013780387
5.0E-4                    -5.0E-4                  297.73106392733854
5.0E-4                    5.0E-4                   294.46918408996794
5.0E-4                    0.0015                   294.1721441275014
5.0E-4                    0.0025                   293.87510416503477
5.0E-4                    0.0035                   293.57328258496335
5.0E-4                    0.0045                   293.61797760028384
5.0E-4                    0.0055                   293.6626726156043
5.0E-4                    0.0065                   293.30682472894307
5.0E-4                    0.0075                   293.2128259504334
5.0E-4                    0.0085                   293.21355579027596
5.0E-4                    0.0095                   293.30875737782105
5.0E-4                    0.0105                   293.58405032957944
5.0E-4                    0.0115                   293.51984635636904
5.0E-4                    0.0125                   293.45564238315876
5.0E-4                    0.0135                   293.55049607599983
5.0E-4                    0.0145                   293.63602914638597
5.0E-4                    0.0155                   294.287749424698
5.0E-4                    0.0165                   295.4471525475276
5.0E-4                    0.0175                   296.2524415097164
5.0E-4                    0.0185                   297.8139434596365
5.0E-4                    0.0195                   300.13670789410617
5.0E-4                    0.0205                   302.4645661435851
5.0E-4                    0.0215                   303.6943905500196
5.0E-4                    0.0225                   305.14206846236095
5.0E-4                    0.0235                   306.4905994944819
5.0E-4                    0.0245                   307.3825488549294
5.0E-4                    0.0255                   308.9213505043442
5.0E-4                    0.0265                   310.20996317234665
5.0E-4                    0.0275                   312.3275029505502
5.0E-4                    0.0285                   314.8343250296308
5.0E-4                    0.0295                   317.3386598050521
5.0E-4                    0.0305                   319.03173129832123
5.0E-4                    0.0315                   320.72480279159026
0.0015                    -0.0315                  348.4068121820052
0.0015                    -0.0305                  347.26079247791347
0.0015                    -0.0295                  345.0593774019581
0.0015                    -0.0285                  341.49770919921986
0.0015                    -0.0275                  337.912196229169
0.0015                    -0.0265                  333.8079507669385
0.0015                    -0.0255                  329.4278744303798
0.0015                    -0.0245                  325.684685685164
0.0015                    -0.0235                  323.15772223567046
0.0015                    -0.0225                  321.0128490815407
0.0015                    -0.0215                  318.9944047638658
0.0015                    -0.0205                  318.0029013935968
0.0015                    -0.0195                  317.3065117949091
0.0015                    -0.0185                  316.23905226774696
0.0015                    -0.0175                  315.82673563280485
0.0015                    -0.0165                  315.5435123110027
0.0015                    -0.0155                  314.72314174959513
0.0015                    -0.0145                  314.59737579886337
0.0015                    -0.0135                  314.5037061889684
0.0015                    -0.0125                  313.71247347573734
0.0015                    -0.0115                  313.73890744533384
0.0015                    -0.0105                  313.6861053686148
0.0015                    -0.0095                  313.01519544570357
0.0015                    -0.0085                  312.89739334604127
0.0015                    -0.0075                  312.6288953551445
0.0015                    -0.0065                  311.79039197374124
0.0015                    -0.0055                  311.1518887805251
0.0015                    -0.0045                  310.1936203718408
0.0015                    -0.0035                  308.3689680167653
0.0015                    -0.0025                  306.417880446473
0.0015                    -0.0015                  304.2648450407058
0.0015                    -5.0E-4                  301.30294790377354
0.0015                    5.0E-4                   297.4272658460067
0.0015                    0.0015                   295.15902014035817
0.0015                    0.0025                   294.79312541174704
0.0015                    0.0035                   294.36292513131116
0.0015                    0.0045                   294.30613001211105
0.0015                    0.0055                   293.82443354980006
0.0015                    0.0065                   293.41344312678854
0.0015                    0.0075                   293.23858635212713
0.0015                    0.0085                   293.2394326129547
0.0015                    0.0095                   293.40910805573856
0.0015                    0.0105                   293.81492390034003
0.0015                    0.0115                   294.06531146822977
0.0015                    0.0125                   294.0790278425944
0.0015                    0.0135                   294.1858208986906
0.0015                    0.0145                   294.27500402495485
0.0015                    0.0155                   296.0590987191189
0.0015                    0.0165                   297.92673016323005
0.0015                    0.0175                   298.9552696872094
0.0015                    0.0185                   301.1241509170007
0.0015                    0.0195                   303.3572392116077
0.0015                    0.0205                   305.0012279828809
0.0015                    0.0215                   305.79280810020055
0.0015                    0.0225                   307.04671243091116
0.0015                    0.0235                   307.5807424962558
0.0015                    0.0245                   307.8407563536407
0.0015                    0.0255                   309.34342862829243
0.0015                    0.0265                   310.167792708233
0.0015                    0.0275                   311.5067678846822
0.0015                    0.0285                   314.01620176668064
0.0015                    0.0295                   316.5412545069835
0.0015                    0.0305                   318.61289691804046
0.0015                    0.0315                   320.1280776672893
0.0025                    -0.0315                  347.40810230438746
0.0025                    -0.0305                  345.73314370237426
0.0025                    -0.0295                  343.2524229499881
0.0025                    -0.0285                  339.7549667698347
0.0025                    -0.0275                  335.8479145220561
0.0025                    -0.0265                  331.47804802147107
0.0025                    -0.0255                  327.15300049060954
0.0025                    -0.0245                  323.75450027143654
0.0025                    -0.0235                  321.5996906553613
0.0025                    -0.0225                  319.4448810392861
0.0025                    -0.0215                  317.99407154575147
0.0025                    -0.0205                  317.2934275350947
0.0025                    -0.0195                  316.5927835244379
0.0025                    -0.0185                  316.22678537599654
0.0025                    -0.0175                  315.93811434187677
0.0025                    -0.0165                  315.649443307757
0.0025                    -0.0155                  315.6492503096272
0.0025                    -0.0145                  315.586520043591
0.0025                    -0.0135                  315.52378977755484
0.0025                    -0.0125                  315.651286499348
0.0025                    -0.0115                  315.6856892222091
0.0025                    -0.0105                  315.7200919450702
0.0025                    -0.0095                  315.69546334721986
0.0025                    -0.0085                  315.5757580586443
0.0025                    -0.0075                  315.45605277006877
0.0025                    -0.0065                  314.9114428166755
0.0025                    -0.0055                  314.2728941257599
0.0025                    -0.0045                  313.63434543484425
0.0025                    -0.0035                  311.9504588109636
0.0025                    -0.0025                  309.9846974457436
0.0025                    -0.0015                  308.01893608052364
0.0025                    -5.0E-4                  304.62440300028527
0.0025                    5.0E-4                   300.78491188532826
0.0025                    0.0015                   296.9593381951983
0.0025                    0.0025                   296.1647113332456
0.0025                    0.0035                   295.7350531582839
0.0025                    0.0045                   294.5420823871058
0.0025                    0.0055                   293.956429526687
0.0025                    0.0065                   293.52006152463395
0.0025                    0.0075                   293.3119607934151
0.0025                    0.0085                   293.3213391769385
0.0025                    0.0095                   293.509458733656
0.0025                    0.0105                   293.95953147425837
0.0025                    0.0115                   294.48561242782563
0.0025                    0.0125                   295.0415235658432
0.0025                    0.0135                   295.19738999809056
0.0025                    0.0145                   296.4162853066797
0.0025                    0.0155                   298.4174760422436
0.0025                    0.0165                   300.4186667778075
0.0025                    0.0175                   302.5396761927759
0.0025                    0.0185                   304.70811961981036
0.0025                    0.0195                   306.7988396621237
0.0025                    0.0205                   307.63642342545785
0.0025                    0.0215                   308.4236746435203
0.0025                    0.0225                   308.8856851201163
0.0025                    0.0235                   309.0784501321935
0.0025                    0.0245                   309.27121514427074
0.0025                    0.0255                   309.5248721801617
0.0025                    0.0265                   310.15341793877565
0.0025                    0.0275                   310.9499863240598
0.0025                    0.0285                   313.20843173716855
0.0025                    0.0295                   315.7387666495074
0.0025                    0.0305                   317.93931033065667
0.0025                    0.0315                   319.52276040131784
0.0035                    -0.0315                  345.43110497450186
0.0035                    -0.0305                  343.2712356415937
0.0035                    -0.0295                  341.1736558998451
0.0035                    -0.0285                  337.46764759128496
0.0035                    -0.0275                  332.8351127636924
0.0035                    -0.0265                  328.28331102123514
0.0035                    -0.0255                  324.0968366847365
0.0035                    -0.0245                  322.3453719776202
0.0035                    -0.0235                  320.39142642047324
0.0035                    -0.0225                  318.3557401021061
0.0035                    -0.0215                  318.1345130934144
0.0035                    -0.0205                  317.6233437180077
0.0035                    -0.0195                  317.0666478429046
0.0035                    -0.0185                  317.46095327065836
0.0035                    -0.0175                  317.3909323090583
0.0035                    -0.0165                  317.3129718900743
0.0035                    -0.0155                  318.14462655475256
0.0035                    -0.0145                  318.301112047576
0.0035                    -0.0135                  318.4473642878278
0.0035                    -0.0125                  319.23119349200886
0.0035                    -0.0115                  319.3920603203514
0.0035                    -0.0105                  319.46495994856707
0.0035                    -0.0095                  319.62394181155446
0.0035                    -0.0085                  319.53001836716925
0.0035                    -0.0075                  319.1300225010635
0.0035                    -0.0065                  318.26906721124055
0.0035                    -0.0055                  317.6267909042149
0.0035                    -0.0045                  316.533965856383
0.0035                    -0.0035                  314.8659823621945
0.0035                    -0.0025                  312.9002209969745
0.0035                    -0.0015                  310.9482767742132
0.0035                    -5.0E-4                  308.64432817717415
0.0035                    5.0E-4                   304.8048370622171
0.0035                    0.0015                   301.01972481284224
0.0035                    0.0025                   298.67074916202046
0.0035                    0.0035                   297.6509227640498
0.0035                    0.0045                   294.9880392151455
0.0035                    0.0055                   294.16385467812864
0.0035                    0.0065                   293.6659722756238
0.0035                    0.0075                   293.3274415624404
0.0035                    0.0085                   293.36494569141905
0.0035                    0.0095                   293.74060704547026
0.0035                    0.0105                   294.23375377354364
0.0035                    0.0115                   295.6861617647112
0.0035                    0.0125                   297.6486370751564
0.0035                    0.0135                   297.80450350740375
0.0035                    0.0145                   300.733585462346
0.0035                    0.0155                   303.05966144356717
0.0035                    0.0165                   305.1069927582851
0.0035                    0.0175                   307.23657638228667
0.0035                    0.0185                   309.4044840103481
0.0035                    0.0195                   310.8389055848414
0.0035                    0.0205                   311.850687384468
0.0035                    0.0215                   312.60523923606985
0.0035                    0.0225                   312.38926734214715
0.0035                    0.0235                   312.4495951521489
0.0035                    0.0245                   312.1891238480614
0.0035                    0.0255                   311.5890565656138
0.0035                    0.0265                   312.2176023242278
0.0035                    0.0275                   312.04175041777586
0.0035                    0.0285                   312.8924499210898
0.0035                    0.0295                   314.95022741573297
0.0035                    0.0305                   317.0683253482775
0.0035                    0.0315                   318.80914269659803
0.0045                    -0.0315                  343.82736838470305
0.0045                    -0.0305                  341.439805345017
0.0045                    -0.0295                  339.03799078632477
0.0045                    -0.0285                  334.5313263582986
0.0045                    -0.0275                  329.8830545286759
0.0045                    -0.0265                  325.2347826990532
0.0045                    -0.0255                  322.6558475088354
0.0045                    -0.0245                  320.90438280171907
0.0045                    -0.0235                  319.1529180946028
0.0045                    -0.0225                  318.39737132229203
0.0045                    -0.0215                  318.1761443136002
0.0045                    -0.0205                  317.9532599009207
0.0045                    -0.0195                  318.1046880549496
0.0045                    -0.0185                  318.49899348270327
0.0045                    -0.0175                  318.8437502762399
0.0045                    -0.0165                  319.4832875669369
0.0045                    -0.0155                  320.3149422316152
0.0045                    -0.0145                  321.01570405156093
0.0045                    -0.0135                  321.6972204622471
0.0045                    -0.0125                  322.4810496664282
0.0045                    -0.0115                  323.09843141849365
0.0045                    -0.0105                  323.24971978127195
0.0045                    -0.0095                  323.4087016442594
0.0045                    -0.0085                  323.4801657771586
0.0045                    -0.0075                  322.6192104873357
0.0045                    -0.0065                  321.75825519751277
0.0045                    -0.0055                  320.9031434375196
0.0045                    -0.0045                  319.25795712710647
0.0045                    -0.0035                  317.6127708166934
0.0045                    -0.0025                  315.82106669877305
0.0045                    -0.0015                  313.8779718314429
0.0045                    -5.0E-4                  311.9348769641127
0.0045                    5.0E-4                   308.85568499018706
0.0045                    0.0015                   305.08011143048634
0.0045                    0.0025                   301.30453787078557
0.0045                    0.0035                   298.822936466599
0.0045                    0.0045                   296.16005291769466
0.0045                    0.0055                   294.41171843994704
0.0045                    0.0065                   293.9304580680152
0.0045                    0.0075                   293.4185502806436
0.0045                    0.0085                   293.5801833193274
0.0045                    0.0095                   294.05821348950167
0.0045                    0.0105                   294.5474896452378
0.0045                    0.0115                   297.00918929956487
0.0045                    0.0125                   299.470888953892
0.0045                    0.0135                   301.90733810691665
0.0045                    0.0145                   304.8425541357654
0.0045                    0.0155                   307.7018468448908
0.0045                    0.0165                   309.82496118200004
0.0045                    0.0175                   311.95454480600165
0.0045                    0.0185                   313.76538402926707
0.0045                    0.0195                   314.8789715075592
0.0045                    0.0205                   315.99255898585125
0.0045                    0.0215                   316.182202847678
0.0045                    0.0225                   315.96623095375526
0.0045                    0.0235                   315.7722442862125
0.0045                    0.0245                   314.80960499307287
0.0045                    0.0255                   313.83688115309764
0.0045                    0.0265                   313.3689342905298
0.0045                    0.0275                   312.98640052458404
0.0045                    0.0285                   313.9214941522669
0.0045                    0.0295                   314.9899654223122
0.0045                    0.0305                   316.4506503522769
0.0045                    0.0315                   318.46325975201495
0.0055                    -0.0315                  342.2236317949041
0.0055                    -0.0305                  339.72507088705527
0.0055                    -0.0295                  337.19739614355865
0.0055                    -0.0285                  332.33081567441394
0.0055                    -0.0275                  327.6667487259489
0.0055                    -0.0265                  324.0126723325143
0.0055                    -0.0255                  322.05281345474833
0.0055                    -0.0245                  320.2346502106217
0.0055                    -0.0235                  318.9734671571494
0.0055                    -0.0225                  318.9355820047193
0.0055                    -0.0215                  318.71370875263665
0.0055                    -0.0205                  319.0055477133024
0.0055                    -0.0195                  319.7383288372107
0.0055                    -0.0185                  320.12888765500827
0.0055                    -0.0175                  321.04025941355536
0.0055                    -0.0165                  322.21252353418595
0.0055                    -0.0155                  323.0394666103415
0.0055                    -0.0145                  324.0285537061272
0.0055                    -0.0135                  324.97791104032507
0.0055                    -0.0125                  325.76155325664473
0.0055                    -0.0115                  326.18054881798696
0.0055                    -0.0105                  326.33533605562536
0.0055                    -0.0095                  326.496962525115
0.0055                    -0.0085                  325.7906320173811
0.0055                    -0.0075                  324.82683343800335
0.0055                    -0.0065                  323.96799788643926
0.0055                    -0.0055                  321.9663309852371
0.0055                    -0.0045                  320.1084650994916
0.0055                    -0.0035                  318.42466786717944
0.0055                    -0.0025                  315.8614889949211
0.0055                    -0.0015                  313.74284558171365
0.0055                    -5.0E-4                  311.7061012077616
0.0055                    5.0E-4                   309.63964057579216
0.0055                    0.0015                   305.84377859739953
0.0055                    0.0025                   302.1972948538336
0.0055                    0.0035                   299.1018625144513
0.0055                    0.0045                   296.4476306925487
0.0055                    0.0055                   294.4894164896199
0.0055                    0.0065                   293.8085745445
0.0055                    0.0075                   293.47057230639746
0.0055                    0.0085                   293.5381476719338
0.0055                    0.0095                   294.01617784210816
0.0055                    0.0105                   295.4952383426682
0.0055                    0.0115                   297.8108741428191
0.0055                    0.0125                   300.38749399188566
0.0055                    0.0135                   303.7104370288205
0.0055                    0.0145                   306.648369401909
0.0055                    0.0155                   308.75137082140964
0.0055                    0.0165                   310.52841868187113
0.0055                    0.0175                   312.62714691899305
0.0055                    0.0185                   314.556690467002
0.0055                    0.0195                   315.761229983799
0.0055                    0.0205                   316.89845127830506
0.0055                    0.0215                   317.7512047295588
0.0055                    0.0225                   317.55124825153416
0.0055                    0.0235                   317.2385574949551
0.0055                    0.0245                   316.4828744915645
0.0055                    0.0255                   315.4972154917808
0.0055                    0.0265                   314.6613593723006
0.0055                    0.0275                   313.9310506313922
0.0055                    0.0285                   314.6974643114195
0.0055                    0.0295                   315.3852137319538
0.0055                    0.0305                   316.60264229451815
0.0055                    0.0315                   318.1354166650323
0.0065                    -0.0315                  340.5256874678297
0.0065                    -0.0305                  337.9046195810354
0.0065                    -0.0295                  335.17413160895296
0.0065                    -0.0285                  330.3075511398083
0.0065                    -0.0275                  325.4927304388745
0.0065                    -0.0265                  323.4985101145169
0.0065                    -0.0255                  321.50428979015925
0.0065                    -0.0245                  319.63575401662195
0.0065                    -0.0235                  319.4538662743129
0.0065                    -0.0225                  319.50167272158814
0.0065                    -0.0215                  319.46201075266237
0.0065                    -0.0205                  320.4310424987608
0.0065                    -0.0195                  321.4000742448592
0.0065                    -0.0185                  322.04744928778126
0.0065                    -0.0175                  323.51872075374223
0.0065                    -0.0165                  324.98999221970325
0.0065                    -0.0155                  325.95800475062543
0.0065                    -0.0145                  327.09976988252583
0.0065                    -0.0135                  328.2415350144262
0.0065                    -0.0125                  328.92142297904843
0.0065                    -0.0115                  329.06531147779276
0.0065                    -0.0105                  329.2093277041428
0.0065                    -0.0095                  329.00516916968655
0.0065                    -0.0085                  327.8028015065503
0.0065                    -0.0075                  326.63159183725116
0.0065                    -0.0065                  325.2202738436872
0.0065                    -0.0055                  322.74930997445887
0.0065                    -0.0045                  320.42530563002344
0.0065                    -0.0035                  318.2464003207889
0.0065                    -0.0025                  315.53936036396107
0.0065                    -0.0015                  313.0518030403144
0.0065                    -5.0E-4                  311.1255905947631
0.0065                    5.0E-4                   309.25110378374876
0.0065                    0.0015                   306.2574432908085
0.0065                    0.0025                   302.78771944875587
0.0065                    0.0035                   299.31799560670316
0.0065                    0.0045                   296.9899288715136
0.0065                    0.0055                   295.1245576297566
0.0065                    0.0065                   293.6866910209848
0.0065                    0.0075                   293.6479663343812
0.0065                    0.0085                   293.6673659866979
0.0065                    0.0095                   294.35545560182595
0.0065                    0.0105                   296.4378251009681
0.0065                    0.0115                   298.5657460971249