% Model:              SIMBench260525.mph
% Version:            COMSOL 6.2.0.339
% Date:               May 27 2026, 17:56
% Dimension:          2
% Nodes:              4096
% Expressions:        1
% Description:        温度
% Length unit:        m
% x                       y                        T (K)
5.0E-4                    -0.0315                  370.24088136024744
5.0E-4                    -0.0305                  369.88914815611895
5.0E-4                    -0.0295                  369.52958348145165
5.0E-4                    -0.0285                  369.3136967523578
5.0E-4                    -0.0275                  369.3569342759952
5.0E-4                    -0.0265                  369.4398047094666
5.0E-4                    -0.0255                  369.5814415384468
5.0E-4                    -0.0245                  369.62821620004485
5.0E-4                    -0.0235                  369.6183507157859
5.0E-4                    -0.0225                  368.71693185158995
5.0E-4                    -0.0215                  367.5289432626423
5.0E-4                    -0.0205                  365.059201072071
5.0E-4                    -0.0195                  360.3389721451542
5.0E-4                    -0.0185                  355.5120361707443
5.0E-4                    -0.0175                  348.0446963055406
5.0E-4                    -0.0165                  340.7257278313565
5.0E-4                    -0.0155                  333.40675935717235
5.0E-4                    -0.0145                  328.05439491912637
5.0E-4                    -0.0135                  323.4636950262727
5.0E-4                    -0.0125                  319.0117280338849
5.0E-4                    -0.0115                  317.3888613837017
5.0E-4                    -0.0105                  315.4146512893327
5.0E-4                    -0.0095                  313.780848469261
5.0E-4                    -0.0085                  313.0698204254389
5.0E-4                    -0.0075                  312.1675517940366
5.0E-4                    -0.0065                  311.55073710599515
5.0E-4                    -0.0055                  311.0578599564309
5.0E-4                    -0.0045                  310.47967573895846
5.0E-4                    -0.0035                  310.1922111715226
5.0E-4                    -0.0025                  309.81943706462516
5.0E-4                    -0.0015                  309.43555404406226
5.0E-4                    -5.0E-4                  309.2985495165141
5.0E-4                    5.0E-4                   309.1226577103348
5.0E-4                    0.0015                   308.94676590415554
5.0E-4                    0.0025                   308.8294153462755
5.0E-4                    0.0035                   308.64157197249625
5.0E-4                    0.0045                   308.4438438931471
5.0E-4                    0.0055                   308.10240700136654
5.0E-4                    0.0065                   307.7112198998646
5.0E-4                    0.0075                   307.2627909775779
5.0E-4                    0.0085                   306.15897244371524
5.0E-4                    0.0095                   304.8077095557454
5.0E-4                    0.0105                   303.4473082668371
5.0E-4                    0.0115                   301.0294766351208
5.0E-4                    0.0125                   298.4225505643754
5.0E-4                    0.0135                   296.3971614000368
5.0E-4                    0.0145                   296.08767421238986
5.0E-4                    0.0155                   295.7781870247429
5.0E-4                    0.0165                   294.52237759220947
5.0E-4                    0.0175                   293.88209647788904
5.0E-4                    0.0185                   293.2883717157637
5.0E-4                    0.0195                   293.1477336841986
5.0E-4                    0.0205                   293.1423121048492
5.0E-4                    0.0215                   293.1453297109021
5.0E-4                    0.0225                   293.148708704174
5.0E-4                    0.0235                   293.15103674817465
5.0E-4                    0.0245                   293.1524617406894
5.0E-4                    0.0255                   293.1523496144364
5.0E-4                    0.0265                   293.1523880030189
5.0E-4                    0.0275                   293.1529371625032
5.0E-4                    0.0285                   293.15318548721103
5.0E-4                    0.0295                   293.1560682118632
5.0E-4                    0.0305                   293.16254052670575
5.0E-4                    0.0315                   293.16909525489103
0.0015                    -0.0315                  368.09602169885557
0.0015                    -0.0305                  368.20721630000446
0.0015                    -0.0295                  367.8797318429339
0.0015                    -0.0285                  367.5420783146902
0.0015                    -0.0275                  367.44088504258445
0.0015                    -0.0265                  367.66735401768005
0.0015                    -0.0255                  367.9293227959679
0.0015                    -0.0245                  367.982197455761
0.0015                    -0.0235                  367.8687468411533
0.0015                    -0.0225                  367.6034053974807
0.0015                    -0.0215                  366.1037681492618
0.0015                    -0.0205                  362.41280429051426
0.0015                    -0.0195                  358.37374268267996
0.0015                    -0.0185                  352.32184781848036
0.0015                    -0.0175                  343.4860344400382
0.0015                    -0.0165                  335.3853624988868
0.0015                    -0.0155                  329.06933731266076
0.0015                    -0.0145                  323.8202279872577
0.0015                    -0.0135                  319.0072964104746
0.0015                    -0.0125                  316.54808644791643
0.0015                    -0.0115                  315.19738109853654
0.0015                    -0.0105                  313.32360584438857
0.0015                    -0.0095                  312.6469172596443
0.0015                    -0.0085                  312.23123684477326
0.0015                    -0.0075                  311.32896821337096
0.0015                    -0.0065                  311.1545719477047
0.0015                    -0.0055                  310.90360703113885
0.0015                    -0.0045                  310.4134275522435
0.0015                    -0.0035                  310.34795955000385
0.0015                    -0.0025                  310.1659759271963
0.0015                    -0.0015                  309.9068455859315
0.0015                    -5.0E-4                  309.88482063740696
0.0015                    5.0E-4                   309.7794318991851
0.0015                    0.0015                   309.65740551542564
0.0015                    0.0025                   309.5853317246946
0.0015                    0.0035                   309.4301923590981
0.0015                    0.0045                   309.1694266022068
0.0015                    0.0055                   308.87650315287806
0.0015                    0.0065                   308.4958415245308
0.0015                    0.0075                   307.9204845882904
0.0015                    0.0085                   307.26752408876365
0.0015                    0.0095                   305.91522358155913
0.0015                    0.0105                   304.543578015368
0.0015                    0.0115                   302.8672530571664
0.0015                    0.0125                   300.46849739086355
0.0015                    0.0135                   298.7186209728675
0.0015                    0.0145                   297.6019463464205
0.0015                    0.0155                   296.62833877326295
0.0015                    0.0165                   294.84222129603523
0.0015                    0.0175                   293.8345180488202
0.0015                    0.0185                   293.4430879252021
0.0015                    0.0195                   293.134454900079
0.0015                    0.0205                   293.1307680607668
0.0015                    0.0215                   293.1430335935444
0.0015                    0.0225                   293.15182698161783
0.0015                    0.0235                   293.15389096804165
0.0015                    0.0245                   293.1556182128909
0.0015                    0.0255                   293.15610195916196
0.0015                    0.0265                   293.1567826755625
0.0015                    0.0275                   293.1576944437507
0.0015                    0.0285                   293.1588840960862
0.0015                    0.0295                   293.16436725971437
0.0015                    0.0305                   293.17052369529154
0.0015                    0.0315                   293.19831273133786
0.0025                    -0.0315                  365.95116203746363
0.0025                    -0.0305                  365.42682981976446
0.0025                    -0.0295                  364.9286070812617
0.0025                    -0.0285                  364.7875382183523
0.0025                    -0.0275                  364.8342629457031
0.0025                    -0.0265                  365.2717779278714
0.0025                    -0.0255                  365.71267157986904
0.0025                    -0.0245                  365.8344001132921
0.0025                    -0.0235                  365.73048250327474
0.0025                    -0.0225                  365.6265648932574
0.0025                    -0.0215                  362.73514261128355
0.0025                    -0.0205                  359.0196173040531
0.0025                    -0.0195                  355.3040919968227
0.0025                    -0.0185                  347.16939825299477
0.0025                    -0.0175                  338.33217579977196
0.0025                    -0.0165                  330.0351230424522
0.0025                    -0.0155                  324.97886437851867
0.0025                    -0.0145                  319.7300743332581
0.0025                    -0.0135                  315.6950953875327
0.0025                    -0.0125                  314.3405286078654
0.0025                    -0.0115                  312.985961828198
0.0025                    -0.0105                  312.1002306439374
0.0025                    -0.0095                  311.68940529932377
0.0025                    -0.0085                  311.2785799547101
0.0025                    -0.0075                  311.0539909027858
0.0025                    -0.0065                  310.87855198615875
0.0025                    -0.0055                  310.70311306953164
0.0025                    -0.0045                  310.667297015008
0.0025                    -0.0035                  310.60102600303907
0.0025                    -0.0025                  310.53475499107026
0.0025                    -0.0015                  310.56742313921654
0.0025                    -5.0E-4                  310.5448700252671
0.0025                    5.0E-4                   310.5350668294412
0.0025                    0.0015                   310.47184135109325
0.0025                    0.0025                   310.3995909917953
0.0025                    0.0035                   310.239028335674
0.0025                    0.0045                   309.9462989572082
0.0025                    0.0055                   309.6535695787425
0.0025                    0.0065                   309.15151180507286
0.0025                    0.0075                   308.5482138719931
0.0025                    0.0085                   307.94491593891325
0.0025                    0.0095                   306.86232013380527
0.0025                    0.0105                   305.4853564699458
0.0025                    0.0115                   304.10839280608644
0.0025                    0.0125                   302.54347834283806
0.0025                    0.0135                   300.783318446163
0.0025                    0.0145                   298.96269942289064
0.0025                    0.0155                   297.06730916254617
0.0025                    0.0165                   295.275908989421
0.0025                    0.0175                   293.86076206306734
0.0025                    0.0185                   293.5475253992522
0.0025                    0.0195                   293.2342887354371
0.0025                    0.0205                   293.12880606960704
0.0025                    0.0215                   293.14107564204335
0.0025                    0.0225                   293.15329821895034
0.0025                    0.0235                   293.15691214542636
0.0025                    0.0245                   293.15864425632196
0.0025                    0.0255                   293.1601737584771
0.0025                    0.0265                   293.1610675708221
0.0025                    0.0275                   293.1619613831672
0.0025                    0.0285                   293.16627781545003
0.0025                    0.0295                   293.1715133728339
0.0025                    0.0305                   293.1931109848538
0.0025                    0.0315                   293.2275302077847
0.0035                    -0.0315                  362.5491233472499
0.0035                    -0.0305                  361.685107695767
0.0035                    -0.0295                  361.03610167225656
0.0035                    -0.0285                  360.9980200117672
0.0035                    -0.0275                  361.2066284348332
0.0035                    -0.0265                  361.5181241206767
0.0035                    -0.0255                  361.84185904788677
0.0035                    -0.0245                  361.77513780022207
0.0035                    -0.0235                  361.67969003804035
0.0035                    -0.0225                  360.1088029771712
0.0035                    -0.0215                  355.7348243428537
0.0035                    -0.0205                  351.9721465285261
0.0035                    -0.0195                  346.2688013054555
0.0035                    -0.0185                  338.66036554313655
0.0035                    -0.0175                  329.8231430899138
0.0035                    -0.0165                  324.80299540452927
0.0035                    -0.0155                  320.7589012756791
0.0035                    -0.0145                  315.5101112304184
0.0035                    -0.0135                  314.3748075866844
0.0035                    -0.0125                  313.3960074698221
0.0035                    -0.0115                  312.1092964863771
0.0035                    -0.0105                  311.96402936492564
0.0035                    -0.0095                  311.6477464698522
0.0035                    -0.0085                  311.33809769102197
0.0035                    -0.0075                  311.3877211675707
0.0035                    -0.0065                  311.2532476399201
0.0035                    -0.0055                  311.23355401508286
0.0035                    -0.0045                  311.4628218779993
0.0035                    -0.0035                  311.3988345444684
0.0035                    -0.0025                  311.53243960457496
0.0035                    -0.0015                  311.7747521375868
0.0035                    -5.0E-4                  311.75219902363733
0.0035                    5.0E-4                   311.80646936525943
0.0035                    0.0015                   311.8368428630732
0.0035                    0.0025                   311.76459250377525
0.0035                    0.0035                   311.376088862199
0.0035                    0.0045                   311.01908704176776
0.0035                    0.0055                   310.6802998464702
0.0035                    0.0065                   309.7227459989216
0.0035                    0.0075                   309.00947091949564
0.0035                    0.0085                   308.245348190308
0.0035                    0.0095                   307.006578077687
0.0035                    0.0105                   305.6481665504934
0.0035                    0.0115                   304.40672951447283
0.0035                    0.0125                   303.2823625071685
0.0035                    0.0135                   301.5222026104934
0.0035                    0.0145                   299.23650995879234
0.0035                    0.0155                   296.93575543930956
0.0035                    0.0165                   295.14686318733993
0.0035                    0.0175                   294.09094411520886
0.0035                    0.0185                   293.466304131248
0.0035                    0.0195                   293.2278102631305
0.0035                    0.0205                   293.13528389640015
0.0035                    0.0215                   293.14031469233987
0.0035                    0.0225                   293.1520856941301
0.0035                    0.0235                   293.160885367385
0.0035                    0.0245                   293.1626174782806
0.0035                    0.0255                   293.1639897263417
0.0035                    0.0265                   293.16508887831577
0.0035                    0.0275                   293.1675857475927
0.0035                    0.0285                   293.17257347462396
0.0035                    0.0295                   293.1777208021807
0.0035                    0.0305                   293.2063267159153
0.0035                    0.0315                   293.24705857949147
0.0045                    -0.0315                  359.1866766811335
0.0045                    -0.0305                  358.22247968476785
0.0045                    -0.0295                  357.30025972000755
0.0045                    -0.0285                  357.36939359261487
0.0045                    -0.0275                  357.57865948216795
0.0045                    -0.0265                  357.7876023470293
0.0045                    -0.0255                  357.76844521020234
0.0045                    -0.0245                  357.7017239625377
0.0045                    -0.0235                  357.62889757280595
0.0045                    -0.0225                  353.46429127052295
0.0045                    -0.0215                  349.0903126362054
0.0045                    -0.0205                  344.3942513581251
0.0045                    -0.0195                  336.9347370395487
0.0045                    -0.0185                  329.4752227209723
0.0045                    -0.0175                  323.12332165901825
0.0045                    -0.0165                  319.5708677666064
0.0045                    -0.0155                  316.0184138741945
0.0045                    -0.0145                  313.6563336694572
0.0045                    -0.0135                  313.008543460424
0.0045                    -0.0125                  312.3607532513908
0.0045                    -0.0115                  311.90899783442615
0.0045                    -0.0105                  311.7637307129746
0.0045                    -0.0095                  311.60608764038074
0.0045                    -0.0085                  311.57812868916415
0.0045                    -0.0075                  311.6277521657129
0.0045                    -0.0065                  311.6279432936815
0.0045                    -0.0055                  311.85432775738934
0.0045                    -0.0045                  312.08359562030586
0.0045                    -0.0035                  312.25359006244963
0.0045                    -0.0025                  312.5491090210838
0.0045                    -0.0015                  312.84462797971787
0.0045                    -5.0E-4                  312.9940920506909
0.0045                    5.0E-4                   313.0778719010775
0.0045                    0.0015                   313.1616517514642
0.0045                    0.0025                   312.95448737799717
0.0045                    0.0035                   312.5287561283886
0.0045                    0.0045                   312.10302487878005
0.0045                    0.0055                   311.35492202783354
0.0045                    0.0065                   310.39736818028496
0.0045                    0.0075                   309.4707279669983
0.0045                    0.0085                   308.32531715151265
0.0045                    0.0095                   307.08654703889164
0.0045                    0.0105                   305.832255631419
0.0045                    0.0115                   304.7473902284976
0.0045                    0.0125                   303.66252482557604
0.0045                    0.0135                   302.0169665124558
0.0045                    0.0145                   299.51032049469404
0.0045                    0.0155                   297.00367447693236
0.0045                    0.0165                   295.474683048404
0.0045                    0.0175                   294.41876397627306
0.0045                    0.0185                   293.3850828632438
0.0045                    0.0195                   293.2833983528593
0.0045                    0.0205                   293.1908719861289
0.0045                    0.0215                   293.13933108456564
0.0045                    0.0225                   293.1508731693098
0.0045                    0.0235                   293.162415254054
0.0045                    0.0245                   293.1663771757331
0.0045                    0.0255                   293.16774630224256
0.0045                    0.0265                   293.1691101858094
0.0045                    0.0275                   293.17396844307143
0.0045                    0.0285                   293.17892969860276
0.0045                    0.0295                   293.18385466328454
0.0045                    0.0305                   293.22926747823874
0.0045                    0.0315                   293.2754033828896
0.0055                    -0.0315                  355.82423001501706
0.0055                    -0.0305                  355.07032071741514
0.0055                    -0.0295                  354.3358545277315
0.0055                    -0.0285                  353.7611480061444
0.0055                    -0.0275                  353.9391910303857
0.0055                    -0.0265                  353.5518640384132
0.0055                    -0.0255                  352.9017962843647
0.0055                    -0.0245                  352.8781802909559
0.0055                    -0.0235                  350.54646760787085
0.0055                    -0.0225                  346.11807265402103
0.0055                    -0.0215                  341.73447286746926
0.0055                    -0.0205                  336.74915891791613
0.0055                    -0.0195                  329.9607374439911
0.0055                    -0.0185                  322.5070813333159
0.0055                    -0.0175                  320.15120697442467
0.0055                    -0.0165                  316.7235051717842
0.0055                    -0.0155                  313.5982681315267
0.0055                    -0.0145                  313.232719862563
0.0055                    -0.0135                  312.5778392617863
0.0055                    -0.0125                  312.1042928644392
0.0055                    -0.0115                  312.0394689608743
0.0055                    -0.0105                  311.89240257477485
0.0055                    -0.0095                  311.9326608170356
0.0055                    -0.0085                  312.10416925388824
0.0055                    -0.0075                  312.15255000648057
0.0055                    -0.0065                  312.4953094740292
0.0055                    -0.0055                  312.8399796425376
0.0055                    -0.0045                  313.06798542302664
0.0055                    -0.0035                  313.50500010150876
0.0055                    -0.0025                  313.8422804625992
0.0055                    -0.0015                  314.13705466859756
0.0055                    -5.0E-4                  314.2414275066192
0.0055                    5.0E-4                   314.32544207936905
0.0055                    0.0015                   314.35669818373435
0.0055                    0.0025                   313.9073658427676
0.0055                    0.0035                   313.4817223107003
0.0055                    0.0045                   312.85477890327377
0.0055                    0.0055                   311.74807127828774
0.0055                    0.0065                   310.7890188646022
0.0055                    0.0075                   309.47224937496605
0.0055                    0.0085                   307.967085919464
0.0055                    0.0095                   306.72167374164286
0.0055                    0.0105                   305.53694433890837
0.0055                    0.0115                   304.420838254459
0.0055                    0.0125                   303.3238507263264
0.0055                    0.0135                   301.85094261192455
0.0055                    0.0145                   299.45772897826936
0.0055                    0.0155                   297.08085140955444
0.0055                    0.0165                   295.26363374087254
0.0055                    0.0175                   294.20399544973077
0.0055                    0.0185                   293.51746951649704
0.0055                    0.0195                   293.25936802839146
0.0055                    0.0205                   293.1673001693158
0.0055                    0.0215                   293.1456188824682
0.0055                    0.0225                   293.1534145260108
0.0055                    0.0235                   293.16396826984254
0.0055                    0.0245                   293.1703379502028
0.0055                    0.0255                   293.17171629526104
0.0055                    0.0265                   293.17391536850374
0.0055                    0.0275                   293.17777118554375
0.0055                    0.0285                   293.18269615022547
0.0055                    0.0295                   293.1942248644676
0.0055                    0.0305                   293.24681643681294
0.0055                    0.0315                   293.3037481862877
0.0065                    -0.0315                  353.09644613856256
0.0065                    -0.0305                  352.0994348739536
0.0065                    -0.0295                  351.3781917099045
0.0065                    -0.0285                  350.8034851883174
0.0065                    -0.0275                  350.1956296995549
0.0065                    -0.0265                  349.1405481396137
0.0065                    -0.0255                  348.0854665796724
0.0065                    -0.0245                  347.60366959967075
0.0065                    -0.0235                  343.1243603295761
0.0065                    -0.0225                  338.64505105948155
0.0065                    -0.0215                  333.9786019316207
0.0065                    -0.0205                  328.7813627922462
0.0065                    -0.0195                  323.3718491270272
0.0065                    -0.0185                  318.95472383366456
0.0065                    -0.0175                  316.8305868014861
0.0065                    -0.0165                  314.27088060522095
0.0065                    -0.0155                  313.15115656591195
0.0065                    -0.0145                  312.81673000836986
0.0065                    -0.0135                  312.321692334394
0.0065                    -0.0125                  312.23419106753323
0.0065                    -0.0115                  312.2007094569845
0.0065                    -0.0105                  312.1165836550954
0.0065                    -0.0095                  312.3884601549418
0.0065                    -0.0085                  312.66033665478824
0.0065                    -0.0075                  312.84708355613395
0.0065                    -0.0065                  313.38285662460135
0.0065                    -0.0055                  313.91181446691536
0.0065                    -0.0045                  314.24170980185426
0.0065                    -0.0035                  314.7429938755413
0.0065                    -0.0025                  315.20399305337884
0.0065                    -0.0015                  315.3892137747726
0.0065                    -5.0E-4                  315.4791975331441
0.0065                    5.0E-4                   315.566907425272
0.0065                    0.0015                   315.2743254724335
0.0065                    0.0025                   314.8210605524455
0.0065                    0.0035                   314.38277482971336
0.0065                    0.0045                   313.30568229452535
0.0065                    0.0055                   312.1310727995475
0.0065                    0.0065                   311.06967717673047
0.0065                    0.0075                   309.3197806709286
0.0065                    0.0085                   307.5698841651267
0.0065                    0.0095                   306.289368306544
0.0065                    0.0105                   305.1345886596815
0.0065                    0.0115                   303.98400009035544