% Model:              SIMBench260525.mph
% Version:            COMSOL 6.2.0.339
% Date:               May 27 2026, 17:26
% Dimension:          2
% Nodes:              4096
% Expressions:        1
% Description:        温度
% Length unit:        m
% x                       y                        T (K)
5.0E-4                    -0.0315                  314.5118761186918
5.0E-4                    -0.0305                  313.4752147620437
5.0E-4                    -0.0295                  312.4403015764225
5.0E-4                    -0.0285                  311.6376774982417
5.0E-4                    -0.0275                  310.8530184239876
5.0E-4                    -0.0265                  310.1482105080174
5.0E-4                    -0.0255                  309.8726739267843
5.0E-4                    -0.0245                  309.5414246420662
5.0E-4                    -0.0235                  309.2604489192366
5.0E-4                    -0.0225                  309.09064985509804
5.0E-4                    -0.0215                  308.91753407009475
5.0E-4                    -0.0205                  308.7416835775774
5.0E-4                    -0.0195                  308.61634699207036
5.0E-4                    -0.0185                  308.5018632755034
5.0E-4                    -0.0175                  308.3034557333633
5.0E-4                    -0.0165                  308.2209305831701
5.0E-4                    -0.0155                  308.1406768084119
5.0E-4                    -0.0145                  307.98853352024923
5.0E-4                    -0.0135                  307.83008451178165
5.0E-4                    -0.0125                  307.671635503314
5.0E-4                    -0.0115                  307.61711695756594
5.0E-4                    -0.0105                  307.56704821061214
5.0E-4                    -0.0095                  307.52189228834305
5.0E-4                    -0.0085                  307.52906890218196
5.0E-4                    -0.0075                  307.5228590345163
5.0E-4                    -0.0065                  307.52647298301923
5.0E-4                    -0.0055                  307.5497137732662
5.0E-4                    -0.0045                  307.5643820666522
5.0E-4                    -0.0035                  307.5897931187249
5.0E-4                    -0.0025                  307.6160194394021
5.0E-4                    -0.0015                  307.63752725230927
5.0E-4                    -5.0E-4                  307.6723740595094
5.0E-4                    5.0E-4                   307.66135945051076
5.0E-4                    0.0015                   307.64642313906967
5.0E-4                    0.0025                   307.65957440833625
5.0E-4                    0.0035                   307.54712641477136
5.0E-4                    0.0045                   307.4346784212064
5.0E-4                    0.0055                   307.3720017967055
5.0E-4                    0.0065                   307.097071487295
5.0E-4                    0.0075                   306.8251152809124
5.0E-4                    0.0085                   306.5413096720575
5.0E-4                    0.0095                   305.87060838259134
5.0E-4                    0.0105                   305.2792706962651
5.0E-4                    0.0115                   304.29332504329693
5.0E-4                    0.0125                   302.7099517549458
5.0E-4                    0.0135                   301.3526959376475
5.0E-4                    0.0145                   299.51371529313906
5.0E-4                    0.0155                   297.31637878725496
5.0E-4                    0.0165                   294.9098142022804
5.0E-4                    0.0175                   294.4342206632035
5.0E-4                    0.0185                   294.21046956111456
5.0E-4                    0.0195                   293.63220267207953
5.0E-4                    0.0205                   293.67068809796376
5.0E-4                    0.0215                   293.709173523848
5.0E-4                    0.0225                   293.3695802339127
5.0E-4                    0.0235                   293.2190524063001
5.0E-4                    0.0245                   293.15207800647994
5.0E-4                    0.0255                   293.1626260141407
5.0E-4                    0.0265                   293.1800745319821
5.0E-4                    0.0275                   293.16466159914904
5.0E-4                    0.0285                   293.14924866631605
5.0E-4                    0.0295                   293.14659547315125
5.0E-4                    0.0305                   293.1147591129351
5.0E-4                    0.0315                   293.0829227527189
0.0015                    -0.0315                  313.8424469170797
0.0015                    -0.0305                  312.6898559580687
0.0015                    -0.0295                  311.74749498079046
0.0015                    -0.0285                  310.97689579152325
0.0015                    -0.0275                  310.19771159632967
0.0015                    -0.0265                  309.86218266040146
0.0015                    -0.0255                  309.6463745298616
0.0015                    -0.0245                  309.3242912498807
0.0015                    -0.0235                  309.15273166119874
0.0015                    -0.0225                  308.98901984419365
0.0015                    -0.0215                  308.81545662192815
0.0015                    -0.0205                  308.636200127745
0.0015                    -0.0195                  308.4721123365639
0.0015                    -0.0185                  308.32632017927483
0.0015                    -0.0175                  308.07220987324297
0.0015                    -0.0165                  307.8844881909163
0.0015                    -0.0155                  307.76638126418425
0.0015                    -0.0145                  307.58755611349176
0.0015                    -0.0135                  307.4198272491958
0.0015                    -0.0125                  307.323553572524
0.0015                    -0.0115                  307.2812407525493
0.0015                    -0.0105                  307.2334547147908
0.0015                    -0.0095                  307.23070215313237
0.0015                    -0.0085                  307.2494085743546
0.0015                    -0.0075                  307.2466394096837
0.0015                    -0.0065                  307.27676324064913
0.0015                    -0.0055                  307.3135833262375
0.0015                    -0.0045                  307.32825161962353
0.0015                    -0.0035                  307.37071043082904
0.0015                    -0.0025                  307.40973160115215
0.0015                    -0.0015                  307.4347836808543
0.0015                    -5.0E-4                  307.48104083681835
0.0015                    5.0E-4                   307.50685601200183
0.0015                    0.0015                   307.5104088108887
0.0015                    0.0025                   307.5572705308683
0.0015                    0.0035                   307.5257810446174
0.0015                    0.0045                   307.48198288582944
0.0015                    0.0055                   307.52014868826285
0.0015                    0.0065                   307.35485457278253
0.0015                    0.0075                   307.23910226073406
0.0015                    0.0085                   307.22370450380436
0.0015                    0.0095                   306.67900046795626
0.0015                    0.0105                   306.36971234455325
0.0015                    0.0115                   306.167636010333
0.0015                    0.0125                   304.6317494755443
0.0015                    0.0135                   303.6903620356765
0.0015                    0.0145                   302.6367735321491
0.0015                    0.0155                   300.4019122105035
0.0015                    0.0165                   297.77330535813144
0.0015                    0.0175                   295.90802745813227
0.0015                    0.0185                   295.4562415788975
0.0015                    0.0195                   294.5572769575176
0.0015                    0.0205                   294.2560383261766
0.0015                    0.0215                   293.9675215454372
0.0015                    0.0225                   293.5555180384502
0.0015                    0.0235                   293.2372584563706
0.0015                    0.0245                   293.1632060487819
0.0015                    0.0255                   293.1670013833046
0.0015                    0.0265                   293.20261541862646
0.0015                    0.0275                   293.21555160230605
0.0015                    0.0285                   293.2054949470143
0.0015                    0.0295                   293.2226148271404
0.0015                    0.0305                   293.2075920228117
0.0015                    0.0315                   293.1924735856567
0.0025                    -0.0315                  313.17301771546755
0.0025                    -0.0305                  312.1602757952187
0.0025                    -0.0295                  311.26559117261144
0.0025                    -0.0285                  310.4645432010616
0.0025                    -0.0275                  309.9195474759583
0.0025                    -0.0265                  309.681664503443
0.0025                    -0.0255                  309.44491074051325
0.0025                    -0.0245                  309.26242158457853
0.0025                    -0.0235                  309.0941887128916
0.0025                    -0.0225                  308.9259558412046
0.0025                    -0.0215                  308.71731548398316
0.0025                    -0.0205                  308.53828182916675
0.0025                    -0.0195                  308.35924817435034
0.0025                    -0.0185                  308.0710325049594
0.0025                    -0.0175                  307.81619398163195
0.0025                    -0.0165                  307.56202416328415
0.0025                    -0.0155                  307.3839841054453
0.0025                    -0.0145                  307.20473147771133
0.0025                    -0.0135                  307.05535376187606
0.0025                    -0.0125                  307.0154603787196
0.0025                    -0.0115                  306.9724727286444
0.0025                    -0.0105                  306.95837621105676
0.0025                    -0.0095                  306.97622685535214
0.0025                    -0.0085                  306.99407749964763
0.0025                    -0.0075                  307.0264305883514
0.0025                    -0.0065                  307.06319903192235
0.0025                    -0.0055                  307.0999674754933
0.0025                    -0.0045                  307.14139597335503
0.0025                    -0.0035                  307.18386858531323
0.0025                    -0.0025                  307.2263411972714
0.0025                    -0.0015                  307.26997763269867
0.0025                    -5.0E-4                  307.3160981616052
0.0025                    5.0E-4                   307.3622186905118
0.0025                    0.0015                   307.40696074462767
0.0025                    0.0025                   307.4537707603685
0.0025                    0.0035                   307.49993768355085
0.0025                    0.0045                   307.53785804805347
0.0025                    0.0055                   307.57604562792835
0.0025                    0.0065                   307.61191571782916
0.0025                    0.0075                   307.59651796089946
0.0025                    0.0085                   307.58112020396976
0.0025                    0.0095                   307.5356804616547
0.0025                    0.0105                   307.3336041274345
0.0025                    0.0115                   307.1315277932142
0.0025                    0.0125                   306.7099297905896
0.0025                    0.0135                   305.8175212310672
0.0025                    0.0145                   304.92511267154487
0.0025                    0.0155                   303.22408822829703
0.0025                    0.0165                   300.5884754882295
0.0025                    0.0175                   297.952862748162
0.0025                    0.0185                   296.80714383529
0.0025                    0.0195                   295.8970130261533
0.0025                    0.0205                   294.7107087928904
0.0025                    0.0215                   294.1653883237649
0.0025                    0.0225                   293.74145584298776
0.0025                    0.0235                   293.36764420816337
0.0025                    0.0245                   293.181173467423
0.0025                    0.0255                   293.17137675246846
0.0025                    0.0265                   293.2133354173545
0.0025                    0.0275                   293.26173426478323
0.0025                    0.0285                   293.2708000728519
0.0025                    0.0295                   293.30224047151313
0.0025                    0.0305                   293.3170411110214
0.0025                    0.0315                   293.30276187288257
0.0035                    -0.0315                  312.85522625709984
0.0035                    -0.0305                  311.86140274554225
0.0035                    -0.0295                  310.92805259770387
0.0035                    -0.0285                  310.25115742684034
0.0035                    -0.0275                  309.9843275443396
0.0035                    -0.0265                  309.7292990381836
0.0035                    -0.0255                  309.5175344088684
0.0035                    -0.0245                  309.40108049172727
0.0035                    -0.0235                  309.2472631146945
0.0035                    -0.0225                  309.024056301806
0.0035                    -0.0215                  308.6774029357929
0.0035                    -0.0205                  308.4781141470827
0.0035                    -0.0195                  308.1667062346997
0.0035                    -0.0185                  307.7040404693065
0.0035                    -0.0175                  307.4492019459789
0.0035                    -0.0165                  307.24555689262877
0.0035                    -0.0155                  307.0707847509939
0.0035                    -0.0145                  306.89153212325994
0.0035                    -0.0135                  306.8617107392066
0.0035                    -0.0125                  306.8544724542878
0.0035                    -0.0115                  306.8114848042126
0.0035                    -0.0105                  306.87275294011044
0.0035                    -0.0095                  306.9162277573417
0.0035                    -0.0085                  306.93735503659383
0.0035                    -0.0075                  307.00663274898204
0.0035                    -0.0065                  307.0544582615993
0.0035                    -0.0055                  307.09387184619425
0.0035                    -0.0045                  307.1434146795967
0.0035                    -0.0035                  307.18718679271535
0.0035                    -0.0025                  307.2277451699772
0.0035                    -0.0015                  307.2648273442546
0.0035                    -5.0E-4                  307.31070346293905
0.0035                    5.0E-4                   307.3512114183683
0.0035                    0.0015                   307.3878001362764
0.0035                    0.0025                   307.4346101520172
0.0035                    0.0035                   307.4741012913056
0.0035                    0.0045                   307.51056117823225
0.0035                    0.0055                   307.5487487581071
0.0035                    0.0065                   307.5881917609526
0.0035                    0.0075                   307.6032918427089
0.0035                    0.0085                   307.5878940857793
0.0035                    0.0095                   307.6216304429326
0.0035                    0.0105                   307.51311070304155
0.0035                    0.0115                   307.337217925628
0.0035                    0.0125                   307.3268380345225
0.0035                    0.0135                   306.6399101690766
0.0035                    0.0145                   305.9470170824501
0.0035                    0.0155                   305.7189573388532
0.0035                    0.0165                   303.18509418320065
0.0035                    0.0175                   301.02517953701107
0.0035                    0.0185                   299.42026154267967
0.0035                    0.0195                   298.51013073354306
0.0035                    0.0205                   296.08163596685677
0.0035                    0.0215                   294.88156677136925
0.0035                    0.0225                   294.03833640581234
0.0035                    0.0235                   293.39770952026316
0.0035                    0.0245                   293.23386572904246
0.0035                    0.0255                   293.1971939040885
0.0035                    0.0265                   293.22314330242114
0.0035                    0.0275                   293.275806469143
0.0035                    0.0285                   293.3707725465666
0.0035                    0.0295                   293.42036808016326
0.0035                    0.0305                   293.43182126533316
0.0035                    0.0315                   293.4124222837319
0.0045                    -0.0315                  312.6765835713873
0.0045                    -0.0305                  311.6472476709839
0.0045                    -0.0295                  310.6266639059987
0.0045                    -0.0285                  310.3148830868622
0.0045                    -0.0275                  310.0485132648746
0.0045                    -0.0265                  309.782143442887
0.0045                    -0.0255                  309.639477358662
0.0045                    -0.0245                  309.52302344152076
0.0045                    -0.0235                  309.4003375164974
0.0045                    -0.0225                  309.0682150103563
0.0045                    -0.0215                  308.7215616443431
0.0045                    -0.0205                  308.3973854268447
0.0045                    -0.0195                  307.92957914299814
0.0045                    -0.0185                  307.4617728591515
0.0045                    -0.0175                  307.1028772536975
0.0045                    -0.0165                  306.9290896219734
0.0045                    -0.0155                  306.7553019902494
0.0045                    -0.0145                  306.65650026810545
0.0045                    -0.0135                  306.6680677165373
0.0045                    -0.0125                  306.6796351649692
0.0045                    -0.0115                  306.7120803696699
0.0045                    -0.0105                  306.78165998514487
0.0045                    -0.0095                  306.85123960061986
0.0045                    -0.0085                  306.90907134157226
0.0045                    -0.0075                  306.9783490539605
0.0045                    -0.0065                  307.04571749127615
0.0045                    -0.0055                  307.09293705118154
0.0045                    -0.0045                  307.1424798845839
0.0045                    -0.0035                  307.1905050001175
0.0045                    -0.0025                  307.2277900961079
0.0045                    -0.0015                  307.2648722703854
0.0045                    -5.0E-4                  307.3040666068232
0.0045                    5.0E-4                   307.3391247824239
0.0045                    0.0015                   307.3741829580247
0.0045                    0.0025                   307.41250404409004
0.0045                    0.0035                   307.4482648990603
0.0045                    0.0045                   307.4840257540306
0.0045                    0.0055                   307.52210101203207
0.0045                    0.0065                   307.5618202314872
0.0045                    0.0075                   307.6015394509423
0.0045                    0.0085                   307.6239464585243
0.0045                    0.0095                   307.6587785429832
0.0045                    0.0105                   307.69261727864864
0.0045                    0.0115                   307.6327297629866
0.0045                    0.0125                   307.62234987188117
0.0045                    0.0135                   307.46229910708587
0.0045                    0.0145                   307.1748402878968
0.0045                    0.0155                   306.94678054429994
0.0045                    0.0165                   305.91508407505995
0.0045                    0.0175                   304.10960821965364
0.0045                    0.0185                   302.30413236424727
0.0045                    0.0195                   300.40506804604104
0.0045                    0.0205                   297.7908804694578
0.0045                    0.0215                   295.60753981313223
0.0045                    0.0225                   294.61746387353276
0.0045                    0.0235                   293.5990155149992
0.0045                    0.0245                   293.2678130477553
0.0045                    0.0255                   293.22894368117835
0.0045                    0.0265                   293.23681144005394
0.0045                    0.0275                   293.29487989176897
0.0045                    0.0285                   293.39105889833905
0.0045                    0.0295                   293.49788222727113
0.0045                    0.0305                   293.5372332803418
0.0045                    0.0315                   293.50691243780454
0.0055                    -0.0315                  312.4979408856748
0.0055                    -0.0305                  311.5911468336041
0.0055                    -0.0295                  310.70829047647334
0.0055                    -0.0285                  310.36036723205495
0.0055                    -0.0275                  310.0929315110983
0.0055                    -0.0265                  309.8715020800198
0.0055                    -0.0255                  309.7214132284099
0.0055                    -0.0245                  309.60749250534457
0.0055                    -0.0235                  309.27123647093464
0.0055                    -0.0225                  308.8140026658572
0.0055                    -0.0215                  308.4653186894144
0.0055                    -0.0205                  307.95253270239914
0.0055                    -0.0195                  307.44027575060824
0.0055                    -0.0185                  306.97028793371896
0.0055                    -0.0175                  306.8412064967713
0.0055                    -0.0165                  306.683766157342
0.0055                    -0.0155                  306.5227513033039
0.0055                    -0.0145                  306.63976125473044
0.0055                    -0.0135                  306.65086505031127
0.0055                    -0.0125                  306.6950608031799
0.0055                    -0.0115                  306.876712512838
0.0055                    -0.0105                  306.94414002319627
0.0055                    -0.0095                  307.0508391882397
0.0055                    -0.0085                  307.20780234843403
0.0055                    -0.0075                  307.2749291421527
0.0055                    -0.0065                  307.37067326615204
0.0055                    -0.0055                  307.4646278743347
0.0055                    -0.0045                  307.5124917056597
0.0055                    -0.0035                  307.5594655119375
0.0055                    -0.0025                  307.5995336673277
0.0055                    -0.0015                  307.635663661895
0.0055                    -5.0E-4                  307.63107967045636
0.0055                    5.0E-4                   307.65304842328953
0.0055                    0.0015                   307.6877415822827
0.0055                    0.0025                   307.64133903080176
0.0055                    0.0035                   307.6700988311464
0.0055                    0.0045                   307.7030177772884
0.0055                    0.0055                   307.6494120226131
0.0055                    0.0065                   307.6891323348101
0.0055                    0.0075                   307.7145990387519
0.0055                    0.0085                   307.6956607721717
0.0055                    0.0095                   307.73049231667994
0.0055                    0.0105                   307.75209663065795
0.0055                    0.0115                   307.7458308497587
0.0055                    0.0125                   307.7351992918309
0.0055                    0.0135                   307.7350909757761
0.0055                    0.0145                   307.6015925590731
0.0055                    0.0155                   307.36735269045954
0.0055                    0.0165                   307.26148918570186
0.0055                    0.0175                   305.8245491565383
0.0055                    0.0185                   304.05738481873954
0.0055                    0.0195                   301.3949849577409
0.0055                    0.0205                   298.6997404494319
0.0055                    0.0215                   296.17478612405165
0.0055                    0.0225                   294.45944619136424
0.0055                    0.0235                   293.6598035567682
0.0055                    0.0245                   293.2497221654905
0.0055                    0.0255                   293.21120626236444
0.0055                    0.0265                   293.25405814191686
0.0055                    0.0275                   293.3139533143949
0.0055                    0.0285                   293.4092763212449
0.0055                    0.0295                   293.51046860685517
0.0055                    0.0305                   293.5688946516403
0.0055                    0.0315                   293.5993564447224
0.0065                    -0.0315                  312.5774518940586
0.0065                    -0.0305                  311.6606188090263
0.0065                    -0.0295                  310.82444996857555
0.0065                    -0.0285                  310.4765267241571
0.0065                    -0.0275                  310.14626084951834
0.0065                    -0.0265                  309.97798185233
0.0065                    -0.0255                  309.8097028551416
0.0065                    -0.0245                  309.6645698707382
0.0065                    -0.0235                  309.0954770718852
0.0065                    -0.0225                  308.52638427303225
0.0065                    -0.0215                  308.08017675128406
0.0065                    -0.0205                  307.4937474486887
0.0065                    -0.0195                  306.90937789900227
0.0065                    -0.0185                  306.636054335469
0.0065                    -0.0175                  306.55278641101256
0.0065                    -0.0165                  306.44951968057774
0.0065                    -0.0155                  306.47391368149283
0.0065                    -0.0145                  306.59092363291927
0.0065                    -0.0135                  306.66544561012927
0.0065                    -0.0125                  306.83124436367467
0.0065                    -0.0115                  307.0331605538254
0.0065                    -0.0105                  307.1603249012538
0.0065                    -0.0095                  307.34770538796465
0.0065                    -0.0085                  307.5440243656985
0.0065                    -0.0075                  307.6526065388625
0.0065                    -0.0065                  307.78553022052023
0.0065                    -0.0055                  307.91845390217793
0.0065                    -0.0045                  307.9781353421269
0.0065                    -0.0035                  308.0244470806919
0.0065                    -0.0025                  308.0706388098496
0.0065                    -0.0015                  308.08823110748193
0.0065                    -5.0E-4                  308.0677859582795
0.0065                    5.0E-4                   308.0565665121909
0.0065                    0.0015                   308.0468465725518
0.0065                    0.0025                   307.9885278823484
0.0065                    0.0035                   307.96068671990236
0.0065                    0.0045                   307.9344205552578
0.0065                    0.0055                   307.87222727252447
0.0065                    0.0065                   307.85918325891686
0.0065                    0.0075                   307.8386595394827
0.0065                    0.0085                   307.8022771284518
0.0065                    0.0095                   307.81181944917427
0.0065                    0.0105                   307.81035764135265
0.0065                    0.0115                   307.8071127599669