% Model:              SIMBench260525.mph
% Version:            COMSOL 6.2.0.339
% Date:               May 27 2026, 17:53
% Dimension:          2
% Nodes:              4096
% Expressions:        1
% Description:        温度
% Length unit:        m
% x                       y                        T (K)
5.0E-4                    -0.0315                  341.65798405019046
5.0E-4                    -0.0305                  340.1918590105315
5.0E-4                    -0.0295                  338.7270343241819
5.0E-4                    -0.0285                  336.7842856891731
5.0E-4                    -0.0275                  335.0504097975106
5.0E-4                    -0.0265                  333.36314397466964
5.0E-4                    -0.0255                  332.5845620102192
5.0E-4                    -0.0245                  331.7863760784577
5.0E-4                    -0.0235                  331.0495416790467
5.0E-4                    -0.0225                  330.5983382183076
5.0E-4                    -0.0215                  330.1007163495224
5.0E-4                    -0.0205                  329.6133929881877
5.0E-4                    -0.0195                  329.2220216162517
5.0E-4                    -0.0185                  328.8673564939759
5.0E-4                    -0.0175                  328.4025104849917
5.0E-4                    -0.0165                  328.0848323403214
5.0E-4                    -0.0155                  327.8760597129268
5.0E-4                    -0.0145                  327.47735661848355
5.0E-4                    -0.0135                  327.09375870794804
5.0E-4                    -0.0125                  326.74471220249154
5.0E-4                    -0.0115                  326.444174585431
5.0E-4                    -0.0105                  326.30124683547456
5.0E-4                    -0.0095                  326.1614866985926
5.0E-4                    -0.0085                  326.08538449871014
5.0E-4                    -0.0075                  326.0743657002232
5.0E-4                    -0.0065                  326.0633469017362
5.0E-4                    -0.0055                  326.1049110264024
5.0E-4                    -0.0045                  326.17037421004596
5.0E-4                    -0.0035                  326.23583739368945
5.0E-4                    -0.0025                  326.3339337054622
5.0E-4                    -0.0015                  326.41709843200414
5.0E-4                    -5.0E-4                  326.5022159494738
5.0E-4                    5.0E-4                   326.6063353539279
5.0E-4                    0.0015                   326.6371583781965
5.0E-4                    0.0025                   326.690744723794
5.0E-4                    0.0035                   326.7956048432506
5.0E-4                    0.0045                   326.8189177122838
5.0E-4                    0.0055                   326.8954117319951
5.0E-4                    0.0065                   326.93319506670616
5.0E-4                    0.0075                   326.8585603788077
5.0E-4                    0.0085                   326.8693957703934
5.0E-4                    0.0095                   326.3824925791496
5.0E-4                    0.0105                   325.679877309634
5.0E-4                    0.0115                   325.14310524021926
5.0E-4                    0.0125                   322.7533372261503
5.0E-4                    0.0135                   320.0412837245332
5.0E-4                    0.0145                   318.0810946202562
5.0E-4                    0.0155                   312.6051774667602
5.0E-4                    0.0165                   307.03648722146744
5.0E-4                    0.0175                   302.8757261520874
5.0E-4                    0.0185                   301.6980220390629
5.0E-4                    0.0195                   300.5203179260383
5.0E-4                    0.0205                   296.83301170452955
5.0E-4                    0.0215                   295.16488766356076
5.0E-4                    0.0225                   293.5954484918932
5.0E-4                    0.0235                   293.15622468378103
5.0E-4                    0.0245                   293.13430161271174
5.0E-4                    0.0255                   293.1515583159901
5.0E-4                    0.0265                   293.214398982071
5.0E-4                    0.0275                   293.27703471446364
5.0E-4                    0.0285                   293.48904770336736
5.0E-4                    0.0295                   293.8791314801508
5.0E-4                    0.0305                   294.22993494165564
5.0E-4                    0.0315                   294.53439551715024
0.0015                    -0.0315                  341.1273539049057
0.0015                    -0.0305                  339.61101407468544
0.0015                    -0.0295                  337.9088596413176
0.0015                    -0.0285                  335.76512061475773
0.0015                    -0.0275                  333.8386562664674
0.0015                    -0.0265                  332.78273654777297
0.0015                    -0.0255                  332.0174873958164
0.0015                    -0.0245                  331.22687837518055
0.0015                    -0.0235                  330.7462058914533
0.0015                    -0.0225                  330.3483965126393
0.0015                    -0.0215                  329.85694654803086
0.0015                    -0.0205                  329.39460249049336
0.0015                    -0.0195                  328.94132041328635
0.0015                    -0.0185                  328.58665529101063
0.0015                    -0.0175                  327.9345661248818
0.0015                    -0.0165                  327.34974805217865
0.0015                    -0.0155                  327.10058669515615
0.0015                    -0.0145                  326.49476206412294
0.0015                    -0.0135                  325.9564686349037
0.0015                    -0.0125                  325.62453096351715
0.0015                    -0.0115                  325.3580387780651
0.0015                    -0.0105                  325.13836910830935
0.0015                    -0.0095                  325.0252321794552
0.0015                    -0.0085                  324.97181939503537
0.0015                    -0.0075                  324.938671694972
0.0015                    -0.0065                  324.9532898891262
0.0015                    -0.0055                  325.0039866762455
0.0015                    -0.0045                  325.06336406897066
0.0015                    -0.0035                  325.1522747139587
0.0015                    -0.0025                  325.2624106322843
0.0015                    -0.0015                  325.353719328089
0.0015                    -5.0E-4                  325.4835658732093
0.0015                    5.0E-4                   325.6402128021826
0.0015                    0.0015                   325.6951988930223
0.0015                    0.0025                   325.84941163281826
0.0015                    0.0035                   326.045533911709
0.0015                    0.0045                   326.0830759855357
0.0015                    0.0055                   326.289645875028
0.0015                    0.0065                   326.5176686246521
0.0015                    0.0075                   326.44303393675364
0.0015                    0.0085                   326.5985043046695
0.0015                    0.0095                   326.63910607278746
0.0015                    0.0105                   325.96676538024167
0.0015                    0.0115                   325.61459137822567
0.0015                    0.0125                   324.65602083911995
0.0015                    0.0135                   322.20436604472997
0.0015                    0.0145                   320.7749375690514
0.0015                    0.0155                   317.7841564711571
0.0015                    0.0165                   312.74946402613864
0.0015                    0.0175                   308.80107319084266
0.0015                    0.0185                   306.27764795907666
0.0015                    0.0195                   303.12031658896365
0.0015                    0.0205                   297.9068008590412
0.0015                    0.0215                   295.21572929455044
0.0015                    0.0225                   294.0663907786204
0.0015                    0.0235                   293.11856823592075
0.0015                    0.0245                   293.09947445466
0.0015                    0.0255                   293.1635839085165
0.0015                    0.0265                   293.22732568246204
0.0015                    0.0275                   293.29671482626566
0.0015                    0.0285                   293.5800397377194
0.0015                    0.0295                   293.8633646491732
0.0015                    0.0305                   294.19247012623475
0.0015                    0.0315                   294.4647838856209
0.0025                    -0.0315                  340.5967237596209
0.0025                    -0.0305                  338.9624780550965
0.0025                    -0.0295                  337.0993229751579
0.0025                    -0.0285                  334.9381499280766
0.0025                    -0.0275                  333.213330611512
0.0025                    -0.0265                  332.37574800917844
0.0025                    -0.0255                  331.580502077173
0.0025                    -0.0245                  331.02420910714625
0.0025                    -0.0235                  330.60297638477385
0.0025                    -0.0225                  330.18174366240146
0.0025                    -0.0215                  329.7239706794742
0.0025                    -0.0205                  329.2642665633986
0.0025                    -0.0195                  328.804562447323
0.0025                    -0.0185                  328.0690407359181
0.0025                    -0.0175                  327.4165814899688
0.0025                    -0.0165                  326.76412224401946
0.0025                    -0.0155                  326.1070695041113
0.0025                    -0.0145                  325.50140016056116
0.0025                    -0.0135                  324.89573081701104
0.0025                    -0.0125                  324.5851429529712
0.0025                    -0.0115                  324.3178154519538
0.0025                    -0.0105                  324.0504879509363
0.0025                    -0.0095                  323.99650495054266
0.0025                    -0.0085                  323.9426732480627
0.0025                    -0.0075                  323.8932691909901
0.0025                    -0.0065                  323.95259094040483
0.0025                    -0.0055                  324.0031576340191
0.0025                    -0.0045                  324.0624180789452
0.0025                    -0.0035                  324.1727378025954
0.0025                    -0.0025                  324.28295247084077
0.0025                    -0.0015                  324.3961155428205
0.0025                    -5.0E-4                  324.55315687502264
0.0025                    5.0E-4                   324.71019820722466
0.0025                    0.0015                   324.8666436747456
0.0025                    0.0025                   325.06324118492523
0.0025                    0.0035                   325.2598386951048
0.0025                    0.0045                   325.4567699181971
0.0025                    0.0055                   325.69360133894816
0.0025                    0.0065                   325.9304327596993
0.0025                    0.0075                   326.1243368501409
0.0025                    0.0085                   326.28619156712546
0.0025                    0.0095                   326.44804628411
0.0025                    0.0105                   326.3440319174209
0.0025                    0.0115                   325.99180067051634
0.0025                    0.0125                   325.6395694236117
0.0025                    0.0135                   324.6390063072946
0.0025                    0.0145                   323.20438159098325
0.0025                    0.0155                   321.7697568746718
0.0025                    0.0165                   318.42960793482575
0.0025                    0.0175                   314.4460536261621
0.0025                    0.0185                   310.0800715910415
0.0025                    0.0195                   304.7564761556596
0.0025                    0.0205                   299.5355059686541
0.0025                    0.0215                   295.41527003409794
0.0025                    0.0225                   294.445653832145
0.0025                    0.0235                   293.476037630192
0.0025                    0.0245                   293.1112592912684
0.0025                    0.0255                   293.17560950104286
0.0025                    0.0265                   293.2397189548994
0.0025                    0.0275                   293.3877068606177
0.0025                    0.0285                   293.65628584754927
0.0025                    0.0295                   293.9168699095738
0.0025                    0.0305                   294.1572116831226
0.0025                    0.0315                   294.39517225409156
0.0035                    -0.0315                  339.96103866038527
0.0035                    -0.0305                  338.11815651020567
0.0035                    -0.0295                  336.3692686989683
0.0035                    -0.0285                  334.44682075805196
0.0035                    -0.0275                  333.3370516289021
0.0035                    -0.0265                  332.3173373588569
0.0035                    -0.0255                  331.58618149581173
0.0035                    -0.0245                  331.422563806829
0.0035                    -0.0235                  331.1137957571355
0.0035                    -0.0225                  330.67427989912903
0.0035                    -0.0215                  330.1271253059007
0.0035                    -0.0205                  329.6435827031536
0.0035                    -0.0195                  328.914178268145
0.0035                    -0.0185                  327.3902642510558
0.0035                    -0.0175                  326.5986137631347
0.0035                    -0.0165                  325.8848816749029
0.0035                    -0.0155                  325.0591436516214
0.0035                    -0.0145                  324.44113344721944
0.0035                    -0.0135                  324.02727272023344
0.0035                    -0.0125                  323.8470160946061
0.0035                    -0.0115                  323.5796885935887
0.0035                    -0.0105                  323.48288537848185
0.0035                    -0.0095                  323.518192562382
0.0035                    -0.0085                  323.46436085990206
0.0035                    -0.0075                  323.5200375618861
0.0035                    -0.0065                  323.62053446003097
0.0035                    -0.0055                  323.6711011536452
0.0035                    -0.0045                  323.7698854283806
0.0035                    -0.0035                  323.88335514004825
0.0035                    -0.0025                  323.99356980829356
0.0035                    -0.0015                  324.0969922767659
0.0035                    -5.0E-4                  324.2255468738528
0.0035                    5.0E-4                   324.3825882060549
0.0035                    0.0015                   324.4877803462634
0.0035                    0.0025                   324.6458844203556
0.0035                    0.0035                   324.83678884469487
0.0035                    0.0045                   324.95871190198943
0.0035                    0.0055                   325.16051480246125
0.0035                    0.0065                   325.38386628769814
0.0035                    0.0075                   325.55026354259047
0.0035                    0.0085                   325.7130060606656
0.0035                    0.0095                   325.8872006218696
0.0035                    0.0105                   326.0888509414063
0.0035                    0.0115                   325.7817879779238
0.0035                    0.0125                   325.56993239952624
0.0035                    0.0135                   325.4881564330407
0.0035                    0.0145                   324.0535317167293
0.0035                    0.0155                   322.84290037777475
0.0035                    0.0165                   321.31783822406067
0.0035                    0.0175                   317.33428391539695
0.0035                    0.0185                   311.32288831912354
0.0035                    0.0195                   305.13826650558536
0.0035                    0.0205                   299.9606936863152
0.0035                    0.0215                   296.19724081395293
0.0035                    0.0225                   294.2289169892403
0.0035                    0.0235                   293.44387086187714
0.0035                    0.0245                   293.09620452743957
0.0035                    0.0255                   293.1632311069238
0.0035                    0.0265                   293.2335938094366
0.0035                    0.0275                   293.3994257557233
0.0035                    0.0285                   293.6755673899236
0.0035                    0.0295                   293.936151451948
0.0035                    0.0305                   294.1719988227346
0.0035                    0.0315                   294.39873456316127
0.0045                    -0.0315                  339.6477933820472
0.0045                    -0.0305                  337.6644342557154
0.0045                    -0.0295                  335.7329453089232
0.0045                    -0.0285                  334.56108614523873
0.0045                    -0.0275                  333.4536400057465
0.0045                    -0.0265                  332.3461938662542
0.0045                    -0.0255                  331.94664792988067
0.0045                    -0.0245                  331.7830302408979
0.0045                    -0.0235                  331.6194125519152
0.0045                    -0.0225                  331.1070909511652
0.0045                    -0.0215                  330.55993635793686
0.0045                    -0.0205                  330.02289884290855
0.0045                    -0.0195                  328.625706570267
0.0045                    -0.0185                  327.1017925531778
0.0045                    -0.0175                  325.78064603630065
0.0045                    -0.0165                  324.95811611185184
0.0045                    -0.0155                  324.13237808857036
0.0045                    -0.0145                  323.40885784759644
0.0045                    -0.0135                  323.23330305821594
0.0045                    -0.0125                  323.05774826883555
0.0045                    -0.0115                  322.8887127062474
0.0045                    -0.0105                  322.94038060208396
0.0045                    -0.0095                  322.9920484979205
0.0045                    -0.0085                  323.02857739112557
0.0045                    -0.0075                  323.14680593278223
0.0045                    -0.0065                  323.26503447443883
0.0045                    -0.0055                  323.3619626165884
0.0045                    -0.0045                  323.4773527778159
0.0045                    -0.0035                  323.5927429390433
0.0045                    -0.0025                  323.70050727190466
0.0045                    -0.0015                  323.8027603219201
0.0045                    -5.0E-4                  323.9050133719356
0.0045                    5.0E-4                   324.0242078583577
0.0045                    0.0015                   324.1274340561264
0.0045                    0.0025                   324.2306602538951
0.0045                    0.0035                   324.37401044280375
0.0045                    0.0045                   324.4959335000983
0.0045                    0.0055                   324.6274282659743
0.0045                    0.0065                   324.80789952035127
0.0045                    0.0075                   324.97429677524366
0.0045                    0.0085                   325.13982055420576
0.0045                    0.0095                   325.3383245954966
0.0045                    0.0105                   325.5399749150333
0.0045                    0.0115                   325.5851080150495
0.0045                    0.0125                   325.5593840178387
0.0045                    0.0135                   325.5336600206279
0.0045                    0.0145                   324.9710215446234
0.0045                    0.0155                   323.93434518862284
0.0045                    0.0165                   322.8976688326223
0.0045                    0.0175                   319.2316556198723
0.0045                    0.0185                   312.5657050472055
0.0045                    0.0195                   305.89975447453867
0.0045                    0.0205                   301.2538822053004
0.0045                    0.0215                   297.4904293329381
0.0045                    0.0225                   294.04013379829865
0.0045                    0.0235                   293.6207690681219
0.0045                    0.0245                   293.2014043379452
0.0045                    0.0255                   293.15053500045474
0.0045                    0.0265                   293.23647715975864
0.0045                    0.0275                   293.38364172046806
0.0045                    0.0285                   293.6657854988818
0.0045                    0.0295                   293.94709864693385
0.0045                    0.0305                   294.1875862423019
0.0045                    0.0315                   294.41476239291273
0.0055                    -0.0315                  339.3345481037092
0.0055                    -0.0305                  337.65025821122094
0.0055                    -0.0295                  335.99294129845623
0.0055                    -0.0285                  334.61262697559465
0.0055                    -0.0275                  333.48662625305747
0.0055                    -0.0265                  332.7385884630645
0.0055                    -0.0255                  332.54723754660426
0.0055                    -0.0245                  332.36449882712503
0.0055                    -0.0235                  331.85706823219255
0.0055                    -0.0225                  330.9478227471252
0.0055                    -0.0215                  330.4033496666236
0.0055                    -0.0205                  329.03014286146424
0.0055                    -0.0195                  327.18666003005035
0.0055                    -0.0185                  325.6695966259248
0.0055                    -0.0175                  324.6959471028995
0.0055                    -0.0165                  323.9402471744838
0.0055                    -0.0155                  323.11525387523636
0.0055                    -0.0145                  322.90564738751846
0.0055                    -0.0135                  322.79174503308275
0.0055                    -0.0125                  322.61314624790094
0.0055                    -0.0115                  322.7652648120505
0.0055                    -0.0105                  322.8502347347635
0.0055                    -0.0095                  322.90103542137433
0.0055                    -0.0085                  323.1415064240375
0.0055                    -0.0075                  323.26909773755665
0.0055                    -0.0065                  323.3871846636829
0.0055                    -0.0055                  323.56510798779436
0.0055                    -0.0045                  323.6804260619669
0.0055                    -0.0035                  323.7943739783907
0.0055                    -0.0025                  323.89156879788266
0.0055                    -0.0015                  323.99402700111386
0.0055                    -5.0E-4                  324.0857641313715
0.0055                    5.0E-4                   324.14502817186747
0.0055                    0.0015                   324.2494693390185
0.0055                    0.0025                   324.32756465856204
0.0055                    0.0035                   324.3820502441703
0.0055                    0.0045                   324.5057212572881
0.0055                    0.0055                   324.5887551447846
0.0055                    0.0065                   324.6809830253407
0.0055                    0.0075                   324.84941608453437
0.0055                    0.0085                   324.9647520906533
0.0055                    0.0095                   325.1105503989593
0.0055                    0.0105                   325.3128356089904
0.0055                    0.0115                   325.4528601046194
0.0055                    0.0125                   325.4677006886037
0.0055                    0.0135                   325.44176531851326
0.0055                    0.0145                   325.3665309350386
0.0055                    0.0155                   324.498812429875
0.0055                    0.0165                   323.44870891991616
0.0055                    0.0175                   320.2877354051834
0.0055                    0.0185                   313.87809999599966
0.0055                    0.0195                   307.2879004094609
0.0055                    0.0205                   301.1432286076968
0.0055                    0.0215                   297.3646883714661
0.0055                    0.0225                   294.59636291948937
0.0055                    0.0235                   293.596202062904
0.0055                    0.0245                   293.2362861071356
0.0055                    0.0255                   293.15677749471746
0.0055                    0.0265                   293.23958365176003
0.0055                    0.0275                   293.3678576852128
0.0055                    0.0285                   293.6340436105466
0.0055                    0.0295                   293.89571265979004
0.0055                    0.0305                   294.16313238884953
0.0055                    0.0315                   294.4307902226642
0.0065                    -0.0315                  339.5407681812861
0.0065                    -0.0305                  337.9038241612132
0.0065                    -0.0295                  336.2685309925356
0.0065                    -0.0285                  334.888216669674
0.0065                    -0.0275                  333.5412786811229
0.0065                    -0.0265                  333.34738583559863
0.0065                    -0.0255                  333.15349299007437
0.0065                    -0.0245                  332.96790026486326
0.0065                    -0.0235                  331.9216270946989
0.0065                    -0.0225                  330.79297757682957
0.0065                    -0.0215                  329.90486252645104
0.0065                    -0.0205                  327.7162749287194
0.0065                    -0.0195                  325.52768733098776
0.0065                    -0.0185                  324.1799333063009
0.0065                    -0.0175                  323.5412858731428
0.0065                    -0.0165                  322.89809174150696
0.0065                    -0.0155                  322.362468411198
0.0065                    -0.0145                  322.42376413471305
0.0065                    -0.0135                  322.4554953020068
0.0065                    -0.0125                  322.43788219862057
0.0065                    -0.0115                  322.6950334916106
0.0065                    -0.0105                  322.9055225487193
0.0065                    -0.0095                  323.0596974891585
0.0065                    -0.0085                  323.3317375231163
0.0065                    -0.0075                  323.5529812709641
0.0065                    -0.0065                  323.7084805821348
0.0065                    -0.0055                  323.89186378044747
0.0065                    -0.0045                  324.0455429556056
0.0065                    -0.0035                  324.147856724112
0.0065                    -0.0025                  324.2440957366947
0.0065                    -0.0015                  324.3437236311119
0.0065                    -5.0E-4                  324.3993812901603
0.0065                    5.0E-4                   324.44267137030204
0.0065                    0.0015                   324.52579974533074
0.0065                    0.0025                   324.5491942339259
0.0065                    0.0035                   324.56381054680696
0.0065                    0.0045                   324.6586043908534
0.0065                    0.0055                   324.6831852406347
0.0065                    0.0065                   324.7077660904161
0.0065                    0.0075                   324.84138980615
0.0065                    0.0085                   324.9099538801727
0.0065                    0.0095                   324.97851795419535
0.0065                    0.0105                   325.1507691368722
0.0065                    0.0115                   325.25743001743945