% Model:              SIMBench260525.mph
% Version:            COMSOL 6.2.0.339
% Date:               May 27 2026, 18:21
% Dimension:          2
% Nodes:              4096
% Expressions:        1
% Description:        温度
% Length unit:        m
% x                       y                        T (K)
5.0E-4                    -0.0315                  319.79355530445616
5.0E-4                    -0.0305                  318.2463912778052
5.0E-4                    -0.0295                  316.69798372456137
5.0E-4                    -0.0285                  314.41660982587024
5.0E-4                    -0.0275                  312.48255712511076
5.0E-4                    -0.0265                  310.5599959841198
5.0E-4                    -0.0255                  309.6436456095754
5.0E-4                    -0.0245                  308.62535977859255
5.0E-4                    -0.0235                  307.67941370878884
5.0E-4                    -0.0225                  307.2650590529528
5.0E-4                    -0.0215                  306.68432791821334
5.0E-4                    -0.0205                  306.1893189597984
5.0E-4                    -0.0195                  305.88733697577084
5.0E-4                    -0.0185                  305.4347024131834
5.0E-4                    -0.0175                  305.09260959319573
5.0E-4                    -0.0165                  304.9121505868834
5.0E-4                    -0.0155                  304.6594681361269
5.0E-4                    -0.0145                  304.4686797448237
5.0E-4                    -0.0135                  304.2732571223793
5.0E-4                    -0.0125                  304.03796025192383
5.0E-4                    -0.0115                  303.7691276990479
5.0E-4                    -0.0105                  303.3153796075697
5.0E-4                    -0.0095                  302.832617279231
5.0E-4                    -0.0085                  302.25617687356436
5.0E-4                    -0.0075                  300.8778681116292
5.0E-4                    -0.0065                  299.43869773971744
5.0E-4                    -0.0055                  298.20459619226415
5.0E-4                    -0.0045                  296.9483933966436
5.0E-4                    -0.0035                  295.6921906010232
5.0E-4                    -0.0025                  294.5671239981989
5.0E-4                    -0.0015                  294.5220299323077
5.0E-4                    -5.0E-4                  294.47693586641657
5.0E-4                    5.0E-4                   293.85358716542237
5.0E-4                    0.0015                   293.5240702958937
5.0E-4                    0.0025                   293.21835686722534
5.0E-4                    0.0035                   293.14921929774454
5.0E-4                    0.0045                   293.1461345928267
5.0E-4                    0.0055                   293.1478686238556
5.0E-4                    0.0065                   293.14994072578315
5.0E-4                    0.0075                   293.1513067807757
5.0E-4                    0.0085                   293.15079370444244
5.0E-4                    0.0095                   293.1484188678792
5.0E-4                    0.0105                   293.1474393148939
5.0E-4                    0.0115                   293.18119923202323
5.0E-4                    0.0125                   293.2355619845144
5.0E-4                    0.0135                   293.5733740937795
5.0E-4                    0.0145                   294.7290254915366
5.0E-4                    0.0155                   295.9479648725197
5.0E-4                    0.0165                   298.4819028687253
5.0E-4                    0.0175                   302.0024813269264
5.0E-4                    0.0185                   305.29835576996055
5.0E-4                    0.0195                   307.21847665652075
5.0E-4                    0.0205                   309.1791661768796
5.0E-4                    0.0215                   310.89085843794874
5.0E-4                    0.0225                   311.45389173907876
5.0E-4                    0.0235                   311.9208135856536
5.0E-4                    0.0245                   312.51709628691896
5.0E-4                    0.0255                   313.0973741413537
5.0E-4                    0.0265                   313.67307645532014
5.0E-4                    0.0275                   314.5693213887746
5.0E-4                    0.0285                   315.7516118357054
5.0E-4                    0.0295                   317.0886520823313
5.0E-4                    0.0305                   318.48048004632403
5.0E-4                    0.0315                   319.8700054955158
0.0015                    -0.0315                  319.0011233452558
0.0015                    -0.0305                  317.5219792932818
0.0015                    -0.0295                  315.6194419944883
0.0015                    -0.0285                  312.9853905841261
0.0015                    -0.0275                  310.7517054765348
0.0015                    -0.0265                  309.5373288624004
0.0015                    -0.0255                  308.68002123028566
0.0015                    -0.0245                  307.7041228977431
0.0015                    -0.0235                  307.24408106198496
0.0015                    -0.0225                  306.97648959671426
0.0015                    -0.0215                  306.4394120158215
0.0015                    -0.0205                  306.24413597821444
0.0015                    -0.0195                  306.1337962600562
0.0015                    -0.0185                  305.69747144932927
0.0015                    -0.0175                  305.613397105814
0.0015                    -0.0165                  305.55862746182856
0.0015                    -0.0155                  305.3059450110722
0.0015                    -0.0145                  305.22334555482666
0.0015                    -0.0135                  305.1216901049528
0.0015                    -0.0125                  304.8810135125092
0.0015                    -0.0115                  304.57089517219623
0.0015                    -0.0105                  304.2222602784459
0.0015                    -0.0095                  303.7116716889104
0.0015                    -0.0085                  303.05482888065575
0.0015                    -0.0075                  302.1538467766998
0.0015                    -0.0065                  300.7964417809962
0.0015                    -0.0055                  299.686528419865
0.0015                    -0.0045                  298.5180757984459
0.0015                    -0.0035                  297.262556783284
0.0015                    -0.0025                  296.00837574799135
0.0015                    -0.0015                  295.3630775771966
0.0015                    -5.0E-4                  294.9303476120996
0.0015                    5.0E-4                   294.00631761761315
0.0015                    0.0015                   293.4930314742141
0.0015                    0.0025                   293.29436896922135
0.0015                    0.0035                   293.1431842255576
0.0015                    0.0045                   293.1399138855214
0.0015                    0.0055                   293.1472916563016
0.0015                    0.0065                   293.152779757362
0.0015                    0.0075                   293.1534470894718
0.0015                    0.0085                   293.1529449711969
0.0015                    0.0095                   293.15124052836217
0.0015                    0.0105                   293.1568026168163
0.0015                    0.0115                   293.1656810031029
0.0015                    0.0125                   293.2439622931066
0.0015                    0.0135                   293.9172751818452
0.0015                    0.0145                   294.7644751157356
0.0015                    0.0155                   296.52560215077426
0.0015                    0.0165                   299.14578938193654
0.0015                    0.0175                   302.3662891043521
0.0015                    0.0185                   304.66196046307465
0.0015                    0.0195                   306.53177615673474
0.0015                    0.0205                   308.44111545757477
0.0015                    0.0215                   309.8800738091709
0.0015                    0.0225                   310.95934218775153
0.0015                    0.0235                   311.5064792744997
0.0015                    0.0245                   312.1488416646557
0.0015                    0.0255                   312.7481902915474
0.0015                    0.0265                   313.3050720217974
0.0015                    0.0275                   313.85634136789406
0.0015                    0.0285                   315.0772527265418
0.0015                    0.0295                   316.5661832345113
0.0015                    0.0305                   318.00225718205775
0.0015                    0.0315                   319.4989770416661
0.0025                    -0.0315                  318.2086913860554
0.0025                    -0.0305                  316.3555531687794
0.0025                    -0.0295                  314.1197683610976
0.0025                    -0.0285                  311.5370335649885
0.0025                    -0.0275                  309.5668806337188
0.0025                    -0.0265                  308.6826244731311
0.0025                    -0.0255                  307.8044028021229
0.0025                    -0.0245                  307.2250052017448
0.0025                    -0.0235                  306.9435682830808
0.0025                    -0.0225                  306.6621313644168
0.0025                    -0.0215                  306.5215114045093
0.0025                    -0.0205                  306.4099747704514
0.0025                    -0.0195                  306.29843813639354
0.0025                    -0.0185                  306.30137499874684
0.0025                    -0.0175                  306.2535753650465
0.0025                    -0.0165                  306.2057757313462
0.0025                    -0.0155                  306.17260871874873
0.0025                    -0.0145                  306.08762450014166
0.0025                    -0.0135                  306.0026402815346
0.0025                    -0.0125                  305.72304815289715
0.0025                    -0.0115                  305.41269906462367
0.0025                    -0.0105                  305.10234997635024
0.0025                    -0.0095                  304.4490919004481
0.0025                    -0.0085                  303.7923450427934
0.0025                    -0.0075                  303.1355981851387
0.0025                    -0.0065                  302.0872803869729
0.0025                    -0.0055                  300.9762745315545
0.0025                    -0.0045                  299.8652686761361
0.0025                    -0.0035                  298.6589196050081
0.0025                    -0.0025                  297.40508184376193
0.0025                    -0.0015                  296.13808983169815
0.0025                    -5.0E-4                  295.1615411753989
0.0025                    5.0E-4                   294.23408680727016
0.0025                    0.0015                   293.50238939485547
0.0025                    0.0025                   293.35059602733855
0.0025                    0.0035                   293.19880265982164
0.0025                    0.0045                   293.1395368235333
0.0025                    0.0055                   293.1469183756586
0.0025                    0.0065                   293.1542999277838
0.0025                    0.0075                   293.15549520663524
0.0025                    0.0085                   293.1549959974078
0.0025                    0.0095                   293.15484891248377
0.0025                    0.0105                   293.16370910267136
0.0025                    0.0115                   293.17256929285895
0.0025                    0.0125                   293.5115309856136
0.0025                    0.0135                   294.1844135802427
0.0025                    0.0145                   294.85729617487175
0.0025                    0.0155                   297.2566559219374
0.0025                    0.0165                   299.8747008810649
0.0025                    0.0175                   302.16979977026733
0.0025                    0.0185                   304.03818530263953
0.0025                    0.0195                   305.9065708350118
0.0025                    0.0205                   307.4790630249989
0.0025                    0.0215                   308.91873626200595
0.0025                    0.0225                   310.4012826283708
0.0025                    0.0235                   311.25106644140465
0.0025                    0.0245                   311.90043309528414
0.0025                    0.0255                   312.56824903254784
0.0025                    0.0265                   313.14826640346325
0.0025                    0.0275                   313.7282837743787
0.0025                    0.0285                   314.68100121482723
0.0025                    0.0295                   316.2045394695813
0.0025                    0.0305                   317.6780115981828
0.0025                    0.0315                   319.1279485878164
0.0035                    -0.0315                  316.64461432605646
0.0035                    -0.0305                  314.51262721590655
0.0035                    -0.0295                  312.40946519526324
0.0035                    -0.0285                  310.1270324823242
0.0035                    -0.0275                  309.1775411233259
0.0035                    -0.0265                  308.2498571860128
0.0035                    -0.0255                  307.4294749820616
0.0035                    -0.0245                  307.3698233528628
0.0035                    -0.0235                  307.1915233525412
0.0035                    -0.0225                  306.9529702198271
0.0035                    -0.0215                  307.1539116302041
0.0035                    -0.0205                  307.1519540675837
0.0035                    -0.0195                  307.1252401744203
0.0035                    -0.0185                  307.4811345002905
0.0035                    -0.0175                  307.53911037595765
0.0035                    -0.0165                  307.53326057744295
0.0035                    -0.0155                  307.6462799317765
0.0035                    -0.0145                  307.59593511422634
0.0035                    -0.0135                  307.3658464954371
0.0035                    -0.0125                  306.8352817432506
0.0035                    -0.0115                  306.5067238123183
0.0035                    -0.0105                  305.880029807046
0.0035                    -0.0095                  304.7968909991141
0.0035                    -0.0085                  304.14014414145936
0.0035                    -0.0075                  303.2686213858136
0.0035                    -0.0065                  302.1749896431068
0.0035                    -0.0055                  301.0639837876884
0.0035                    -0.0045                  300.01282699547914
0.0035                    -0.0035                  298.9592322841157
0.0035                    -0.0025                  297.70539452286954
0.0035                    -0.0015                  296.3176074054875
0.0035                    -5.0E-4                  295.048638720136
0.0035                    5.0E-4                   294.1211843520074
0.0035                    0.0015                   293.6025749409682
0.0035                    0.0025                   293.3078043239056
0.0035                    0.0035                   293.1827848732389
0.0035                    0.0045                   293.1460287295486
0.0035                    0.0055                   293.1474783862461
0.0035                    0.0065                   293.1540594770091
0.0035                    0.0075                   293.15885879968636
0.0035                    0.0085                   293.158359590459
0.0035                    0.0095                   293.1566562239177
0.0035                    0.0105                   293.16010383385293
0.0035                    0.0115                   293.22635432477307
0.0035                    0.0125                   293.5198554418657
0.0035                    0.0135                   294.1309285474757
0.0035                    0.0145                   295.45152400510597
0.0035                    0.0155                   297.44632758629564
0.0035                    0.0165                   300.0643725454231
0.0035                    0.0175                   301.7184628899123
0.0035                    0.0185                   303.46286387853803
0.0035                    0.0195                   305.20759015263855
0.0035                    0.0205                   306.69452216208424
0.0035                    0.0215                   308.1368290211067
0.0035                    0.0225                   309.9114167850494
0.0035                    0.0235                   311.41788215117936
0.0035                    0.0245                   312.0746586739102
0.0035                    0.0255                   312.8229593524076
0.0035                    0.0265                   313.467605166952
0.0035                    0.0275                   314.08284068138653
0.0035                    0.0285                   314.73718804223955
0.0035                    0.0295                   315.9697379966557
0.0035                    0.0305                   317.4222755256933
0.0035                    0.0315                   318.92665689762987
0.0045                    -0.0315                  315.2000401041711
0.0045                    -0.0305                  312.94831943377307
0.0045                    -0.0295                  310.73423326959477
0.0045                    -0.0285                  309.7437512551747
0.0045                    -0.0275                  308.79328026662836
0.0045                    -0.0265                  307.8428092780821
0.0045                    -0.0255                  307.54829032245857
0.0045                    -0.0245                  307.48863869325976
0.0045                    -0.0235                  307.42898706406095
0.0045                    -0.0225                  307.5062522324497
0.0045                    -0.0215                  307.7071936428267
0.0045                    -0.0205                  307.89393336471585
0.0045                    -0.0195                  308.16575705397736
0.0045                    -0.0185                  308.52165137984764
0.0045                    -0.0175                  308.8246453868688
0.0045                    -0.0165                  308.9213961397874
0.0045                    -0.0155                  309.03441549412105
0.0045                    -0.0145                  309.104245728311
0.0045                    -0.0135                  308.59375922480933
0.0045                    -0.0125                  308.06319447262285
0.0045                    -0.0115                  307.5747560797541
0.0045                    -0.0105                  306.48868348011854
0.0045                    -0.0095                  305.40261088048305
0.0045                    -0.0085                  304.43650425529825
0.0045                    -0.0075                  303.34466567605097
0.0045                    -0.0065                  302.25282709680374
0.0045                    -0.0055                  301.17289680347307
0.0045                    -0.0045                  300.1646758451032
0.0045                    -0.0035                  299.1564548867334
0.0045                    -0.0025                  297.94421669659476
0.0045                    -0.0015                  296.4971249792769
0.0045                    -5.0E-4                  295.050033261959
0.0045                    5.0E-4                   294.2485608523401
0.0045                    0.0015                   293.7534211665342
0.0045                    0.0025                   293.2650126204727
0.0045                    0.0035                   293.208468843554
0.0045                    0.0045                   293.17171269986363
0.0045                    0.0055                   293.14784792232814
0.0045                    0.0065                   293.15375610832734
0.0045                    0.0075                   293.15966429432643
0.0045                    0.0085                   293.16109984103707
0.0045                    0.0095                   293.15921329856786
0.0045                    0.0105                   293.15732675609854
0.0045                    0.0115                   293.3876074615963
0.0045                    0.0125                   293.68110857868896
0.0045                    0.0135                   294.2308895586631
0.0045                    0.0145                   296.07432714118875
0.0045                    0.0155                   297.91776472371436
0.0045                    0.0165                   299.7200174403202
0.0045                    0.0175                   301.29991488635187
0.0045                    0.0185                   302.8875424544365
0.0045                    0.0195                   304.4005447735866
0.0045                    0.0205                   305.8874767830323
0.0045                    0.0215                   307.5069266210311
0.0045                    0.0225                   309.4215509417282
0.0045                    0.0235                   311.3361752624253
0.0045                    0.0245                   312.3033556867937
0.0045                    0.0255                   313.05165636529114
0.0045                    0.0265                   313.7959259727089
0.0045                    0.0275                   314.45071171206314
0.0045                    0.0285                   315.10549745141725
0.0045                    0.0295                   315.76824912269547
0.0045                    0.0305                   317.33275689983736
0.0045                    0.0315                   318.91656710791403
0.0055                    -0.0315                  313.75546588228565
0.0055                    -0.0305                  312.04497780660324
0.0055                    -0.0295                  310.4008904503643
0.0055                    -0.0285                  309.45677906354564
0.0055                    -0.0275                  308.5064785675314
0.0055                    -0.0265                  307.9110797811827
0.0055                    -0.0255                  307.8991834762948
0.0055                    -0.0245                  307.8208376405872
0.0055                    -0.0235                  307.93820835984286
0.0055                    -0.0225                  308.3752973395977
0.0055                    -0.0215                  308.577392062535
0.0055                    -0.0205                  309.02479663739547
0.0055                    -0.0195                  309.5911718036507
0.0055                    -0.0185                  309.9462277252288
0.0055                    -0.0175                  310.2276530609044
0.0055                    -0.0165                  310.3911252433348
0.0055                    -0.0155                  310.50323105865493
0.0055                    -0.0145                  310.15158491160616
0.0055                    -0.0135                  309.56475456371425
0.0055                    -0.0125                  309.0353916091158
0.0055                    -0.0115                  307.78208778864797
0.0055                    -0.0105                  306.53560886647836
0.0055                    -0.0095                  305.4506540840297
0.0055                    -0.0085                  303.9867715294153
0.0055                    -0.0075                  302.7907922912033
0.0055                    -0.0065                  301.6983999444358
0.0055                    -0.0055                  300.7283426706345
0.0055                    -0.0045                  299.72451631443056
0.0055                    -0.0035                  298.7129104260599
0.0055                    -0.0025                  297.8418800631106
0.0055                    -0.0015                  296.39196955926434
0.0055                    -5.0E-4                  295.0250875956313
0.0055                    5.0E-4                   294.165188798436
0.0055                    0.0015                   293.66733831508765
0.0055                    0.0025                   293.3110684349294
0.0055                    0.0035                   293.2022029557292
0.0055                    0.0045                   293.16515797666364
0.0055                    0.0055                   293.1525788643122
0.0055                    0.0065                   293.15601423494206
0.0055                    0.0075                   293.16175870143474
0.0055                    0.0085                   293.16220430717885
0.0055                    0.0095                   293.1603127926248
0.0055                    0.0105                   293.2052861565484
0.0055                    0.0115                   293.39178700319303
0.0055                    0.0125                   293.6852245819708
0.0055                    0.0135                   294.5293938136563
0.0055                    0.0145                   296.1435070641744
0.0055                    0.0155                   297.99410997162806
0.0055                    0.0165                   299.9480747506456
0.0055                    0.0175                   301.53455499873485
0.0055                    0.0185                   302.5571407518245
0.0055                    0.0195                   303.49602179254816
0.0055                    0.0205                   304.9828652917756
0.0055                    0.0215                   306.661933291144
0.0055                    0.0225                   308.5572150959409
0.0055                    0.0235                   310.6350919318479
0.0055                    0.0245                   312.55863239553264
0.0055                    0.0255                   313.3081522297775
0.0055                    0.0265                   314.106584282558
0.0055                    0.0275                   314.85736855196967
0.0055                    0.0285                   315.5121542913238
0.0055                    0.0295                   316.19544102668823
0.0055                    0.0305                   317.51363528390647
0.0055                    0.0315                   318.90647731819826
0.0065                    -0.0315                  313.3646624910493
0.0065                    -0.0305                  311.6975518156449
0.0065                    -0.0295                  310.108346019894
0.0065                    -0.0285                  309.1642346330753
0.0065                    -0.0275                  308.2196768684344
0.0065                    -0.0265                  308.225470818365
0.0065                    -0.0255                  308.2319091531378
0.0065                    -0.0245                  308.1763511970854
0.0065                    -0.0235                  308.6598109924513
0.0065                    -0.0225                  309.220031606031
0.0065                    -0.0215                  309.57279342158165
0.0065                    -0.0205                  310.3080398882641
0.0065                    -0.0195                  311.04328635494653
0.0065                    -0.0185                  311.4324337041322
0.0065                    -0.0175                  311.65173910691925
0.0065                    -0.0165                  311.87104450970634
0.0065                    -0.0155                  311.81799262034883
0.0065                    -0.0145                  311.14110286694415
0.0065                    -0.0135                  310.4645971044946
0.0065                    -0.0125                  309.62280338081064
0.0065                    -0.0115                  307.994870473307
0.0065                    -0.0105                  306.4190936002674
0.0065                    -0.0095                  305.1458610317823
0.0065                    -0.0085                  303.5514224240327
0.0065                    -0.0075                  302.0517178072766
0.0065                    -0.0065                  301.0264836018689
0.0065                    -0.0055                  300.081276670211
0.0065                    -0.0045                  299.1173057979011
0.0065                    -0.0035                  298.1920471630726
0.0065                    -0.0025                  297.3319861988832
0.0065                    -0.0015                  296.2148891916571
0.0065                    -5.0E-4                  295.1506666407388
0.0065                    5.0E-4                   294.1946036559501
0.0065                    0.0015                   293.54053639343897
0.0065                    0.0025                   293.37336221336943
0.0065                    0.0035                   293.20618803329984
0.0065                    0.0045                   293.1634520010358
0.0065                    0.0055                   293.1604027689018
0.0065                    0.0065                   293.1586845606739
0.0065                    0.0075                   293.1612640826543
0.0065                    0.0085                   293.1617674021047
0.0065                    0.0095                   293.1612007539552
0.0065                    0.0105                   293.28165058389277
0.0065                    0.0115                   293.4103918287671