% Model:              SIMBench260525.mph
% Version:            COMSOL 6.2.0.339
% Date:               May 27 2026, 17:59
% Dimension:          2
% Nodes:              4096
% Expressions:        1
% Description:        温度
% Length unit:        m
% x                       y                        T (K)
5.0E-4                    -0.0315                  493.18556934973014
5.0E-4                    -0.0305                  491.2021631554889
5.0E-4                    -0.0295                  489.2056026285079
5.0E-4                    -0.0285                  484.9417766677143
5.0E-4                    -0.0275                  479.7512024493683
5.0E-4                    -0.0265                  474.3778256252981
5.0E-4                    -0.0255                  467.54558956605024
5.0E-4                    -0.0245                  460.69487411893596
5.0E-4                    -0.0235                  453.734752443158
5.0E-4                    -0.0225                  446.9935633135654
5.0E-4                    -0.0215                  440.5721148534158
5.0E-4                    -0.0205                  434.5141311938043
5.0E-4                    -0.0195                  429.74565059741496
5.0E-4                    -0.0185                  425.18699905808523
5.0E-4                    -0.0175                  421.3743365641972
5.0E-4                    -0.0165                  418.5851411811594
5.0E-4                    -0.0155                  415.8292886348591
5.0E-4                    -0.0145                  413.76746537800125
5.0E-4                    -0.0135                  411.92810473060615
5.0E-4                    -0.0125                  410.08874408321105
5.0E-4                    -0.0115                  408.8021547263815
5.0E-4                    -0.0105                  407.32361275930157
5.0E-4                    -0.0095                  405.84507079222163
5.0E-4                    -0.0085                  404.8138305150512
5.0E-4                    -0.0075                  403.4954465771675
5.0E-4                    -0.0065                  402.20767458504855
5.0E-4                    -0.0055                  401.09279649999667
5.0E-4                    -0.0045                  399.8416499125718
5.0E-4                    -0.0035                  398.51571134539023
5.0E-4                    -0.0025                  397.10346689019025
5.0E-4                    -0.0015                  395.7862287564726
5.0E-4                    -5.0E-4                  394.0465299779899
5.0E-4                    5.0E-4                   391.36983725483356
5.0E-4                    0.0015                   388.62274900803834
5.0E-4                    0.0025                   384.5505430536232
5.0E-4                    0.0035                   367.67957013580906
5.0E-4                    0.0045                   349.6807683108173
5.0E-4                    0.0055                   335.0158445876534
5.0E-4                    0.0065                   324.6940129073146
5.0E-4                    0.0075                   314.3721812269758
5.0E-4                    0.0085                   303.0989666883285
5.0E-4                    0.0095                   298.5070337317827
5.0E-4                    0.0105                   294.22624996554663
5.0E-4                    0.0115                   293.1977359853
5.0E-4                    0.0125                   293.12613116149225
5.0E-4                    0.0135                   293.1170651765198
5.0E-4                    0.0145                   293.13797506309913
5.0E-4                    0.0155                   293.1534019607262
5.0E-4                    0.0165                   293.15982451572717
5.0E-4                    0.0175                   293.1527460807089
5.0E-4                    0.0185                   293.14349201295215
5.0E-4                    0.0195                   293.1599967335996
5.0E-4                    0.0205                   293.20749020289855
5.0E-4                    0.0215                   293.7826826482089
5.0E-4                    0.0225                   296.1436165498624
5.0E-4                    0.0235                   298.63656540052204
5.0E-4                    0.0245                   305.2513466357039
5.0E-4                    0.0255                   313.15381873681065
5.0E-4                    0.0265                   320.46606592793773
5.0E-4                    0.0275                   324.6095694288367
5.0E-4                    0.0285                   328.73702774747085
5.0E-4                    0.0295                   331.610284700776
5.0E-4                    0.0305                   332.66082196872316
5.0E-4                    0.0315                   333.68794907301515
0.0015                    -0.0315                  492.39097832659365
0.0015                    -0.0305                  491.05361397392784
0.0015                    -0.0295                  488.2667068542574
0.0015                    -0.0285                  484.0069590081541
0.0015                    -0.0275                  479.2141744301562
0.0015                    -0.0265                  472.77895191762127
0.0015                    -0.0255                  465.9638165862366
0.0015                    -0.0245                  459.1177105659651
0.0015                    -0.0235                  451.87631760052517
0.0015                    -0.0225                  444.6194298196618
0.0015                    -0.0215                  438.2081198050938
0.0015                    -0.0205                  432.73189530647284
0.0015                    -0.0195                  427.4126747446371
0.0015                    -0.0185                  423.07283796437895
0.0015                    -0.0175                  419.9275930891268
0.0015                    -0.0165                  416.9048296059203
0.0015                    -0.0155                  414.46004866789616
0.0015                    -0.0145                  412.75018570660745
0.0015                    -0.0135                  410.98121466360544
0.0015                    -0.0125                  409.482948228789
0.0015                    -0.0115                  408.4289831110957
0.0015                    -0.0105                  407.1214465931168
0.0015                    -0.0095                  406.009167790616
0.0015                    -0.0085                  405.1743239901846
0.0015                    -0.0075                  403.9819663246926
0.0015                    -0.0065                  402.89742096981183
0.0015                    -0.0055                  401.910376771915
0.0015                    -0.0045                  400.690746563712
0.0015                    -0.0035                  399.16946457477115
0.0015                    -0.0025                  397.6035252893824
0.0015                    -0.0015                  396.28628715566464
0.0015                    -5.0E-4                  393.8625243395876
0.0015                    5.0E-4                   391.37002971364177
0.0015                    0.0015                   388.30455577522986
0.0015                    0.0025                   382.9975903265645
0.0015                    0.0035                   373.82163367010287
0.0015                    0.0045                   357.12651225857906
0.0015                    0.0055                   343.92356031651394
0.0015                    0.0065                   332.02028254194045
0.0015                    0.0075                   320.0652919317861
0.0015                    0.0085                   305.8616870671784
0.0015                    0.0095                   298.20063892599853
0.0015                    0.0105                   295.3327614418448
0.0015                    0.0115                   293.11265218968805
0.0015                    0.0125                   293.04189303266367
0.0015                    0.0135                   293.10582517250924
0.0015                    0.0145                   293.15386945106604
0.0015                    0.0155                   293.166592869301
0.0015                    0.0165                   293.175071802446
0.0015                    0.0175                   293.1731371160688
0.0015                    0.0185                   293.15416832373455
0.0015                    0.0195                   293.1322496409519
0.0015                    0.0205                   293.28506763341204
0.0015                    0.0215                   294.4408904063657
0.0015                    0.0225                   296.09208571743807
0.0015                    0.0235                   300.8244943182311
0.0015                    0.0245                   308.19677841073167
0.0015                    0.0255                   315.93642942298345
0.0015                    0.0265                   320.82168751749174
0.0015                    0.0275                   324.98454178862
0.0015                    0.0285                   328.6639741040226
0.0015                    0.0295                   330.30620456069164
0.0015                    0.0305                   331.59821472354787
0.0015                    0.0315                   332.45428569590695
0.0025                    -0.0315                  491.59638730345705
0.0025                    -0.0305                  489.86884201947055
0.0025                    -0.0295                  487.04396639837637
0.0025                    -0.0285                  482.78756297052325
0.0025                    -0.0275                  477.5367697095652
0.0025                    -0.0265                  470.82483877418815
0.0025                    -0.0255                  464.08344243974176
0.0025                    -0.0245                  456.907170928321
0.0025                    -0.0235                  449.6586273744834
0.0025                    -0.0225                  442.41008382064564
0.0025                    -0.0215                  436.21917367556966
0.0025                    -0.0205                  430.7379867000245
0.0025                    -0.0195                  425.2567997244795
0.0025                    -0.0185                  421.6439603869102
0.0025                    -0.0175                  418.49867603390635
0.0025                    -0.0165                  415.3533916809025
0.0025                    -0.0155                  413.6743845309244
0.0025                    -0.0145                  411.96138928247876
0.0025                    -0.0135                  410.34442939337697
0.0025                    -0.0125                  409.42682307436155
0.0025                    -0.0115                  408.3661239633766
0.0025                    -0.0105                  407.55085143170277
0.0025                    -0.0095                  406.7127412673158
0.0025                    -0.0085                  405.86990391015195
0.0025                    -0.0075                  405.10386698236385
0.0025                    -0.0065                  404.1109105850183
0.0025                    -0.0055                  403.1179541876727
0.0025                    -0.0045                  401.7848645508064
0.0025                    -0.0035                  400.21132969999604
0.0025                    -0.0025                  398.6377948491857
0.0025                    -0.0015                  396.1546035843518
0.0025                    -5.0E-4                  393.71149918942774
0.0025                    5.0E-4                   391.26839479450376
0.0025                    0.0015                   386.51109360952876
0.0025                    0.0025                   381.20060208540406
0.0025                    0.0035                   375.89011056127936
0.0025                    0.0045                   364.91060532917754
0.0025                    0.0055                   351.6976033039017
0.0025                    0.0065                   338.4097488497888
0.0025                    0.0075                   324.00523435549974
0.0025                    0.0085                   309.7763147956923
0.0025                    0.0095                   298.3891377189964
0.0025                    0.0105                   296.1628212228245
0.0025                    0.0115                   293.93650472665263
0.0025                    0.0125                   293.03028583778286
0.0025                    0.0135                   293.094209789214
0.0025                    0.0145                   293.1581337406451
0.0025                    0.0155                   293.18034088409865
0.0025                    0.0165                   293.18886210023055
0.0025                    0.0175                   293.18715717109245
0.0025                    0.0185                   293.1639715324667
0.0025                    0.0195                   293.140785893841
0.0025                    0.0205                   293.7704096503354
0.0025                    0.0215                   294.9216618559843
0.0025                    0.0225                   296.3455479810313
0.0025                    0.0235                   303.16939690566846
0.0025                    0.0245                   310.503740946603
0.0025                    0.0255                   317.1723341342362
0.0025                    0.0265                   321.35997485563416
0.0025                    0.0275                   325.5476155770321
0.0025                    0.0285                   327.25491060486513
0.0025                    0.0295                   328.86835529294814
0.0025                    0.0305                   330.189249604636
0.0025                    0.0315                   331.2206223187987
0.0035                    -0.0315                  490.0127991102022
0.0035                    -0.0305                  488.05927644599547
0.0035                    -0.0295                  485.80523381008584
0.0035                    -0.0285                  481.0116933571179
0.0035                    -0.0275                  474.6515352251053
0.0035                    -0.0265                  468.15253800790595
0.0035                    -0.0255                  461.2206540050415
0.0035                    -0.0245                  453.37008352597263
0.0035                    -0.0235                  445.92329158431176
0.0035                    -0.0225                  439.03698284630053
0.0035                    -0.0215                  433.225223714852
0.0035                    -0.0205                  427.6859639903286
0.0035                    -0.0195                  423.232335846387
0.0035                    -0.0185                  420.29581806827593
0.0035                    -0.0175                  417.15603057997964
0.0035                    -0.0165                  415.1833595712644
0.0035                    -0.0155                  414.06394883412185
0.0035                    -0.0145                  412.3509535856762
0.0035                    -0.0135                  411.77129211921624
0.0035                    -0.0125                  411.4500004881895
0.0035                    -0.0115                  410.38930137720456
0.0035                    -0.0105                  410.39216553459624
0.0035                    -0.0095                  410.2077894063332
0.0035                    -0.0085                  409.36495204916935
0.0035                    -0.0075                  409.02214203540245
0.0035                    -0.0065                  408.3466284594709
0.0035                    -0.0055                  407.2843591992038
0.0035                    -0.0045                  405.27685639745766
0.0035                    -0.0035                  403.5616933258226
0.0035                    -0.0025                  401.3535987215955
0.0035                    -0.0015                  396.62945923937906
0.0035                    -5.0E-4                  393.7570719236762
0.0035                    5.0E-4                   389.92509526162644
0.0035                    0.0015                   383.3729073785795
0.0035                    0.0025                   377.99837253738724
0.0035                    0.0035                   372.288165230009
0.0035                    0.0045                   365.5115516878102
0.0035                    0.0055                   352.29854966253436
0.0035                    0.0065                   337.66111742344316
0.0035                    0.0075                   322.58359366488133
0.0035                    0.0085                   308.35467410507397
0.0035                    0.0095                   300.2015773527466
0.0035                    0.0105                   295.6373168012806
0.0035                    0.0115                   293.76940230595466
0.0035                    0.0125                   293.11005692545564
0.0035                    0.0135                   293.0808961714393
0.0035                    0.0145                   293.1471316538267
0.0035                    0.0155                   293.20254964813284
0.0035                    0.0165                   293.21107086426474
0.0035                    0.0175                   293.1924433836462
0.0035                    0.0185                   293.1703030421725
0.0035                    0.0195                   293.2713653524775
0.0035                    0.0205                   293.64614619349874
0.0035                    0.0215                   294.75543672219004
0.0035                    0.0225                   297.9865763647346
0.0035                    0.0235                   303.1302150086409
0.0035                    0.0245                   310.41899733690207
0.0035                    0.0255                   317.14674927249155
0.0035                    0.0265                   322.30978572726633
0.0035                    0.0275                   324.96873084829895
0.0035                    0.0285                   325.92991969308116
0.0035                    0.0295                   327.3250025337147
0.0035                    0.0305                   328.5235700535201
0.0035                    0.0315                   329.72011449964714
0.0045                    -0.0315                  488.4656421239252
0.0045                    -0.0305                  486.4396795692796
0.0045                    -0.0295                  484.37871872992315
0.0045                    -0.0285                  478.1842254101859
0.0045                    -0.0275                  471.798397024854
0.0045                    -0.0265                  465.4125686395222
0.0045                    -0.0255                  457.8425000922756
0.0045                    -0.0245                  449.9919296132067
0.0045                    -0.0235                  442.1879557941401
0.0045                    -0.0225                  436.18773308662935
0.0045                    -0.0215                  430.3759739551807
0.0045                    -0.0205                  424.7014361720262
0.0045                    -0.0195                  421.7649183939151
0.0045                    -0.0185                  418.82840061580396
0.0045                    -0.0175                  416.21344992495335
0.0045                    -0.0165                  415.170579872752
0.0045                    -0.0155                  414.12770982055054
0.0045                    -0.0145                  413.2643921781761
0.0045                    -0.0135                  413.1981548450554
0.0045                    -0.0125                  413.1319175119347
0.0045                    -0.0115                  412.98695883879634
0.0045                    -0.0105                  413.2334796374897
0.0045                    -0.0095                  413.4800004361831
0.0045                    -0.0085                  413.15755172090945
0.0045                    -0.0075                  412.84690856020654
0.0045                    -0.0065                  412.5362653995036
0.0045                    -0.0055                  410.89667459021916
0.0045                    -0.0045                  408.88917178847294
0.0045                    -0.0035                  406.9120569516492
0.0045                    -0.0025                  402.7797928635457
0.0045                    -0.0015                  398.0556533813293
0.0045                    -5.0E-4                  393.8026446579248
0.0045                    5.0E-4                   387.47695998164767
0.0045                    0.0015                   380.92477209860067
0.0045                    0.0025                   374.7182813590303
0.0045                    0.0035                   368.5889411805858
0.0045                    0.0045                   362.4596010021413
0.0045                    0.0055                   352.34238806205616
0.0045                    0.0065                   336.9124859970975
0.0045                    0.0075                   321.4825839321388
0.0045                    0.0085                   310.37869270294493
0.0045                    0.0095                   302.72858814460415
0.0045                    0.0105                   295.1118123797367
0.0045                    0.0115                   294.16604316264426
0.0045                    0.0125                   293.50669778214524
0.0045                    0.0135                   293.0681651606833
0.0045                    0.0145                   293.13621358941896
0.0045                    0.0155                   293.2042620181547
0.0045                    0.0165                   293.21819290074467
0.0045                    0.0175                   293.1974441765492
0.0045                    0.0185                   293.17663455187835
0.0045                    0.0195                   293.5171930769452
0.0045                    0.0205                   293.8919739179663
0.0045                    0.0215                   295.52876548113466
0.0045                    0.0225                   299.6276047484379
0.0045                    0.0235                   303.7264440157411
0.0045                    0.0245                   310.0005130923471
0.0045                    0.0255                   316.7282650279367
0.0045                    0.0265                   322.92858809621896
0.0045                    0.0275                   323.895316643882
0.0045                    0.0285                   324.86204519154506
0.0045                    0.0295                   325.8248606409697
0.0045                    0.0305                   327.1080273615347
0.0045                    0.0315                   328.42410259761067
0.0055                    -0.0315                  486.9184851376483
0.0055                    -0.0305                  484.67940350085416
0.0055                    -0.0295                  482.2937435113761
0.0055                    -0.0285                  476.0056500447448
0.0055                    -0.0275                  469.6231903736757
0.0055                    -0.0265                  462.6213588764721
0.0055                    -0.0255                  454.7906455555217
0.0055                    -0.0245                  446.91896911215184
0.0055                    -0.0235                  439.7932461300402
0.0055                    -0.0225                  433.78490208244455
0.0055                    -0.0215                  427.97748179829074
0.0055                    -0.0205                  424.021194076975
0.0055                    -0.0195                  421.09634447400117
0.0055                    -0.0185                  418.1592341934808
0.0055                    -0.0175                  417.1270848281927
0.0055                    -0.0165                  416.18321395853434
0.0055                    -0.0155                  415.13691995425785
0.0055                    -0.0145                  415.77233647498457
0.0055                    -0.0135                  415.76364731810963
0.0055                    -0.0125                  415.782477348383
0.0055                    -0.0115                  416.9380561502053
0.0055                    -0.0105                  417.176841874018
0.0055                    -0.0095                  417.4440989884403
0.0055                    -0.0085                  417.69734307265253
0.0055                    -0.0075                  417.3831573066837
0.0055                    -0.0065                  416.441666018276
0.0055                    -0.0055                  414.1847997418548
0.0055                    -0.0045                  412.17831851877713
0.0055                    -0.0035                  408.2992503478253
0.0055                    -0.0025                  402.69500319922133
0.0055                    -0.0015                  397.9732143844038
0.0055                    -5.0E-4                  391.1144022484053
0.0055                    5.0E-4                   383.7681798827035
0.0055                    0.0015                   377.20858220426743
0.0055                    0.0025                   370.56404870739414
0.0055                    0.0035                   364.2910341368022
0.0055                    0.0045                   358.1588238892409
0.0055                    0.0055                   351.06524600095
0.0055                    0.0065                   336.32663587279575
0.0055                    0.0075                   321.25622600900147
0.0055                    0.0085                   309.4876136373412
0.0055                    0.0095                   301.8127508726436
0.0055                    0.0105                   296.0466441976065
0.0055                    0.0115                   294.0647428056255
0.0055                    0.0125                   293.40059761813905
0.0055                    0.0135                   293.1253392561338
0.0055                    0.0145                   293.14406107151325
0.0055                    0.0155                   293.2092066095264
0.0055                    0.0165                   293.2341394512718
0.0055                    0.0175                   293.2135132748634
0.0055                    0.0185                   293.26122208684313
0.0055                    0.0195                   293.5012471401285
0.0055                    0.0205                   293.8746657494391
0.0055                    0.0215                   295.4270394617393
0.0055                    0.0225                   299.30197714988117
0.0055                    0.0235                   304.2328841275537
0.0055                    0.0245                   310.8714073917122
0.0055                    0.0255                   317.65828988780686
0.0055                    0.0265                   321.73031539791873
0.0055                    0.0275                   323.31189778004136
0.0055                    0.0285                   324.2786263277044
0.0055                    0.0295                   325.18100925033536
0.0055                    0.0305                   326.1376026250792
0.0055                    0.0315                   327.12809069557426
0.0065                    -0.0315                  485.0769726068294
0.0065                    -0.0305                  482.72583858678104
0.0065                    -0.0295                  480.032511257653
0.0065                    -0.0285                  473.7444177910219
0.0065                    -0.0275                  467.3684002009344
0.0065                    -0.0265                  459.556464303634
0.0065                    -0.0255                  451.74452840633364
0.0065                    -0.0245                  443.89449187675456
0.0065                    -0.0235                  437.709710037685
0.0065                    -0.0225                  431.5249281986156
0.0065                    -0.0215                  426.38263353532415
0.0065                    -0.0205                  423.4749277012418
0.0065                    -0.0195                  420.56722186715945
0.0065                    -0.0185                  418.65824720464013
0.0065                    -0.0175                  418.0568477090585
0.0065                    -0.0165                  417.3833608712304
0.0065                    -0.0155                  417.3749262543287
0.0065                    -0.0145                  418.09407849907893
0.0065                    -0.0135                  418.5592493945801
0.0065                    -0.0125                  419.3963160954976
0.0065                    -0.0115                  420.6100283259767
0.0065                    -0.0105                  421.372407276999
0.0065                    -0.0095                  421.73581014505936
0.0065                    -0.0085                  422.127454177575
0.0065                    -0.0075                  422.097788044246
0.0065                    -0.0065                  419.8700362261726
0.0065                    -0.0055                  417.48910457403633
0.0065                    -0.0045                  415.1831025517491
0.0065                    -0.0035                  408.8021189391034
0.0065                    -0.0025                  402.4211353264578
0.0065                    -0.0015                  396.8116501802731
0.0065                    -5.0E-4                  388.26428307045
0.0065                    5.0E-4                   379.72251114583696
0.0065                    0.0015                   373.12490064969586
0.0065                    0.0025                   366.44481272679195
0.0065                    0.0035                   359.84538602213286
0.0065                    0.0045                   353.1798770380225
0.0065                    0.0055                   345.93623770306755
0.0065                    0.0065                   335.777978394435
0.0065                    0.0075                   322.41738529456416
0.0065                    0.0085                   309.82196067994914
0.0065                    0.0095                   300.1888299760484
0.0065                    0.0105                   297.1885650943235
0.0065                    0.0115                   294.1903931232313