% Model:              SIMBench260525.mph
% Version:            COMSOL 6.2.0.339
% Date:               May 27 2026, 17:51
% Dimension:          2
% Nodes:              4096
% Expressions:        1
% Description:        温度
% Length unit:        m
% x                       y                        T (K)
5.0E-4                    -0.0315                  321.56204248380055
5.0E-4                    -0.0305                  319.8714058405544
5.0E-4                    -0.0295                  318.17295514205284
5.0E-4                    -0.0285                  315.46415895724715
5.0E-4                    -0.0275                  313.009039114045
5.0E-4                    -0.0265                  310.5539192708428
5.0E-4                    -0.0255                  308.98599318089407
5.0E-4                    -0.0245                  307.5243776261371
5.0E-4                    -0.0235                  306.06276207138006
5.0E-4                    -0.0225                  305.4705189948745
5.0E-4                    -0.0215                  304.5954338884102
5.0E-4                    -0.0205                  303.72034878194575
5.0E-4                    -0.0195                  303.411340229319
5.0E-4                    -0.0185                  302.6708589952783
5.0E-4                    -0.0175                  301.93037776123754
5.0E-4                    -0.0165                  301.62682305035753
5.0E-4                    -0.0155                  300.85496471393037
5.0E-4                    -0.0145                  300.0831063775033
5.0E-4                    -0.0135                  299.34321154394655
5.0E-4                    -0.0125                  298.13301938787964
5.0E-4                    -0.0115                  296.9228272318127
5.0E-4                    -0.0105                  295.64745821450265
5.0E-4                    -0.0095                  295.1004511024158
5.0E-4                    -0.0085                  294.5534439903288
5.0E-4                    -0.0075                  293.54894866133293
5.0E-4                    -0.0065                  293.44882015878346
5.0E-4                    -0.0055                  293.348691656234
5.0E-4                    -0.0045                  293.35402570708413
5.0E-4                    -0.0035                  293.41390522373194
5.0E-4                    -0.0025                  293.47378474037976
5.0E-4                    -0.0015                  293.2653227654739
5.0E-4                    -5.0E-4                  293.19773537361016
5.0E-4                    5.0E-4                   293.2046531301074
5.0E-4                    0.0015                   293.28594512899105
5.0E-4                    0.0025                   293.51743915417364
5.0E-4                    0.0035                   293.44863199759067
5.0E-4                    0.0045                   293.3798248410077
5.0E-4                    0.0055                   293.38843404334096
5.0E-4                    0.0065                   293.437937421383
5.0E-4                    0.0075                   293.48744079942514
5.0E-4                    0.0085                   294.46942876218424
5.0E-4                    0.0095                   294.93739475122686
5.0E-4                    0.0105                   295.40536074026943
5.0E-4                    0.0115                   296.7517395511702
5.0E-4                    0.0125                   298.0748117750024
5.0E-4                    0.0135                   299.39788399883463
5.0E-4                    0.0145                   300.181310085675
5.0E-4                    0.0155                   300.96449280183083
5.0E-4                    0.0165                   301.7476755179867
5.0E-4                    0.0175                   302.0369307270462
5.0E-4                    0.0185                   302.73222944363283
5.0E-4                    0.0195                   303.4275281602195
5.0E-4                    0.0205                   303.702689653347
5.0E-4                    0.0215                   304.5859490334633
5.0E-4                    0.0225                   305.46920841357957
5.0E-4                    0.0235                   306.0374939468511
5.0E-4                    0.0245                   307.3300468818493
5.0E-4                    0.0255                   308.62259981684736
5.0E-4                    0.0265                   309.90561486138006
5.0E-4                    0.0275                   312.1008170100332
5.0E-4                    0.0285                   314.2960191586865
5.0E-4                    0.0295                   316.63313982719535
5.0E-4                    0.0305                   318.22429842167134
5.0E-4                    0.0315                   319.81545701614726
0.0015                    -0.0315                  320.77920625049313
0.0015                    -0.0305                  319.30344513018986
0.0015                    -0.0295                  317.21820233025437
0.0015                    -0.0285                  314.04006589856215
0.0015                    -0.0275                  311.2004987415384
0.0015                    -0.0265                  309.3255523795693
0.0015                    -0.0255                  307.92972178076127
0.0015                    -0.0245                  306.4967204716922
0.0015                    -0.0235                  305.6689307129363
0.0015                    -0.0225                  305.3791290582979
0.0015                    -0.0215                  304.71999124217564
0.0015                    -0.0205                  304.2527114021502
0.0015                    -0.0195                  304.2413688989361
0.0015                    -0.0185                  303.7929655842953
0.0015                    -0.0175                  303.38045625348593
0.0015                    -0.0165                  303.347690865947
0.0015                    -0.0155                  302.88230145165517
0.0015                    -0.0145                  302.1990651984003
0.0015                    -0.0135                  301.6162267435488
0.0015                    -0.0125                  300.66261695098495
0.0015                    -0.0115                  299.3004685573461
0.0015                    -0.0105                  297.77376661839224
0.0015                    -0.0095                  296.83650989905493
0.0015                    -0.0085                  295.84250074819016
0.0015                    -0.0075                  294.3923057486141
0.0015                    -0.0065                  293.82302391206736
0.0015                    -0.0055                  293.7833093103072
0.0015                    -0.0045                  293.78921508141394
0.0015                    -0.0035                  293.83902606461817
0.0015                    -0.0025                  293.61577919630747
0.0015                    -0.0015                  293.3586917824913
0.0015                    -5.0E-4                  293.2136401399007
0.0015                    5.0E-4                   293.22068880237236
0.0015                    0.0015                   293.3558860104149
0.0015                    0.0025                   293.6774043944319
0.0015                    0.0035                   293.9151708779201
0.0015                    0.0045                   293.8676278767765
0.0015                    0.0055                   293.899689237134
0.0015                    0.0065                   293.94099848492
0.0015                    0.0075                   294.53862520687267
0.0015                    0.0085                   295.98565774486946
0.0015                    0.0095                   296.88696237319726
0.0015                    0.0105                   297.8537697188812
0.0015                    0.0115                   299.4744997916161
0.0015                    0.0125                   300.92609880589947
0.0015                    0.0135                   301.93968012653136
0.0015                    0.0145                   302.5617838471154
0.0015                    0.0155                   303.2763770664206
0.0015                    0.0165                   303.7200235941647
0.0015                    0.0175                   303.7381949670422
0.0015                    0.0185                   304.1441426935991
0.0015                    0.0195                   304.50869498876875
0.0015                    0.0205                   304.46137533332103
0.0015                    0.0215                   304.9696271729817
0.0015                    0.0225                   305.53174998744663
0.0015                    0.0235                   305.7678798858868
0.0015                    0.0245                   306.6744837727963
0.0015                    0.0255                   307.7598429443607
0.0015                    0.0265                   308.7109608211239
0.0015                    0.0275                   310.52352890639435
0.0015                    0.0285                   312.91684893961644
0.0015                    0.0295                   315.6245327598267
0.0015                    0.0305                   317.53489091192114
0.0015                    0.0315                   319.02910305571066
0.0025                    -0.0315                  319.9963700171857
0.0025                    -0.0305                  318.1222067058452
0.0025                    -0.0295                  315.7087911588609
0.0025                    -0.0285                  312.57029627248863
0.0025                    -0.0275                  309.92058503082427
0.0025                    -0.0265                  308.48308980539565
0.0025                    -0.0255                  307.05776487102344
0.0025                    -0.0245                  306.0330334694018
0.0025                    -0.0235                  305.69036558311757
0.0025                    -0.0225                  305.31973751325904
0.0025                    -0.0215                  305.06298030203175
0.0025                    -0.0205                  305.07166595293444
0.0025                    -0.0195                  305.0803516038372
0.0025                    -0.0185                  305.17825596062005
0.0025                    -0.0175                  305.1654870125042
0.0025                    -0.0165                  305.15103594667664
0.0025                    -0.0155                  305.14260860864783
0.0025                    -0.0145                  304.57942601022745
0.0025                    -0.0135                  304.00140788866094
0.0025                    -0.0125                  303.3658533530569
0.0025                    -0.0115                  301.84975287174734
0.0025                    -0.0105                  300.3263749058759
0.0025                    -0.0095                  298.7437712267441
0.0025                    -0.0085                  297.3195644282203
0.0025                    -0.0075                  295.8953576296965
0.0025                    -0.0065                  294.48361977988924
0.0025                    -0.0055                  294.48472836555254
0.0025                    -0.0045                  294.4858369512158
0.0025                    -0.0035                  294.0601422866806
0.0025                    -0.0025                  293.7218554095369
0.0025                    -0.0015                  293.4537444280458
0.0025                    -5.0E-4                  293.2893767402272
0.0025                    5.0E-4                   293.28171094151344
0.0025                    0.0015                   293.4269448526889
0.0025                    0.0025                   293.77512608210094
0.0025                    0.0035                   294.1996232233568
0.0025                    0.0045                   294.46170029274197
0.0025                    0.0055                   294.51515620796687
0.0025                    0.0065                   294.5686121231917
0.0025                    0.0075                   296.0794016532892
0.0025                    0.0085                   297.54001437593365
0.0025                    0.0095                   299.00963808886206
0.0025                    0.0105                   300.6305108599389
0.0025                    0.0115                   302.2502770595816
0.0025                    0.0125                   303.8312642395502
0.0025                    0.0135                   304.47379453657305
0.0025                    0.0145                   305.09388922215385
0.0025                    0.0155                   305.68186733757454
0.0025                    0.0165                   305.7090443938274
0.0025                    0.0175                   305.7294125500265
0.0025                    0.0185                   305.6981344469378
0.0025                    0.0195                   305.6428826508947
0.0025                    0.0205                   305.6155596151588
0.0025                    0.0215                   305.44746392573904
0.0025                    0.0225                   305.725058480084
0.0025                    0.0235                   306.0056794984335
0.0025                    0.0245                   306.1817053731008
0.0025                    0.0255                   306.96086750881136
0.0025                    0.0265                   307.80345685037014
0.0025                    0.0275                   308.9462408027554
0.0025                    0.0285                   311.6287100011124
0.0025                    0.0295                   314.3057382202257
0.0025                    0.0305                   316.54894489120636
0.0025                    0.0315                   318.2416164558957
0.0035                    -0.0315                  318.4778084645187
0.0035                    -0.0305                  316.19482078434896
0.0035                    -0.0295                  314.0422910577134
0.0035                    -0.0285                  311.1412082257789
0.0035                    -0.0275                  309.65245941354215
0.0035                    -0.0265                  308.1765614912112
0.0035                    -0.0255                  306.7512365568391
0.0035                    -0.0245                  306.92112358831787
0.0035                    -0.0235                  306.9286663809239
0.0035                    -0.0225                  306.55803831106545
0.0035                    -0.0215                  307.2243639075406
0.0035                    -0.0205                  307.77902705092936
0.0035                    -0.0195                  307.7877127018321
0.0035                    -0.0185                  308.4229993479996
0.0035                    -0.0175                  308.945433540611
0.0035                    -0.0165                  308.9309824747836
0.0035                    -0.0155                  308.95643338708015
0.0035                    -0.0145                  308.76701927235325
0.0035                    -0.0135                  308.1890011507867
0.0035                    -0.0125                  307.2720163460333
0.0035                    -0.0115                  306.0637928158398
0.0035                    -0.0105                  304.54041484996844
0.0035                    -0.0095                  302.6949205217691
0.0035                    -0.0085                  300.9910167013507
0.0035                    -0.0075                  299.5668099028269
0.0035                    -0.0065                  297.5242353426138
0.0035                    -0.0055                  296.61683390471126
0.0035                    -0.0045                  296.333962495294
0.0035                    -0.0035                  294.4892934315653
0.0035                    -0.0025                  293.9871393776709
0.0035                    -0.0015                  293.572380502813
0.0035                    -5.0E-4                  293.3107216640064
0.0035                    5.0E-4                   293.31635525999593
0.0035                    0.0015                   293.54531691323945
0.0035                    0.0025                   293.9205675028887
0.0035                    0.0035                   294.64003808386155
0.0035                    0.0045                   296.4639332135406
0.0035                    0.0055                   296.51738912876556
0.0035                    0.0065                   297.7039521251932
0.0035                    0.0075                   299.7408727567239
0.0035                    0.0085                   301.2014854793684
0.0035                    0.0095                   302.774555841932
0.0035                    0.0105                   304.4052295255789
0.0035                    0.0115                   306.0249957252216
0.0035                    0.0125                   307.2549953520527
0.0035                    0.0135                   308.16103473028085
0.0035                    0.0145                   308.7811294158616
0.0035                    0.0155                   309.09249012187706
0.0035                    0.0165                   309.2176235838102
0.0035                    0.0175                   309.2379917400093
0.0035                    0.0185                   308.7765197494706
0.0035                    0.0195                   308.3386520554525
0.0035                    0.0205                   308.3113290197165
0.0035                    0.0215                   307.5785185214862
0.0035                    0.0225                   307.1462709766267
0.0035                    0.0235                   307.4268919949762
0.0035                    0.0245                   307.06378040086145
0.0035                    0.0255                   307.4832523149496
0.0035                    0.0265                   308.2382519510247
0.0035                    0.0275                   308.7234881175147
0.0035                    0.0285                   310.3009185043106
0.0035                    0.0295                   312.9094381965236
0.0035                    0.0305                   315.06655549468917
0.0035                    0.0315                   317.0193143822498
0.0045                    -0.0315                  317.2864398779974
0.0045                    -0.0305                  314.82203908186415
0.0045                    -0.0295                  312.4127156391704
0.0045                    -0.0285                  310.8714148292414
0.0045                    -0.0275                  309.3830366411641
0.0045                    -0.0265                  307.8946584530868
0.0045                    -0.0255                  307.5585044594126
0.0045                    -0.0245                  307.8092137072341
0.0045                    -0.0235                  308.0599229550556
0.0045                    -0.0225                  308.36683842217326
0.0045                    -0.0215                  309.3379791304978
0.0045                    -0.0205                  310.3091198388223
0.0045                    -0.0195                  310.80700401556106
0.0045                    -0.0185                  311.66774273537914
0.0045                    -0.0175                  312.5284814551972
0.0045                    -0.0165                  312.73214447822807
0.0045                    -0.0155                  312.77025816551236
0.0045                    -0.0145                  312.8083718527967
0.0045                    -0.0135                  312.1875512816933
0.0045                    -0.0125                  311.1781793390096
0.0045                    -0.0115                  310.168807396326
0.0045                    -0.0105                  308.56798564682276
0.0045                    -0.0095                  306.64910538405536
0.0045                    -0.0085                  304.7302251212879
0.0045                    -0.0075                  302.85621337678964
0.0045                    -0.0065                  300.7605947767113
0.0045                    -0.0055                  298.74893944387003
0.0045                    -0.0045                  297.2865954012434
0.0045                    -0.0035                  295.44192633751476
0.0045                    -0.0025                  294.2893968886624
0.0045                    -0.0015                  293.85811732591105
0.0045                    -5.0E-4                  293.4268377631597
0.0045                    5.0E-4                   293.4440478868843
0.0045                    0.0015                   293.7611053416252
0.0045                    0.0025                   294.0803048213523
0.0045                    0.0035                   295.5300255374031
0.0045                    0.0045                   297.3955874758169
0.0045                    0.0055                   298.6600556259816
0.0045                    0.0065                   300.87704443892414
0.0045                    0.0075                   303.0940332518667
0.0045                    0.0085                   304.90422285103097
0.0045                    0.0095                   306.53947359500205
0.0045                    0.0105                   308.1747243389731
0.0045                    0.0115                   309.6289951305914
0.0045                    0.0125                   310.67872646455515
0.0045                    0.0135                   311.7284577985189
0.0045                    0.0145                   312.3227243949295
0.0045                    0.0155                   312.5031129061796
0.0045                    0.0165                   312.68350141742974
0.0045                    0.0175                   312.5186577531831
0.0045                    0.0185                   311.85490505200346
0.0045                    0.0195                   311.1911523508238
0.0045                    0.0205                   310.6466146454958
0.0045                    0.0215                   309.7095731172334
0.0045                    0.0225                   308.7725315889711
0.0045                    0.0235                   308.4653415265982
0.0045                    0.0245                   308.0600072665423
0.0045                    0.0255                   307.90965412811653
0.0045                    0.0265                   308.2662592758841
0.0045                    0.0275                   308.80270920868156
0.0045                    0.0285                   310.38013959547743
0.0045                    0.0295                   311.95756998227324
0.0045                    0.0305                   313.89563913055923
0.0045                    0.0315                   316.09841691450924
0.0055                    -0.0315                  316.0950712914761
0.0055                    -0.0305                  314.0702531649802
0.0055                    -0.0295                  312.08132759751646
0.0055                    -0.0285                  310.5870752940653
0.0055                    -0.0275                  309.0994889296169
0.0055                    -0.0265                  308.17720634733007
0.0055                    -0.0255                  308.56578554364154
0.0055                    -0.0245                  308.8007855678967
0.0055                    -0.0235                  309.1084502014534
0.0055                    -0.0225                  310.470531809804
0.0055                    -0.0215                  311.441817122285
0.0055                    -0.0205                  312.413102434766
0.0055                    -0.0195                  313.35638534072837
0.0055                    -0.0185                  314.1941057179188
0.0055                    -0.0175                  315.00015785271086
0.0055                    -0.0165                  315.02170056502973
0.0055                    -0.0155                  315.0325374388896
0.0055                    -0.0145                  314.94364097240197
0.0055                    -0.0135                  313.8611276994847
0.0055                    -0.0125                  312.8459719426404
0.0055                    -0.0115                  311.7317975432067
0.0055                    -0.0105                  309.88755715953033
0.0055                    -0.0095                  307.955591427703
0.0055                    -0.0085                  306.1390777026204
0.0055                    -0.0075                  304.5223965242591
0.0055                    -0.0065                  302.40552107901794
0.0055                    -0.0055                  300.14477346112994
0.0055                    -0.0045                  298.01119234182784
0.0055                    -0.0035                  296.1761667727223
0.0055                    -0.0025                  294.3946022085782
0.0055                    -0.0015                  293.8520598172895
0.0055                    -5.0E-4                  293.44131555197254
0.0055                    5.0E-4                   293.4004621702478
0.0055                    0.0015                   293.7483402087378
0.0055                    0.0025                   294.4071009316315
0.0055                    0.0035                   296.0152431294439
0.0055                    0.0045                   297.87682769435185
0.0055                    0.0055                   300.1785785743246
0.0055                    0.0065                   302.4484491360664
0.0055                    0.0075                   304.65701275900693
0.0055                    0.0085                   306.06773146752926
0.0055                    0.0095                   307.69446348809504
0.0055                    0.0105                   309.3337320422134
0.0055                    0.0115                   311.07922995540144
0.0055                    0.0125                   312.1507560460966
0.0055                    0.0135                   313.2222821367917
0.0055                    0.0145                   314.3175893256025
0.0055                    0.0155                   314.5038630982211
0.0055                    0.0165                   314.6901368708395
0.0055                    0.0175                   314.7776123480826
0.0055                    0.0185                   314.10178061154613
0.0055                    0.0195                   313.4259488750096
0.0055                    0.0205                   312.6808886084228
0.0055                    0.0215                   311.74081354023286
0.0055                    0.0225                   310.7362780552029
0.0055                    0.0235                   309.5144928642527
0.0055                    0.0245                   309.1140192316843
0.0055                    0.0255                   308.77629934025475
0.0055                    0.0265                   308.4950693274992
0.0055                    0.0275                   308.8819302998485
0.0055                    0.0285                   310.27337071316833
0.0055                    0.0295                   311.57256784702724
0.0055                    0.0305                   313.3117399103595
0.0055                    0.0315                   315.17751944676866
0.0065                    -0.0315                  315.7338165114102
0.0065                    -0.0305                  313.7388651233263
0.0065                    -0.0295                  311.77932182259065
0.0065                    -0.0285                  310.29761596088247
0.0065                    -0.0275                  308.8159100991743
0.0065                    -0.0265                  309.10334649409106
0.0065                    -0.0255                  309.51182281053093
0.0065                    -0.0245                  309.81165451922845
0.0065                    -0.0235                  310.8866734354662
0.0065                    -0.0225                  312.3496344326694
0.0065                    -0.0215                  313.5404621917543
0.0065                    -0.0205                  314.51102928309433
0.0065                    -0.0195                  315.4810708664859
0.0065                    -0.0185                  316.37290393574375
0.0065                    -0.0175                  316.6648308362083
0.0065                    -0.0165                  316.68830938420365
0.0065                    -0.0155                  316.70512716091827
0.0065                    -0.0145                  315.8956865760423
0.0065                    -0.0135                  314.8010532371452
0.0065                    -0.0125                  313.7494273590966
0.0065                    -0.0115                  312.1111529595666
0.0065                    -0.0105                  310.2887141884375
0.0065                    -0.0095                  308.3990666277025
0.0065                    -0.0085                  306.92951373294136
0.0065                    -0.0075                  305.5357214209073
0.0065                    -0.0065                  303.57816805699906
0.0065                    -0.0055                  301.1187811990769
0.0065                    -0.0045                  298.6630590795818
0.0065                    -0.0035                  296.85188851625355
0.0065                    -0.0025                  295.08726597562384
0.0065                    -0.0015                  293.79059101435047
0.0065                    -5.0E-4                  293.5900931611509
0.0065                    5.0E-4                   293.49905415351276
0.0065                    0.0015                   293.68087224256516
0.0065                    0.0025                   294.9834377114931
0.0065                    0.0035                   296.3305128339611
0.0065                    0.0045                   298.34636199771484
0.0065                    0.0055                   300.8893226425347
0.0065                    0.0065                   303.3543209722177
0.0065                    0.0075                   305.14031689984046
0.0065                    0.0085                   306.39701294208754
0.0065                    0.0095                   307.7877494070287
0.0065                    0.0105                   309.50493273590945
0.0065                    0.0115                   311.28944995989605