% Model:              SIMBench260525.mph
% Version:            COMSOL 6.2.0.339
% Date:               May 27 2026, 17:53
% Dimension:          2
% Nodes:              4096
% Expressions:        1
% Description:        温度
% Length unit:        m
% x                       y                        T (K)
5.0E-4                    -0.0315                  313.18092555581524
5.0E-4                    -0.0305                  311.95388687319917
5.0E-4                    -0.0295                  310.72825080286157
5.0E-4                    -0.0285                  309.5375703343801
5.0E-4                    -0.0275                  308.5158528173508
5.0E-4                    -0.0265                  307.62042108583495
5.0E-4                    -0.0255                  307.1792388074352
5.0E-4                    -0.0245                  306.6462726447212
5.0E-4                    -0.0235                  306.2443233419836
5.0E-4                    -0.0225                  306.022887714817
5.0E-4                    -0.0215                  305.77594749168964
5.0E-4                    -0.0205                  305.59279057884874
5.0E-4                    -0.0195                  305.4413061667084
5.0E-4                    -0.0185                  305.28680171786533
5.0E-4                    -0.0175                  305.14232702628925
5.0E-4                    -0.0165                  305.0427904024527
5.0E-4                    -0.0155                  304.9432537786161
5.0E-4                    -0.0145                  304.79501884555486
5.0E-4                    -0.0135                  304.7372007358488
5.0E-4                    -0.0125                  304.67377139152535
5.0E-4                    -0.0115                  304.55216657302765
5.0E-4                    -0.0105                  304.51922221469545
5.0E-4                    -0.0095                  304.46440013741017
5.0E-4                    -0.0085                  304.3695026465044
5.0E-4                    -0.0075                  304.29917790800926
5.0E-4                    -0.0065                  304.23462387767313
5.0E-4                    -0.0055                  304.21002475667575
5.0E-4                    -0.0045                  304.19372228909253
5.0E-4                    -0.0035                  304.193727386166
5.0E-4                    -0.0025                  304.190953810423
5.0E-4                    -0.0015                  304.18762845004386
5.0E-4                    -5.0E-4                  304.2211976004142
5.0E-4                    5.0E-4                   304.2077435646968
5.0E-4                    0.0015                   304.19428952897937
5.0E-4                    0.0025                   304.18095423728016
5.0E-4                    0.0035                   304.0307752623871
5.0E-4                    0.0045                   303.8926690051978
5.0E-4                    0.0055                   303.6348807452797
5.0E-4                    0.0065                   303.13567208896336
5.0E-4                    0.0075                   302.70380798743383
5.0E-4                    0.0085                   301.807299870002
5.0E-4                    0.0095                   300.59317991138255
5.0E-4                    0.0105                   299.60277553152144
5.0E-4                    0.0115                   298.2400239511871
5.0E-4                    0.0125                   296.76064951309496
5.0E-4                    0.0135                   295.58682726764846
5.0E-4                    0.0145                   295.5134746310067
5.0E-4                    0.0155                   295.44012199436503
5.0E-4                    0.0165                   294.42767014659177
5.0E-4                    0.0175                   293.83622901039814
5.0E-4                    0.0185                   293.28607965600474
5.0E-4                    0.0195                   293.15023559847776
5.0E-4                    0.0205                   293.14410382064034
5.0E-4                    0.0215                   293.14515154021586
5.0E-4                    0.0225                   293.147956827415
5.0E-4                    0.0235                   293.1500395055656
5.0E-4                    0.0245                   293.1512769612487
5.0E-4                    0.0255                   293.1512315279939
5.0E-4                    0.0265                   293.1512021797285
5.0E-4                    0.0275                   293.15118543928133
5.0E-4                    0.0285                   293.1511017243174
5.0E-4                    0.0295                   293.1516499901738
5.0E-4                    0.0305                   293.15326276798265
5.0E-4                    0.0315                   293.1549036377669
0.0015                    -0.0315                  312.4580263077569
0.0015                    -0.0305                  311.1480774972766
0.0015                    -0.0295                  309.89750251844373
0.0015                    -0.0285                  308.61896034381334
0.0015                    -0.0275                  307.49985700088826
0.0015                    -0.0265                  307.06198578419514
0.0015                    -0.0255                  306.73723067607136
0.0015                    -0.0245                  306.2101665662422
0.0015                    -0.0235                  306.04782467116917
0.0015                    -0.0225                  305.8829994929425
0.0015                    -0.0215                  305.6515642228876
0.0015                    -0.0205                  305.529180859026
0.0015                    -0.0195                  305.39696284940106
0.0015                    -0.0185                  305.24521169725307
0.0015                    -0.0175                  305.099726050922
0.0015                    -0.0165                  304.9764723805567
0.0015                    -0.0155                  304.8295259433843
0.0015                    -0.0145                  304.63196073553377
0.0015                    -0.0135                  304.52685952088694
0.0015                    -0.0125                  304.3820912848546
0.0015                    -0.0115                  304.191831043808
0.0015                    -0.0105                  304.1335060667776
0.0015                    -0.0095                  304.017136783544
0.0015                    -0.0085                  303.88428901818315
0.0015                    -0.0075                  303.8139642796881
0.0015                    -0.0065                  303.75835163120814
0.0015                    -0.0055                  303.7102258959183
0.0015                    -0.0045                  303.69883764388464
0.0015                    -0.0035                  303.71130995065334
0.0015                    -0.0025                  303.7180034150256
0.0015                    -0.0015                  303.7366437536161
0.0015                    -5.0E-4                  303.79709346529404
0.0015                    5.0E-4                   303.81751925727326
0.0015                    0.0015                   303.841687602751
0.0015                    0.0025                   303.90070369169064
0.0015                    0.0035                   303.8096839560994
0.0015                    0.0045                   303.74834922925214
0.0015                    0.0055                   303.7259764849151
0.0015                    0.0065                   303.27784890676384
0.0015                    0.0075                   302.9952454073494
0.0015                    0.0085                   302.67733587373317
0.0015                    0.0095                   301.49158882895307
0.0015                    0.0105                   300.7741577331248
0.0015                    0.0115                   299.8687528513246
0.0015                    0.0125                   298.49645369979055
0.0015                    0.0135                   297.45781503794467
0.0015                    0.0145                   296.84352910373207
0.0015                    0.0155                   296.1438746078687
0.0015                    0.0165                   294.67800686916667
0.0015                    0.0175                   293.8061735604123
0.0015                    0.0185                   293.4354436959299
0.0015                    0.0195                   293.1384422721649
0.0015                    0.0205                   293.1337859837977
0.0015                    0.0215                   293.14270145803675
0.0015                    0.0225                   293.14922956202906
0.0015                    0.0235                   293.15103884169037
0.0015                    0.0245                   293.1524994677134
0.0015                    0.0255                   293.15294192907845
0.0015                    0.0265                   293.1529812241205
0.0015                    0.0275                   293.153045210852
0.0015                    0.0285                   293.15318700689755
0.0015                    0.0295                   293.15435910648955
0.0015                    0.0305                   293.15580528411726
0.0015                    0.0315                   293.1621682459198
0.0025                    -0.0315                  311.7351270596986
0.0025                    -0.0305                  310.4286877688222
0.0025                    -0.0295                  309.1302355505727
0.0025                    -0.0285                  307.841437943725
0.0025                    -0.0275                  307.0063227820822
0.0025                    -0.0265                  306.64095274641556
0.0025                    -0.0255                  306.27674380959746
0.0025                    -0.0245                  306.0628293177686
0.0025                    -0.0235                  305.90901359150894
0.0025                    -0.0225                  305.75519786524933
0.0025                    -0.0215                  305.6451701957717
0.0025                    -0.0205                  305.5247296096692
0.0025                    -0.0195                  305.40428902356666
0.0025                    -0.0185                  305.2315734818517
0.0025                    -0.0175                  305.0861317764376
0.0025                    -0.0165                  304.90856747348255
0.0025                    -0.0155                  304.68060120861725
0.0025                    -0.0145                  304.4833185029654
0.0025                    -0.0135                  304.25199849601495
0.0025                    -0.0125                  304.06220195234096
0.0025                    -0.0115                  303.87240540866685
0.0025                    -0.0105                  303.693707052658
0.0025                    -0.0095                  303.5600741839578
0.0025                    -0.0085                  303.4264413152577
0.0025                    -0.0075                  303.3338596869929
0.0025                    -0.0065                  303.27830578697115
0.0025                    -0.0055                  303.22275188694937
0.0025                    -0.0045                  303.2132362513181
0.0025                    -0.0035                  303.225729271622
0.0025                    -0.0025                  303.2382222919259
0.0025                    -0.0015                  303.28796634899726
0.0025                    -5.0E-4                  303.34846172630427
0.0025                    5.0E-4                   303.4073151811967
0.0025                    0.0015                   303.4655911722235
0.0025                    0.0025                   303.5245736448334
0.0025                    0.0035                   303.5790998251835
0.0025                    0.0045                   303.5562016374324
0.0025                    0.0055                   303.5333034496813
0.0025                    0.0065                   303.4625753606457
0.0025                    0.0075                   303.2096030458854
0.0025                    0.0085                   302.956630731125
0.0025                    0.0095                   302.5248551646596
0.0025                    0.0105                   301.80431143416934
0.0025                    0.0115                   301.0837677036791
0.0025                    0.0125                   300.21436615314934
0.0025                    0.0135                   299.1692677873495
0.0025                    0.0145                   298.04917108519885
0.0025                    0.0155                   296.50676066956134
0.0025                    0.0165                   295.03767636845913
0.0025                    0.0175                   293.840617634889
0.0025                    0.0185                   293.5392308225304
0.0025                    0.0195                   293.23784401017184
0.0025                    0.0205                   293.1314084954095
0.0025                    0.0215                   293.14032484915117
0.0025                    0.0225                   293.1492384535174
0.0025                    0.0235                   293.1521239655026
0.0025                    0.0245                   293.1535881121652
0.0025                    0.0255                   293.15466719485187
0.0025                    0.0265                   293.1547254935813
0.0025                    0.0275                   293.1547837923106
0.0025                    0.0285                   293.1556333923472
0.0025                    0.0295                   293.1567336353654
0.0025                    0.0305                   293.16159908217867
0.0025                    0.0315                   293.1694328540727
0.0035                    -0.0315                  311.1003293737988
0.0035                    -0.0305                  309.714606748337
0.0035                    -0.0295                  308.412078544575
0.0035                    -0.0285                  307.3720832837179
0.0035                    -0.0275                  306.92805596915883
0.0035                    -0.0265                  306.5193826312825
0.0035                    -0.0255                  306.2287299192737
0.0035                    -0.0245                  306.1832251058322
0.0035                    -0.0235                  306.0540750580274
0.0035                    -0.0225                  305.9454493431343
0.0035                    -0.0215                  305.9231915215047
0.0035                    -0.0205                  305.8097952763131
0.0035                    -0.0195                  305.60324740086764
0.0035                    -0.0185                  305.33527722499457
0.0035                    -0.0175                  305.1898355195804
0.0035                    -0.0165                  304.81467074037226
0.0035                    -0.0155                  304.42712984819946
0.0035                    -0.0145                  304.2298471425476
0.0035                    -0.0135                  303.884606322096
0.0035                    -0.0125                  303.6022532508864
0.0035                    -0.0115                  303.41179222189356
0.0035                    -0.0105                  303.20967629779227
0.0035                    -0.0095                  303.05163738885847
0.0035                    -0.0085                  302.9277858190484
0.0035                    -0.0075                  302.83921153575795
0.0035                    -0.0065                  302.7776366919594
0.0035                    -0.0055                  302.7341554278756
0.0035                    -0.0045                  302.7101652499895
0.0035                    -0.0035                  302.72236282343124
0.0035                    -0.0025                  302.7362553679187
0.0035                    -0.0015                  302.75887322532446
0.0035                    -5.0E-4                  302.81936860263147
0.0035                    5.0E-4                   302.87000409684435
0.0035                    0.0015                   302.92099878592745
0.0035                    0.0025                   302.97998125853735
0.0035                    0.0035                   303.0645562531962
0.0035                    0.0045                   303.0951046190166
0.0035                    0.0055                   303.08017345413305
0.0035                    0.0065                   303.1621119397015
0.0035                    0.0075                   303.012747467065
0.0035                    0.0085                   302.814391902473
0.0035                    0.0095                   302.76647543474826
0.0035                    0.0105                   302.1350330392435
0.0035                    0.0115                   301.5528690084913
0.0035                    0.0125                   301.0930080090733
0.0035                    0.0135                   300.04790964327344
0.0035                    0.0145                   298.3509884247808
0.0035                    0.0155                   296.5222286374142
0.0035                    0.0165                   295.0531443363119
0.0035                    0.0175                   294.0648375111926
0.0035                    0.0185                   293.47471354458406
0.0035                    0.0195                   293.2400993439009
0.0035                    0.0205                   293.13703039213055
0.0035                    0.0215                   293.1382083217514
0.0035                    0.0225                   293.14709550415307
0.0035                    0.0235                   293.15389789726726
0.0035                    0.0245                   293.1553620439299
0.0035                    0.0255                   293.15605616906225
0.0035                    0.0265                   293.1563862644621
0.0035                    0.0275                   293.1568038709036
0.0035                    0.0285                   293.15777977592643
0.0035                    0.0295                   293.15883575350364
0.0035                    0.0305                   293.16531393690764
0.0035                    0.0315                   293.1742800353783
0.0045                    -0.0315                  310.64947251299424
0.0045                    -0.0305                  309.19422218734917
0.0045                    -0.0295                  307.7860903752894
0.0045                    -0.0285                  307.2956046807177
0.0045                    -0.0275                  306.85039208916544
0.0045                    -0.0265                  306.4057618416764
0.0045                    -0.0255                  306.30791872207215
0.0045                    -0.0245                  306.2624139086306
0.0045                    -0.0235                  306.19913652454585
0.0045                    -0.0225                  306.17042152681984
0.0045                    -0.0215                  306.1481637051902
0.0045                    -0.0205                  306.07191012575515
0.0045                    -0.0195                  305.7891882410167
0.0045                    -0.0185                  305.5064663562782
0.0045                    -0.0175                  305.18477383285637
0.0045                    -0.0165                  304.720774007262
0.0045                    -0.0155                  304.25677418166754
0.0045                    -0.0145                  303.89173436225997
0.0045                    -0.0135                  303.52828739309336
0.0045                    -0.0125                  303.16484042392676
0.0045                    -0.0115                  302.9442642534409
0.0045                    -0.0105                  302.7421483293396
0.0045                    -0.0095                  302.54320059375914
0.0045                    -0.0085                  302.44688035429
0.0045                    -0.0075                  302.35830607099956
0.0045                    -0.0065                  302.2769675969477
0.0045                    -0.0055                  302.252651028694
0.0045                    -0.0045                  302.22866085080796
0.0045                    -0.0035                  302.2193907607517
0.0045                    -0.0025                  302.2344233050544
0.0045                    -0.0015                  302.249455849357
0.0045                    -5.0E-4                  302.2858434231237
0.0045                    5.0E-4                   302.3326930124921
0.0045                    0.0015                   302.3795426018605
0.0045                    0.0025                   302.44958898060236
0.0045                    0.0035                   302.53711234856974
0.0045                    0.0045                   302.6246357165372
0.0045                    0.0055                   302.68192628090185
0.0045                    0.0065                   302.7638647664703
0.0045                    0.0075                   302.8158918882447
0.0045                    0.0085                   302.7412058352714
0.0045                    0.0095                   302.6932893675466
0.0045                    0.0105                   302.4884998604729
0.0045                    0.0115                   302.06488204114083
0.0045                    0.0125                   301.64126422180874
0.0045                    0.0135                   300.62379303643047
0.0045                    0.0145                   298.6528057643627
0.0045                    0.0155                   296.68181849229506
0.0045                    0.0165                   295.3661110896939
0.0045                    0.0175                   294.3789965152152
0.0045                    0.0185                   293.4101962666378
0.0045                    0.0195                   293.2981985022342
0.0045                    0.0205                   293.1951295504638
0.0045                    0.0215                   293.136078771787
0.0045                    0.0225                   293.1449525547887
0.0045                    0.0235                   293.15382633779035
0.0045                    0.0245                   293.15667908365555
0.0045                    0.0255                   293.1573665293976
0.0045                    0.0265                   293.1580470353429
0.0045                    0.0275                   293.15899392112635
0.0045                    0.0285                   293.15996254746517
0.0045                    0.0295                   293.16092119515423
0.0045                    0.0305                   293.17055932419913
0.0045                    0.0315                   293.1803759146234
0.0055                    -0.0315                  310.1986156521897
0.0055                    -0.0305                  308.9794097396933
0.0055                    -0.0295                  307.80000635698116
0.0055                    -0.0285                  307.2431196424877
0.0055                    -0.0275                  306.79345946291903
0.0055                    -0.0265                  306.54527234958283
0.0055                    -0.0255                  306.50802759510145
0.0055                    -0.0245                  306.45595188479916
0.0055                    -0.0235                  306.4507002181867
0.0055                    -0.0225                  306.4572489578587
0.0055                    -0.0215                  306.43583904513144
0.0055                    -0.0205                  305.9473295526191
0.0055                    -0.0195                  305.55461052309624
0.0055                    -0.0185                  305.2708460763406
0.0055                    -0.0175                  304.59772590737475
0.0055                    -0.0165                  304.11515633898284
0.0055                    -0.0155                  303.66799040819114
0.0055                    -0.0145                  303.3167929204858
0.0055                    -0.0135                  302.9550607128642
0.0055                    -0.0125                  302.66339781094894
0.0055                    -0.0115                  302.52116073634954
0.0055                    -0.0105                  302.3187677749717
0.0055                    -0.0095                  302.19332686995557
0.0055                    -0.0085                  302.1373119098231
0.0055                    -0.0075                  302.04801356599773
0.0055                    -0.0065                  302.01494377191835
0.0055                    -0.0055                  302.0012696267589
0.0055                    -0.0045                  301.97658252160096
0.0055                    -0.0035                  301.98336335047026
0.0055                    -0.0025                  301.9983060020471
0.0055                    -0.0015                  302.01281505709284
0.0055                    -5.0E-4                  302.036908981182
0.0055                    5.0E-4                   302.08286023192056
0.0055                    0.0015                   302.12815463950807
0.0055                    0.0025                   302.1687844132473
0.0055                    0.0035                   302.25669290331973
0.0055                    0.0045                   302.33223648868915
0.0055                    0.0055                   302.38771229045847
0.0055                    0.0065                   302.4704350045094
0.0055                    0.0075                   302.5425668774828
0.0055                    0.0085                   302.54943241095606
0.0055                    0.0095                   302.5002227277872
0.0055                    0.0105                   302.44906043725115
0.0055                    0.0115                   302.14367593425754
0.0055                    0.0125                   301.71266885602836
0.0055                    0.0135                   300.7729157824888
0.0055                    0.0145                   298.9209318169121
0.0055                    0.0155                   296.9739726277827
0.0055                    0.0165                   295.23206907904165
0.0055                    0.0175                   294.2415040526017
0.0055                    0.0185                   293.5597253120869
0.0055                    0.0195                   293.27886463734984
0.0055                    0.0205                   293.17623771489787
0.0055                    0.0215                   293.14119526829495
0.0055                    0.0225                   293.14500880849306
0.0055                    0.0235                   293.15327636418834
0.0055                    0.0245                   293.15852006161964
0.0055                    0.0255                   293.1592314621208
0.0055                    0.0265                   293.1598172939438
0.0055                    0.0275                   293.1604745794205
0.0055                    0.0285                   293.16143322710957
0.0055                    0.0295                   293.16393243896596
0.0055                    0.0305                   293.17475179207224
0.0055                    0.0315                   293.1864717938686
0.0065                    -0.0315                  310.19903224484153
0.0065                    -0.0305                  308.96807333176815
0.0065                    -0.0295                  307.8401945544829
0.0065                    -0.0285                  307.28330783998945
0.0065                    -0.0275                  306.7709039325655
0.0065                    -0.0265                  306.7432473642785
0.0065                    -0.0255                  306.71559079599155
0.0065                    -0.0245                  306.6732068557674
0.0065                    -0.0235                  306.711529585202
0.0065                    -0.0225                  306.74985231463666
0.0065                    -0.0215                  306.5229727937908
0.0065                    -0.0205                  305.8698232008036
0.0065                    -0.0195                  305.2514071266139
0.0065                    -0.0185                  304.7356547397078
0.0065                    -0.0175                  304.044600250396
0.0065                    -0.0165                  303.4248185578228
0.0065                    -0.0155                  303.0472465046359
0.0065                    -0.0145                  302.697137176978
0.0065                    -0.0135                  302.3412224596749
0.0065                    -0.0125                  302.20002584235215
0.0065                    -0.0115                  302.080616300893
0.0065                    -0.0105                  301.9151241821876
0.0065                    -0.0095                  301.886264249346
0.0065                    -0.0085                  301.85740431650436
0.0065                    -0.0075                  301.796891198837
0.0065                    -0.0065                  301.80123236563884
0.0065                    -0.0055                  301.8049321291039
0.0065                    -0.0045                  301.7955006895187
0.0065                    -0.0035                  301.8121069211667
0.0065                    -0.0025                  301.82830675256446
0.0065                    -0.0015                  301.8483142008539
0.0065                    -5.0E-4                  301.87314583216414
0.0065                    5.0E-4                   301.90599773042106
0.0065                    0.0015                   301.94298577014604
0.0065                    0.0025                   301.9758539470607
0.0065                    0.0035                   302.0384674302257
0.0065                    0.0045                   302.0870744449577
0.0065                    0.0055                   302.13009411317114
0.0065                    0.0065                   302.1998096445646
0.0065                    0.0075                   302.2600026726856
0.0065                    0.0085                   302.3201957008066
0.0065                    0.0095                   302.28270877322257
0.0065                    0.0105                   302.2306268980691
0.0065                    0.0115                   302.1519166714255