% Model:              SIMBench260525.mph
% Version:            COMSOL 6.2.0.339
% Date:               May 27 2026, 17:36
% Dimension:          2
% Nodes:              4096
% Expressions:        1
% Description:        温度
% Length unit:        m
% x                       y                        T (K)
5.0E-4                    -0.0315                  375.7697175047947
5.0E-4                    -0.0305                  373.92953516470567
5.0E-4                    -0.0295                  372.0773064473459
5.0E-4                    -0.0285                  368.5832744654907
5.0E-4                    -0.0275                  364.83367099561326
5.0E-4                    -0.0265                  361.08406752573575
5.0E-4                    -0.0255                  357.52648088622544
5.0E-4                    -0.0245                  354.4589491770774
5.0E-4                    -0.0235                  351.45219806407965
5.0E-4                    -0.0225                  349.52219407707827
5.0E-4                    -0.0215                  347.70875358075557
5.0E-4                    -0.0205                  345.99133478340843
5.0E-4                    -0.0195                  344.85328927502036
5.0E-4                    -0.0185                  343.64765584415
5.0E-4                    -0.0175                  342.55393516487703
5.0E-4                    -0.0165                  341.70385582553365
5.0E-4                    -0.0155                  340.7150208526034
5.0E-4                    -0.0145                  339.86792908163125
5.0E-4                    -0.0135                  339.0691583550217
5.0E-4                    -0.0125                  338.10421931704434
5.0E-4                    -0.0115                  337.30772667752
5.0E-4                    -0.0105                  336.3885654069095
5.0E-4                    -0.0095                  335.3132785669518
5.0E-4                    -0.0085                  334.42924882953184
5.0E-4                    -0.0075                  333.11059104728565
5.0E-4                    -0.0065                  331.63068092470127
5.0E-4                    -0.0055                  330.38666114533595
5.0E-4                    -0.0045                  327.60897698089695
5.0E-4                    -0.0035                  324.60685239616566
5.0E-4                    -0.0025                  321.8493232328383
5.0E-4                    -0.0015                  313.81955428710125
5.0E-4                    -5.0E-4                  305.6059698400714
5.0E-4                    5.0E-4                   297.9618400403548
5.0E-4                    0.0015                   296.97923029442376
5.0E-4                    0.0025                   295.9966205484928
5.0E-4                    0.0035                   294.42731845724813
5.0E-4                    0.0045                   294.3789895346713
5.0E-4                    0.0055                   294.3306606120944
5.0E-4                    0.0065                   293.5599950148354
5.0E-4                    0.0075                   293.2907910644537
5.0E-4                    0.0085                   293.2089805068981
5.0E-4                    0.0095                   293.3077248734311
5.0E-4                    0.0105                   293.6525391509695
5.0E-4                    0.0115                   293.6270482734859
5.0E-4                    0.0125                   293.60155739600225
5.0E-4                    0.0135                   294.2039288826722
5.0E-4                    0.0145                   294.6792984613848
5.0E-4                    0.0155                   296.29619329305007
5.0E-4                    0.0165                   300.7262437525504
5.0E-4                    0.0175                   305.18305508892263
5.0E-4                    0.0185                   308.6598961748985
5.0E-4                    0.0195                   311.96145197634553
5.0E-4                    0.0205                   315.2832599637211
5.0E-4                    0.0215                   317.03175359248115
5.0E-4                    0.0225                   318.7092520794381
5.0E-4                    0.0235                   320.3351378651721
5.0E-4                    0.0245                   321.72281816672114
5.0E-4                    0.0255                   323.4467309900994
5.0E-4                    0.0265                   325.12006968646386
5.0E-4                    0.0275                   327.6209512493566
5.0E-4                    0.0285                   330.3991965080431
5.0E-4                    0.0295                   333.31960696254043
5.0E-4                    0.0305                   335.1748457887839
5.0E-4                    0.0315                   337.0300846150273
0.0015                    -0.0315                  375.0842518012545
0.0015                    -0.0305                  373.68022465942164
0.0015                    -0.0295                  371.2168022486354
0.0015                    -0.0285                  367.3379556278039
0.0015                    -0.0275                  363.52617165374807
0.0015                    -0.0265                  359.73956243678117
0.0015                    -0.0255                  355.9323997720618
0.0015                    -0.0245                  352.6435435011465
0.0015                    -0.0235                  350.3243763906109
0.0015                    -0.0225                  348.30802990033453
0.0015                    -0.0215                  346.4570619995969
0.0015                    -0.0205                  345.21782174334925
0.0015                    -0.0195                  344.1483326192126
0.0015                    -0.0185                  342.9569554541577
0.0015                    -0.0175                  342.2133998216908
0.0015                    -0.0165                  341.55523774646883
0.0015                    -0.0155                  340.5756876463505
0.0015                    -0.0145                  340.0512224072678
0.0015                    -0.0135                  339.5474863242631
0.0015                    -0.0125                  338.5825472862857
0.0015                    -0.0115                  338.086306331968
0.0015                    -0.0105                  337.5245256042108
0.0015                    -0.0095                  336.4732414313695
0.0015                    -0.0085                  335.8446416118154
0.0015                    -0.0075                  335.04494473402156
0.0015                    -0.0065                  333.6244999812464
0.0015                    -0.0055                  332.61273839077444
0.0015                    -0.0045                  331.04945929548137
0.0015                    -0.0035                  328.13277718842266
0.0015                    -0.0025                  325.5520760649418
0.0015                    -0.0015                  320.9230291421627
0.0015                    -5.0E-4                  312.8304758656184
0.0015                    5.0E-4                   304.98074640396663
0.0015                    0.0015                   300.2155550356587
0.0015                    0.0025                   298.5305867548558
0.0015                    0.0035                   296.1896645627594
0.0015                    0.0045                   295.65138427321006
0.0015                    0.0055                   294.78944297189423
0.0015                    0.0065                   293.947680085132
0.0015                    0.0075                   293.3393874814331
0.0015                    0.0085                   293.238782149794
0.0015                    0.0095                   293.35491007909684
0.0015                    0.0105                   293.8902959503564
0.0015                    0.0115                   294.27322498240926
0.0015                    0.0125                   294.5888689013105
0.0015                    0.0135                   295.3120019531385
0.0015                    0.0145                   295.82990921432094
0.0015                    0.0155                   299.72985455189166
0.0015                    0.0165                   304.1063832576482
0.0015                    0.0175                   308.27388623832434
0.0015                    0.0185                   310.96362931103465
0.0015                    0.0195                   313.90864828329194
0.0015                    0.0205                   316.3196283744297
0.0015                    0.0215                   317.5953058033907
0.0015                    0.0225                   319.1541291695721
0.0015                    0.0235                   320.3560105873104
0.0015                    0.0245                   321.41521197896157
0.0015                    0.0255                   323.1318215542163
0.0015                    0.0265                   324.7113152446767
0.0015                    0.0275                   326.6574694159822
0.0015                    0.0285                   329.47766521050175
0.0015                    0.0295                   332.5487296561341
0.0015                    0.0305                   334.9571975632529
0.0015                    0.0315                   336.5494401335469
0.0025                    -0.0315                  374.39878609771426
0.0025                    -0.0305                  372.62349387503815
0.0025                    -0.0295                  369.9833689914508
0.0025                    -0.0285                  366.1077032289803
0.0025                    -0.0275                  362.02541295091663
0.0025                    -0.0265                  358.15369645101316
0.0025                    -0.0255                  354.3803564262464
0.0025                    -0.0245                  351.27129704196955
0.0025                    -0.0235                  349.24918025246546
0.0025                    -0.0225                  347.2270634629613
0.0025                    -0.0215                  345.67848569023096
0.0025                    -0.0205                  344.6056087093866
0.0025                    -0.0195                  343.53273172854233
0.0025                    -0.0185                  342.7691403873837
0.0025                    -0.0175                  342.1057348016753
0.0025                    -0.0165                  341.442329215967
0.0025                    -0.0155                  340.98070519462635
0.0025                    -0.0145                  340.4962336859435
0.0025                    -0.0135                  340.0117621772607
0.0025                    -0.0125                  339.58682245366333
0.0025                    -0.0115                  339.09380433247713
0.0025                    -0.0105                  338.60078621129094
0.0025                    -0.0095                  338.00355291674435
0.0025                    -0.0085                  337.3738225307392
0.0025                    -0.0075                  336.7440921447339
0.0025                    -0.0065                  335.8034425819595
0.0025                    -0.0055                  334.7917433464396
0.0025                    -0.0045                  333.78004411091973
0.0025                    -0.0035                  331.6631077785663
0.0025                    -0.0025                  329.0595251084958
0.0025                    -0.0015                  326.4559424384253
0.0025                    -5.0E-4                  320.0176457506159
0.0025                    5.0E-4                   312.13897939430024
0.0025                    0.0015                   304.7597529737391
0.0025                    0.0025                   302.0662706716657
0.0025                    0.0035                   299.726799888225
0.0025                    0.0045                   296.41553979296725
0.0025                    0.0055                   295.202219386028
0.0025                    0.0065                   294.3353651554286
0.0025                    0.0075                   293.60556755174764
0.0025                    0.0085                   293.3068874739626
0.0025                    0.0095                   293.40209528476254
0.0025                    0.0105                   294.01605752411456
0.0025                    0.0115                   294.7201695717985
0.0025                    0.0125                   295.6963487781006
0.0025                    0.0135                   296.4353897731613
0.0025                    0.0145                   298.6156395692877
0.0025                    0.0155                   302.9852153358909
0.0025                    0.0165                   307.3547911024942
0.0025                    0.0175                   310.1409979700207
0.0025                    0.0185                   312.83143823907017
0.0025                    0.0195                   315.5158083773793
0.0025                    0.0205                   316.9968023100424
0.0025                    0.0215                   318.27226208693065
0.0025                    0.0225                   319.5565272625585
0.0025                    0.0235                   320.5811896702308
0.0025                    0.0245                   321.605852077903
0.0025                    0.0255                   322.8304811395883
0.0025                    0.0265                   324.31591256330915
0.0025                    0.0275                   325.8820544933501
0.0025                    0.0285                   328.7183699298453
0.0025                    0.0295                   331.8641134948476
0.0025                    0.0305                   334.45495243633985
0.0025                    0.0315                   336.0560929052068
0.0035                    -0.0315                  373.0716497948283
0.0035                    -0.0305                  370.91100143193256
0.0035                    -0.0295                  368.7364710069339
0.0035                    -0.0285                  364.75559919901036
0.0035                    -0.0275                  360.3073325396437
0.0035                    -0.0265                  356.03627290648757
0.0035                    -0.0255                  352.35945092616515
0.0035                    -0.0245                  350.37864503836033
0.0035                    -0.0235                  348.37710090319996
0.0035                    -0.0225                  346.4368657784189
0.0035                    -0.0215                  345.74383377600793
0.0035                    -0.0205                  344.8210786899759
0.0035                    -0.0195                  343.87575375853
0.0035                    -0.0185                  343.7731084817617
0.0035                    -0.0175                  343.2892263336248
0.0035                    -0.0165                  342.7654117347263
0.0035                    -0.0155                  342.8441964301156
0.0035                    -0.0145                  342.4980866940248
0.0035                    -0.0135                  342.1031870238904
0.0035                    -0.0125                  341.98217682416464
0.0035                    -0.0115                  341.55200565874134
0.0035                    -0.0105                  340.99552194954236
0.0035                    -0.0095                  340.2970273115924
0.0035                    -0.0085                  339.66093542299654
0.0035                    -0.0075                  338.8293533181584
0.0035                    -0.0065                  337.66581050574405
0.0035                    -0.0055                  336.65156631467386
0.0035                    -0.0045                  335.5221560292848
0.0035                    -0.0035                  334.1549639574047
0.0035                    -0.0025                  331.55138128733415
0.0035                    -0.0015                  329.5086750501456
0.0035                    -5.0E-4                  326.64634565465843
0.0035                    5.0E-4                   318.76767929834284
0.0035                    0.0015                   312.84044989751646
0.0035                    0.0025                   308.6392847689939
0.0035                    0.0035                   305.175767212271
0.0035                    0.0045                   298.5828530838122
0.0035                    0.0055                   296.712675821667
0.0035                    0.0065                   294.9689158859108
0.0035                    0.0075                   293.6601491429504
0.0035                    0.0085                   293.4184343848159
0.0035                    0.0095                   293.5762509766762
0.0035                    0.0105                   294.02825899133865
0.0035                    0.0115                   295.4442022996586
0.0035                    0.0125                   297.3369586009462
0.0035                    0.0135                   298.07599959600697
0.0035                    0.0145                   301.5030896913705
0.0035                    0.0155                   305.5469054680742
0.0035                    0.0165                   308.8508669849286
0.0035                    0.0175                   310.2552142613578
0.0035                    0.0185                   312.92792094334004
0.0035                    0.0195                   315.5610342751793
0.0035                    0.0205                   317.7533682074013
0.0035                    0.0215                   319.0368830704049
0.0035                    0.0225                   320.5594915839914
0.0035                    0.0235                   321.7454975643759
0.0035                    0.0245                   322.6130739098305
0.0035                    0.0255                   323.4335246677426
0.0035                    0.0265                   324.9189560914635
0.0035                    0.0275                   326.20668452458733
0.0035                    0.0285                   328.46103188893704
0.0035                    0.0295                   331.3767023710675
0.0035                    0.0305                   333.8288186214667
0.0035                    0.0315                   335.557198294432
0.0045                    -0.0315                  372.10879559460005
0.0045                    -0.0305                  369.749250022889
0.0045                    -0.0295                  367.400818009125
0.0045                    -0.0285                  363.0764942264382
0.0045                    -0.0275                  358.6202077926919
0.0045                    -0.0265                  354.1639213589456
0.0045                    -0.0255                  351.4635357060416
0.0045                    -0.0245                  349.48272981823686
0.0045                    -0.0235                  347.50192393043204
0.0045                    -0.0225                  346.4239258465501
0.0045                    -0.0215                  345.7308938441391
0.0045                    -0.0205                  345.03654867056514
0.0045                    -0.0195                  344.71869050551084
0.0045                    -0.0185                  344.61604522874256
0.0045                    -0.0175                  344.4727178655743
0.0045                    -0.0165                  344.4242291724406
0.0045                    -0.0155                  344.5030138678298
0.0045                    -0.0145                  344.49993970210596
0.0045                    -0.0135                  344.33471620750294
0.0045                    -0.0125                  344.2137060077771
0.0045                    -0.0115                  344.01020698500554
0.0045                    -0.0105                  343.32445798730237
0.0045                    -0.0095                  342.6259633493524
0.0045                    -0.0085                  341.94508641712446
0.0045                    -0.0075                  340.78154360471007
0.0045                    -0.0065                  339.61800079229573
0.0045                    -0.0055                  338.4912961964148
0.0045                    -0.0045                  337.2187593238537
0.0045                    -0.0035                  335.94622245129267
0.0045                    -0.0025                  334.2592784338131
0.0045                    -0.0015                  332.5757922684346
0.0045                    -5.0E-4                  330.89230610305617
0.0045                    5.0E-4                   326.5060713333099
0.0045                    0.0015                   320.92114682129386
0.0045                    0.0025                   315.3362223092779
0.0045                    0.0035                   309.2079727696844
0.0045                    0.0045                   302.61505864122563
0.0045                    0.0055                   298.08519072094214
0.0045                    0.0065                   296.154371521396
0.0045                    0.0075                   294.1286283006358
0.0045                    0.0085                   293.58192223011565
0.0045                    0.0095                   293.79797379865585
0.0045                    0.0105                   294.0532191671672
0.0045                    0.0115                   296.26478424534525
0.0045                    0.0125                   298.47634932352327
0.0045                    0.0135                   301.16639638921697
0.0045                    0.0145                   304.5994321789236
0.0045                    0.0155                   308.10859560025744
0.0045                    0.0165                   309.6623512258862
0.0045                    0.0175                   311.06669850231543
0.0045                    0.0185                   312.9982040428692
0.0045                    0.0195                   315.6062601729793
0.0045                    0.0205                   318.2143163030895
0.0045                    0.0215                   319.95045071924295
0.0045                    0.0225                   321.4730592328294
0.0045                    0.0235                   322.89299903744364
0.0045                    0.0245                   323.51720986819095
0.0045                    0.0255                   324.14301369518665
0.0045                    0.0265                   325.29764087135493
0.0045                    0.0275                   326.53457151689355
0.0045                    0.0285                   328.8585439840059
0.0045                    0.0295                   331.29255292729647
0.0045                    0.0305                   333.4351487931858
0.0045                    0.0315                   335.412953546859
0.0055                    -0.0315                  371.1459413943718
0.0055                    -0.0305                  368.8729537004051
0.0055                    -0.0295                  366.5853545904489
0.0055                    -0.0285                  361.78892807902304
0.0055                    -0.0275                  357.30803174911426
0.0055                    -0.0265                  353.5692850629289
0.0055                    -0.0255                  351.12931522707095
0.0055                    -0.0245                  349.10380024148037
0.0055                    -0.0235                  347.5494877945779
0.0055                    -0.0225                  347.02309862000925
0.0055                    -0.0215                  346.3292700204364
0.0055                    -0.0205                  346.0519046339835
0.0055                    -0.0195                  346.17220326201783
0.0055                    -0.0185                  346.0657171726804
0.0055                    -0.0175                  346.21361014331654
0.0055                    -0.0165                  346.47863787989735
0.0055                    -0.0155                  346.55412360752683
0.0055                    -0.0145                  346.14566213381823
0.0055                    -0.0135                  345.6817458560305
0.0055                    -0.0125                  345.5661484666676
0.0055                    -0.0115                  344.6299358837399
0.0055                    -0.0105                  343.60535892328903
0.0055                    -0.0095                  342.9146822025382
0.0055                    -0.0085                  341.7213114821092
0.0055                    -0.0075                  340.4634424408156
0.0055                    -0.0065                  339.3036546954221
0.0055                    -0.0055                  338.05131431471057
0.0055                    -0.0045                  336.73991937022396
0.0055                    -0.0035                  335.42254844523586
0.0055                    -0.0025                  334.20119314313746
0.0055                    -0.0015                  332.46008284714657
0.0055                    -5.0E-4                  330.70474026977126
0.0055                    5.0E-4                   328.9220334394144
0.0055                    0.0015                   323.3020244139875
0.0055                    0.0025                   317.93145155470324
0.0055                    0.0035                   312.1644059578743
0.0055                    0.0045                   305.5819146948956
0.0055                    0.0055                   298.7703049029534
0.0055                    0.0065                   296.143052666934
0.0055                    0.0075                   294.42736428133963
0.0055                    0.0085                   293.48455096321936
0.0055                    0.0095                   293.70060253175956
0.0055                    0.0105                   294.4061614709805
0.0055                    0.0115                   296.1418399814461
0.0055                    0.0125                   298.43088242505974
0.0055                    0.0135                   301.25098996431717
0.0055                    0.0145                   304.6875736708572
0.0055                    0.0155                   306.6478447034629
0.0055                    0.0165                   307.72710434140527
0.0055                    0.0175                   309.11034066152905
0.0055                    0.0185                   310.8432490012325
0.0055                    0.0195                   313.35321642194094
0.0055                    0.0205                   316.32614494591087
0.0055                    0.0215                   319.6119204626457
0.0055                    0.0225                   321.1445158057833
0.0055                    0.0235                   323.231777412142
0.0055                    0.0245                   324.57097200271534
0.0055                    0.0255                   325.22860354315316
0.0055                    0.0265                   325.99019413861186
0.0055                    0.0275                   326.8624585091998
0.0055                    0.0285                   329.21055543103665
0.0055                    0.0295                   331.57611370003883
0.0055                    0.0305                   333.5450738510069
0.0055                    0.0315                   335.2779183160079
0.0065                    -0.0315                  370.40389457182425
0.0065                    -0.0305                  368.0790970333958
0.0065                    -0.0295                  365.57395029863505
0.0065                    -0.0285                  360.7775237872092
0.0065                    -0.0275                  356.0263758348814
0.0065                    -0.0265                  353.48559552576893
0.0065                    -0.0255                  350.9448152166565
0.0065                    -0.0245                  348.7723534364097
0.0065                    -0.0235                  348.13079811234695
0.0065                    -0.0225                  347.6823930694123
0.0065                    -0.0215                  347.144214619326
0.0065                    -0.0205                  347.4158451031759
0.0065                    -0.0195                  347.68747558702574
0.0065                    -0.0185                  347.7245478094641
0.0065                    -0.0175                  348.15275479805894
0.0065                    -0.0165                  348.5809617866537
0.0065                    -0.0155                  348.5673702439523
0.0065                    -0.0145                  347.700729726148
0.0065                    -0.0135                  346.83408920834364
0.0065                    -0.0125                  346.372150947028
0.0065                    -0.0115                  344.8163958130167
0.0065                    -0.0105                  343.266509200224
0.0065                    -0.0095                  342.3641452987925
0.0065                    -0.0085                  340.88334854438267
0.0065                    -0.0075                  339.43166697396737
0.0065                    -0.0065                  338.2271362290719
0.0065                    -0.0055                  336.9367896505155
0.0065                    -0.0045                  335.64139778247437
0.0065                    -0.0035                  334.3780854225804
0.0065                    -0.0025                  333.1724376489833
0.0065                    -0.0015                  331.76705259480036
0.0065                    -5.0E-4                  330.2832403418863
0.0065                    5.0E-4                   328.92649614672086
0.0065                    0.0015                   325.0767349777877
0.0065                    0.0025                   320.0013207769842
0.0065                    0.0035                   314.9259065761807
0.0065                    0.0045                   308.2955598817063
0.0065                    0.0055                   301.45333729828735
0.0065                    0.0065                   296.131733812472
0.0065                    0.0075                   294.94950485184427
0.0065                    0.0085                   293.8706903307978
0.0065                    0.0095                   293.78969486907084
0.0065                    0.0105                   294.790274041645
0.0065                    0.0115                   295.93417373245825