% Model:              SIMBench260525.mph
% Version:            COMSOL 6.2.0.339
% Date:               May 27 2026, 18:00
% Dimension:          2
% Nodes:              4096
% Expressions:        1
% Description:        温度
% Length unit:        m
% x                       y                        T (K)
% mirrored_by_python_y_to_minus_y, coord_match_decimals=12
0.0005 -0.0315 345.085738916
0.0005 -0.0305 344.14996132
0.0005 -0.0295 343.175606435
0.0005 -0.0285 340.611762741
0.0005 -0.0275 337.462573468
0.0005 -0.0265 333.616522889
0.0005 -0.0255 322.660671662
0.0005 -0.0245 310.52988271
0.0005 -0.0235 301.118263808
0.0005 -0.0225 297.559030474
0.0005 -0.0215 294.178233601
0.0005 -0.0205 293.291998768
0.0005 -0.0195 293.192533894
0.0005 -0.0185 293.142552463
0.0005 -0.0175 293.151985518
0.0005 -0.0165 293.160803006
0.0005 -0.0155 293.156685127
0.0005 -0.0145 293.144059365
0.0005 -0.0135 293.126426366
0.0005 -0.0125 293.124736779
0.0005 -0.0115 293.170366542
0.0005 -0.0105 293.867546085
0.0005 -0.0095 296.969036052
0.0005 -0.0085 300.311063006
0.0005 -0.0075 309.002093272
0.0005 -0.0065 316.731798478
0.0005 -0.0055 324.461503684
0.0005 -0.0045 338.141152911
0.0005 -0.0035 355.098366425
0.0005 -0.0025 370.968070948
0.0005 -0.0015 375.232494721
0.0005 -0.0005 379.010471077
0.0005 0.0005 382.548085965
0.0005 0.0015 384.306566465
0.0005 0.0025 385.475305735
0.0005 0.0035 386.910810838
0.0005 0.0045 388.261991265
0.0005 0.0055 389.451289533
0.0005 0.0065 390.716372284
0.0005 0.0075 391.965053608
0.0005 0.0085 393.204828236
0.0005 0.0095 394.289344753
0.0005 0.0105 395.601473867
0.0005 0.0115 396.913602982
0.0005 0.0125 398.026634924
0.0005 0.0135 399.541141187
0.0005 0.0145 401.05564745
0.0005 0.0155 402.559049981
0.0005 0.0165 404.573739524
0.0005 0.0175 406.590265286
0.0005 0.0185 409.166241792
0.0005 0.0195 412.345616521
0.0005 0.0205 415.65288102
0.0005 0.0215 420.128468576
0.0005 0.0225 425.064486694
0.0005 0.0235 430.338651292
0.0005 0.0245 436.251731459
0.0005 0.0255 442.185071974
0.0005 0.0265 448.278842469
0.0005 0.0275 453.305007599
0.0005 0.0285 458.176985944
0.0005 0.0295 462.291335557
0.0005 0.0305 464.234546383
0.0005 0.0315 466.165761202
0.0015 -0.0315 343.770444447
0.0015 -0.0305 342.989310932
0.0015 -0.0295 341.596008453
0.0015 -0.0285 339.606694444
0.0015 -0.0275 336.626175262
0.0015 -0.0265 331.939697768
0.0015 -0.0255 325.81515914
0.0015 -0.0245 314.296465419
0.0015 -0.0235 304.158818471
0.0015 -0.0225 297.580302433
0.0015 -0.0215 295.158815426
0.0015 -0.0205 293.406892916
0.0015 -0.0195 293.15039501
0.0015 -0.0185 293.161768827
0.0015 -0.0175 293.173950533
0.0015 -0.0165 293.17782577
0.0015 -0.0155 293.171695313
0.0015 -0.0145 293.161596898
0.0015 -0.0135 293.119183879
0.0015 -0.0125 293.062261486
0.0015 -0.0115 293.106792496
0.0015 -0.0105 294.615316949
0.0015 -0.0095 296.62456544
0.0015 -0.0085 302.444965924
0.0015 -0.0075 313.548497863
0.0015 -0.0065 322.697656241
0.0015 -0.0055 332.98823531
0.0015 -0.0045 345.383408155
0.0015 -0.0035 361.100172975
0.0015 -0.0025 369.549336317
0.0015 -0.0015 374.266995703
0.0015 -0.0005 378.16190998
0.0015 0.0005 381.07058862
0.0015 0.0015 383.784016738
0.0015 0.0025 384.952756008
0.0015 0.0035 386.819818477
0.0015 0.0045 388.593800519
0.0015 0.0055 389.800628598
0.0015 0.0065 391.136803412
0.0015 0.0075 392.44461249
0.0015 0.0085 393.616535698
0.0015 0.0095 394.595994901
0.0015 0.0105 395.718834751
0.0015 0.0115 396.874909104
0.0015 0.0125 397.799581485
0.0015 0.0135 399.057930578
0.0015 0.0145 400.416628705
0.0015 0.0155 401.644522734
0.0015 0.0165 403.425228663
0.0015 0.0175 405.454615859
0.0015 0.0185 407.490746387
0.0015 0.0195 410.493132449
0.0015 0.0205 414.136069482
0.0015 0.0215 417.87469517
0.0015 0.0225 422.797870091
0.0015 0.0235 428.617419436
0.0015 0.0245 434.478412492
0.0015 0.0255 440.451770039
0.0015 0.0265 446.694001588
0.0015 0.0275 452.615791663
0.0015 0.0285 457.18887366
0.0015 0.0295 461.361435593
0.0015 0.0305 464.086061761
0.0015 0.0315 465.428122947
0.0025 -0.0315 342.455149979
0.0025 -0.0305 341.391524091
0.0025 -0.0295 339.879711814
0.0025 -0.0285 337.919813979
0.0025 -0.0275 335.732042474
0.0025 -0.0265 330.952048668
0.0025 -0.0255 326.172054862
0.0025 -0.0245 317.563351954
0.0025 -0.0235 307.47357328
0.0025 -0.0225 298.030409541
0.0025 -0.0215 295.89212748
0.0025 -0.0205 294.146574372
0.0025 -0.0195 293.164248064
0.0025 -0.0185 293.17768178
0.0025 -0.0175 293.191115495
0.0025 -0.0165 293.193195368
0.0025 -0.0155 293.187029598
0.0025 -0.0145 293.169837143
0.0025 -0.0135 293.11289399
0.0025 -0.0125 293.055950837
0.0025 -0.0115 293.649922035
0.0025 -0.0105 295.162933375
0.0025 -0.0095 296.675944716
0.0025 -0.0085 305.433719283
0.0025 -0.0075 316.559593123
0.0025 -0.0065 328.026583803
0.0025 -0.0055 340.467325489
0.0025 -0.0045 352.872489034
0.0025 -0.0035 362.926029536
0.0025 -0.0025 367.650595832
0.0025 -0.0015 372.375162127
0.0025 -0.0005 376.718022053
0.0025 0.0005 379.459033237
0.0025 0.0015 382.200044422
0.0025 0.0025 385.066801127
0.0025 0.0035 386.950514036
0.0025 0.0045 388.834226945
0.0025 0.0055 390.688809815
0.0025 0.0065 392.030283513
0.0025 0.0075 393.371757211
0.0025 0.0085 394.484048179
0.0025 0.0095 395.472161047
0.0025 0.0105 396.456680224
0.0025 0.0115 397.245158563
0.0025 0.0125 398.178187789
0.0025 0.0135 398.958513262
0.0025 0.0145 400.111758351
0.0025 0.0155 401.34428598
0.0025 0.0165 402.44762059
0.0025 0.0175 404.484105427
0.0025 0.0185 406.520590264
0.0025 0.0195 408.822029676
0.0025 0.0205 412.561998534
0.0025 0.0215 416.301967392
0.0025 0.0225 420.802232531
0.0025 0.0235 426.624864045
0.0025 0.0245 432.44749556
0.0025 0.0255 438.573781469
0.0025 0.0265 444.739223026
0.0025 0.0275 450.902346073
0.0025 0.0285 456.002931942
0.0025 0.0295 460.175913241
0.0025 0.0305 462.964854201
0.0025 0.0315 464.690484692
0.0035 -0.0315 340.677579801
0.0035 -0.0305 339.380051292
0.0035 -0.0295 338.05560117
0.0035 -0.0285 336.24842579
0.0035 -0.0275 334.744716225
0.0035 -0.0265 331.517028638
0.0035 -0.0255 325.556518126
0.0035 -0.0245 317.702240087
0.0035 -0.0235 307.780372003
0.0035 -0.0225 300.465434419
0.0035 -0.0215 295.723805037
0.0035 -0.0205 294.036931071
0.0035 -0.0195 293.377194249
0.0035 -0.0185 293.18045941
0.0035 -0.0175 293.196956906
0.0035 -0.0165 293.215595231
0.0035 -0.0155 293.209429461
0.0035 -0.0145 293.165946111
0.0035 -0.0135 293.110913618
0.0035 -0.0125 293.108799066
0.0035 -0.0115 293.477879142
0.0035 -0.0105 294.729223076
0.0035 -0.0095 297.907608073
0.0035 -0.0085 303.723407658
0.0035 -0.0075 314.849281498
0.0035 -0.0065 327.623708764
0.0035 -0.0055 340.705918852
0.0035 -0.0045 353.111082397
0.0035 -0.0035 358.360059136
0.0035 -0.0025 362.989153728
0.0035 -0.0015 367.758079276
0.0035 -0.0005 373.342625384
0.0035 0.0005 377.049007034
0.0035 0.0015 380.305068663
0.0035 0.0025 385.787490823
0.0035 0.0035 388.39872496
0.0035 0.0045 390.775303934
0.0035 0.0055 394.169999882
0.0035 0.0065 395.652248406
0.0035 0.0075 397.021911833
0.0035 0.0085 398.398977262
0.0035 0.0095 399.38709013
0.0035 0.0105 399.876423176
0.0035 0.0115 400.183057682
0.0035 0.0125 401.116086907
0.0035 0.0135 401.260431935
0.0035 0.0145 401.557095626
0.0035 0.0155 402.789623255
0.0035 0.0165 403.225875192
0.0035 0.0175 404.312642356
0.0035 0.0185 406.335574328
0.0035 0.0195 407.857427974
0.0035 0.0205 410.701705435
0.0035 0.0215 414.4425257
0.0035 0.0225 418.187341067
0.0035 0.0235 423.486124142
0.0035 0.0245 429.483951388
0.0035 0.0255 435.838604899
0.0035 0.0265 442.036541393
0.0035 0.0275 448.182909576
0.0035 0.0285 454.318353093
0.0035 0.0295 458.992396191
0.0035 0.0305 461.229440168
0.0035 0.0315 463.213962365
0.0045 -0.0315 339.149058106
0.0045 -0.0305 337.695368983
0.0045 -0.0295 336.275559784
0.0045 -0.0285 334.766569216
0.0045 -0.0275 333.256776482
0.0045 -0.0265 331.746983749
0.0045 -0.0255 324.465457181
0.0045 -0.0245 316.611179142
0.0045 -0.0235 308.892009334
0.0045 -0.0225 302.900459297
0.0045 -0.0215 296.90890926
0.0045 -0.0205 294.444822671
0.0045 -0.0195 293.78508585
0.0045 -0.0185 293.183237041
0.0045 -0.0175 293.203634889
0.0045 -0.0165 293.224211238
0.0045 -0.0155 293.215519594
0.0045 -0.0145 293.161985628
0.0045 -0.0135 293.108451663
0.0045 -0.0125 293.348291208
0.0045 -0.0115 293.717371283
0.0045 -0.0105 294.295512777
0.0045 -0.0095 299.648223518
0.0045 -0.0085 305.024584867
0.0045 -0.0075 313.761954462
0.0045 -0.0065 327.220833726
0.0045 -0.0055 340.67971299
0.0045 -0.0045 349.288184971
0.0045 -0.0035 353.817283891
0.0045 -0.0025 358.346382811
0.0045 -0.0015 363.618928043
0.0045 -0.0005 369.203474151
0.0045 0.0005 374.63898083
0.0045 0.0015 379.553482024
0.0045 0.0025 385.035904184
0.0045 0.0035 389.846935883
0.0045 0.0045 393.135319037
0.0045 0.0055 396.530014985
0.0045 0.0065 399.278304098
0.0045 0.0075 400.680368689
0.0045 0.0085 402.082433279
0.0045 0.0095 403.133070748
0.0045 0.0105 403.296166127
0.0045 0.0115 403.459261506
0.0045 0.0125 403.689749694
0.0045 0.0135 403.562350608
0.0045 0.0145 403.434951522
0.0045 0.0155 403.797815393
0.0045 0.0165 404.131507541
0.0045 0.0175 404.465199688
0.0045 0.0185 405.856537574
0.0045 0.0195 407.37839122
0.0045 0.0205 408.900244866
0.0045 0.0215 412.585205452
0.0045 0.0225 416.330020819
0.0045 0.0235 420.347384238
0.0045 0.0245 426.66085958
0.0045 0.0255 433.015513091
0.0045 0.0265 439.335463915
0.0045 0.0275 445.50060565
0.0045 0.0285 451.665747386
0.0045 0.0295 457.655824931
0.0045 0.0305 459.768879192
0.0045 0.0315 461.858209843
0.0055 -0.0315 337.620536412
0.0055 -0.0305 336.502045285
0.0055 -0.0295 335.373810888
0.0055 -0.0285 333.816695221
0.0055 -0.0275 332.306902488
0.0055 -0.0265 330.789359374
0.0055 -0.0255 326.553286264
0.0055 -0.0245 318.559617582
0.0055 -0.0235 309.767180094
0.0055 -0.0225 302.726872693
0.0055 -0.0215 297.032140621
0.0055 -0.0205 294.448423366
0.0055 -0.0195 293.790779586
0.0055 -0.0185 293.338163964
0.0055 -0.0175 293.217242098
0.0055 -0.0165 293.23774173
0.0055 -0.0155 293.225588998
0.0055 -0.0145 293.174952564
0.0055 -0.0135 293.143294438
0.0055 -0.0125 293.270164574
0.0055 -0.0115 293.642270292
0.0055 -0.0105 294.832154414
0.0055 -0.0095 298.771688934
0.0055 -0.0085 304.166833521
0.0055 -0.0075 312.867250206
0.0055 -0.0065 325.812911103
0.0055 -0.0055 338.719236197
0.0055 -0.0045 345.255213424
0.0055 -0.0035 349.781970435
0.0055 -0.0025 354.165140618
0.0055 -0.0015 358.609303786
0.0055 -0.0005 364.198362178
0.0055 0.0005 370.446777469
0.0055 0.0015 376.925203427
0.0055 0.0025 382.405561488
0.0055 0.0035 389.117652993
0.0055 0.0045 394.40033844
0.0055 0.0055 397.7918279
0.0055 0.0065 402.22300898
0.0055 0.0075 404.703279083
0.0055 0.0085 406.107147258
0.0055 0.0095 407.497554063
0.0055 0.0105 407.895336923
0.0055 0.0115 408.066681052
0.0055 0.0125 407.393837044
0.0055 0.0135 407.232697433
0.0055 0.0145 407.030237986
0.0055 0.0155 405.961920035
0.0055 0.0165 406.299791102
0.0055 0.0175 406.461771114
0.0055 0.0185 406.395179165
0.0055 0.0195 407.917788657
0.0055 0.0205 409.282483402
0.0055 0.0215 411.364690947
0.0055 0.0225 415.103376388
0.0055 0.0235 418.96345073
0.0055 0.0245 424.279152028
0.0055 0.0255 430.664329882
0.0055 0.0265 437.229215776
0.0055 0.0275 443.60260875
0.0055 0.0285 449.766586313
0.0055 0.0295 455.897952472
0.0055 0.0305 458.268663762
0.0055 0.0315 460.50245732
0.0065 -0.0315 336.775198733
0.0065 -0.0305 335.639594833
0.0065 -0.0295 334.467986313
0.0065 -0.0285 332.908918408
0.0065 -0.0275 331.354882862
0.0065 -0.0265 329.830644517
0.0065 -0.0255 328.306406171
0.0065 -0.0245 320.439231785
0.0065 -0.0235 311.323026067
0.0065 -0.0225 302.303396634
0.0065 -0.0215 298.252494845
0.0065 -0.0205 295.498837691
0.0065 -0.0195 293.779050503
0.0065 -0.0185 293.517831043
0.0065 -0.0175 293.256611584
0.0065 -0.0165 293.235850312
0.0065 -0.0155 293.219933099
0.0065 -0.0145 293.19051841
0.0065 -0.0135 293.206713895
0.0065 -0.0125 293.238016472
0.0065 -0.0115 293.695408814
0.0065 -0.0105 295.526433335
0.0065 -0.0095 297.357457857
0.0065 -0.0085 304.328680367
0.0065 -0.0075 313.699686583
0.0065 -0.0065 324.175413985
0.0065 -0.0055 333.380481915
0.0065 -0.0045 340.22944118
0.0065 -0.0035 345.871703355
0.0065 -0.0025 349.922103868
0.0065 -0.0015 353.890436242
0.0065 -0.0005 358.963684091
0.0065 0.0005 366.216082861
0.0065 0.0015 373.47527779
0.0065 0.0025 379.577216641
0.0065 0.0035 387.374703453
0.0065 0.0045 395.172190264
0.0065 0.0055 399.186592529
0.0065 0.0065 404.132885513
0.0065 0.0075 408.817391403
0.0065 0.0085 410.214505589
0.0065 0.0095 411.601635703
0.0065 0.0105 412.763989158
0.0065 0.0115 412.4529591
0.0065 0.0125 411.726982887
0.0065 0.0135 411.179315047
0.0065 0.0145 410.367350959
0.0065 0.0155 409.229024353
0.0065 0.0165 408.698913714
0.0065 0.0175 408.396632123
0.0065 0.0185 407.970689855
0.0065 0.0195 408.618794532
0.0065 0.0205 409.762682377
0.0065 0.0215 410.906570223
0.0065 0.0225 414.034084616
0.0065 0.0235 418.000754482
0.0065 0.0245 421.967424348
0.0065 0.0255 428.38317969
0.0065 0.0265 435.030443429
0.0065 0.0275 441.677707169
0.0065 0.0285 447.838860382
0.0065 0.0295 453.97022654
0.0065 0.0305 456.637427363
0.0065 0.0315 458.987879756
0.0075 -0.0315 336.057706638
0.0075 -0.0305 334.864436094
0.0075 -0.0295 333.640420898
0.0075 -0.0285 332.266747753
0.0075 -0.0275 330.875283187
0.0075 -0.0265 329.209801942
0.0075 -0.0255 327.544320697
0.0075 -0.0245 321.658099233
0.0075 -0.0235 312.425297362
0.0075 -0.0225 303.284829577
0.0075 -0.0215 298.634515208
0.0075 -0.0205 295.877402119
0.0075 -0.0195 293.964508551
0.0075 -0.0185 293.587000926
0.0075 -0.0175 293.330441282
0.0075 -0.0165 293.24417376
0.0075 -0.0155 293.227609107
0.0075 -0.0145 293.207556951
0.0075 -0.0135 293.228141736
0.0075 -0.0125 293.260236801
0.0075 -0.0115 293.786716867
0.0075 -0.0105 295.626662704
0.0075 -0.0095 297.466608541
0.0075 -0.0085 303.610835324
0.0075 -0.0075 313.001773554
0.0075 -0.0065 322.493815132
0.0075 -0.0055 330.343430638
0.0075 -0.0045 337.170391512
0.0075 -0.0035 342.00091196
0.0075 -0.0025 345.804240331
0.0075 -0.0015 349.771088321
0.0075 -0.0005 354.149663018
0.0075 0.0005 361.410023639
0.0075 0.0015 368.67038426
0.0075 0.0025 376.67095706
0.0075 0.0035 384.462681397
0.0075 0.0045 392.254405733
0.0075 0.0055 399.919681117
0.0075 0.0065 404.85397149
0.0075 0.0075 409.78938649
0.0075 0.0085 413.505021635
0.0075 0.0095 414.879348679
0.0075 0.0105 416.213223103
0.0075 0.0115 416.287468622
0.0075 0.0125 415.5503551
0.0075 0.0135 414.678383834
0.0075 0.0145 413.504413231
0.0075 0.0155 412.36124715
0.0075 0.0165 411.05672539
0.0075 0.0175 410.376226359
0.0075 0.0185 409.95178141
0.0075 0.0195 409.408581391
0.0075 0.0205 410.462041717
0.0075 0.0215 411.593910065
0.0075 0.0225 413.430751129
0.0075 0.0235 417.322631374
0.0075 0.0245 421.21451162
0.0075 0.0255 426.426060793
0.0075 0.0265 433.252657072
0.0075 0.0275 440.071192401
0.0075 0.0285 446.089639672
0.0075 0.0295 452.13283545
0.0075 0.0305 455.216246814
0.0075 0.0315 457.65660137
0.0085 -0.0315 335.354839699
0.0085 -0.0305 334.2969124
0.0085 -0.0295 333.163263731
0.0085 -0.0285 331.784228375
0.0085 -0.0275 330.408177767
0.0085 -0.0265 328.994519983
0.0085 -0.0255 327.943465868
0.0085 -0.0245 322.207797732
0.0085 -0.0235 313.026206292
0.0085 -0.0225 305.063845483
0.0085 -0.0215 298.90419261
0.0085 -0.0205 295.988358852
0.0085 -0.0195 294.613518311
0.0085 -0.0185 293.585984838
0.0085 -0.0175 293.404467516
0.0085 -0.0165 293.275239639
0.0085 -0.0155 293.246257504
0.0085 -0.0145 293.221065012
0.0085 -0.0135 293.20982303
0.0085 -0.0125 293.372959941
0.0085 -0.0115 293.8736214
0.0085 -0.0105 295.10360314
0.0085 -0.0095 298.126355787
0.0085 -0.0085 302.189931088
0.0085 -0.0075 310.564849887
0.0085 -0.0065 320.334513888
0.0085 -0.0055 330.035454472
0.0085 -0.0045 336.862415346
0.0085 -0.0035 339.104750168
0.0085 -0.0025 341.843531635
0.0085 -0.0015 345.877594041
0.0085 -0.0005 350.198769851
0.0085 0.0005 355.851885429
0.0085 0.0015 363.507256147
0.0085 0.0025 371.966023804
0.0085 0.0035 380.033830287
0.0085 0.0045 388.542447345
0.0085 0.0055 397.875067417
0.0085 0.0065 404.095284109
0.0085 0.0075 409.433951738
0.0085 0.0085 415.043943808
0.0085 0.0095 417.201021956
0.0085 0.0105 418.354352384
0.0085 0.0115 419.424834923
0.0085 0.0125 418.846894151
0.0085 0.0135 417.68426162
0.0085 0.0145 416.453027903
0.0085 0.0155 415.30180707
0.0085 0.0165 413.787459394
0.0085 0.0175 412.391066397
0.0085 0.0185 411.924155511
0.0085 0.0195 411.316901676
0.0085 0.0205 411.33958822
0.0085 0.0215 412.514279126
0.0085 0.0225 413.734680136
0.0085 0.0235 417.138646034
0.0085 0.0245 420.90839498
0.0085 0.0255 425.95095432
0.0085 0.0265 431.940085769
0.0085 0.0275 438.432889123
0.0085 0.0285 444.664760494
0.0085 0.0295 451.063638272
0.0085 0.0305 454.056047042
0.0085 0.0315 456.343452113
0.0095 -0.0315 334.923135311
0.0095 -0.0305 333.812824761
0.0095 -0.0295 332.686905502
0.0095 -0.0285 331.307870146
0.0095 -0.0275 329.985778167
0.0095 -0.0265 329.331579462
0.0095 -0.0255 328.348187561
0.0095 -0.0245 322.740865434
0.0095 -0.0235 313.744172088
0.0095 -0.0225 306.172644487
0.0095 -0.0215 300.124067417
0.0095 -0.0205 296.331698379
0.0095 -0.0195 294.948215242
0.0095 -0.0185 293.71116448
0.0095 -0.0175 293.462987592
0.0095 -0.0165 293.338597429
0.0095 -0.0155 293.259199797
0.0095 -0.0145 293.233854858
0.0095 -0.0135 293.208509919
0.0095 -0.0125 293.571036721
0.0095 -0.0115 294.075900817
0.0095 -0.0105 294.671757365
0.0095 -0.0095 298.647542747
0.0095 -0.0085 302.721235409
0.0095 -0.0075 308.285216545
0.0095 -0.0065 318.168887904
0.0095 -0.0055 328.052559264
0.0095 -0.0045 334.208243273
0.0095 -0.0035 336.429909588
0.0095 -0.0025 338.651575902
0.0095 -0.0015 342.150317289
0.0095 -0.0005 346.470371667
0.0095 0.0005 350.790426044
0.0095 0.0015 358.576683676
0.0095 0.0025 367.033020218
0.0095 0.0035 375.516239645
0.0095 0.0045 384.822211419
0.0095 0.0055 394.143104674
0.0095 0.0065 403.243855753
0.0095 0.0075 408.836892634
0.0095 0.0085 414.429929514
0.0095 0.0095 419.232191491
0.0095 0.0105 420.285091556
0.0095 0.0115 421.337991622
0.0095 0.0125 421.710660836
0.0095 0.0135 420.449023978
0.0095 0.0145 419.18738712
0.0095 0.0155 417.822778344
0.0095 0.0165 416.278995608
0.0095 0.0175 414.735212873
0.0095 0.0185 413.685231508
0.0095 0.0195 413.074245508
0.0095 0.0205 412.525952027
0.0095 0.0215 413.38680195
0.0095 0.0225 414.597881419
0.0095 0.0235 416.93453734
0.0095 0.0245 420.57809765
0.0095 0.0255 425.652949308
0.0095 0.0265 431.635195557
0.0095 0.0275 437.595765485
0.0095 0.0285 443.595563316
0.0095 0.0295 449.994441093
0.0095 0.0305 452.981489355
0.0095 0.0315 455.427078406
0.0105 -0.0315 334.554848191
0.0105 -0.0305 333.422722957
0.0105 -0.0295 332.250920017
0.0105 -0.0285 330.929253749
0.0105 -0.0275 329.60770221
0.0105 -0.0265 328.923955403
0.0105 -0.0255 328.330546104
0.0105 -0.0245 323.664598845
0.0105 -0.0235 314.950961446
0.0105 -0.0225 306.537522075
0.0105 -0.0215 301.130661636
0.0105 -0.0205 297.201084974
0.0105 -0.0195 294.773685459
0.0105 -0.0185 293.971536362
0.0105 -0.0175 293.484718088
0.0105 -0.0165 293.368127162
0.0105 -0.0155 293.278501577
0.0105 -0.0145 293.242601929
0.0105 -0.0135 293.275165866
0.0105 -0.0125 293.42946265
0.0105 -0.0115 293.934326745
0.0105 -0.0105 295.047652424
0.0105 -0.0095 297.432571622
0.0105 -0.0085 301.506264284
0.0105 -0.0075 307.49476205
0.0105 -0.0065 315.944623834
0.0105 -0.0055 325.542474555
0.0105 -0.0045 333.042323489
0.0105 -0.0035 336.073176923
0.0105 -0.0025 337.773796367
0.0105 -0.0015 338.676189314
0.0105 -0.0005 342.996243691
0.0105 0.0005 347.333123125
0.0105 0.0015 352.562309525
0.0105 0.0025 361.018646066
0.0105 0.0035 369.760476584
0.0105 0.0045 378.798551433
0.0105 0.0055 388.119444688
0.0105 0.0065 398.020635511
0.0105 0.0075 406.077950305
0.0105 0.0085 411.670987186
0.0105 0.0095 417.504836175
0.0105 0.0105 420.75724214
0.0105 0.0115 421.7994438
0.0105 0.0125 422.559068663
0.0105 0.0135 422.058995534
0.0105 0.0145 420.794603358
0.0105 0.0155 419.516564029
0.0105 0.0165 418.058227278
0.0105 0.0175 416.607626599
0.0105 0.0185 415.30789194
0.0105 0.0195 414.48879588
0.0105 0.0205 414.208605985
0.0105 0.0215 414.143575767
0.0105 0.0225 415.354655236
0.0105 0.0235 418.155109222
0.0105 0.0245 420.948147644
0.0105 0.0255 425.324274529
0.0105 0.0265 431.281806931
0.0105 0.0275 437.243147971
0.0105 0.0285 443.222095527
0.0105 0.0295 449.20989187
0.0105 0.0305 452.191321053
0.0105 0.0315 454.701152074
0.0115 -0.0315 334.184405386
0.0115 -0.0305 333.044594773
0.0115 -0.0295 331.873498243
0.0115 -0.0285 330.551542651
0.0115 -0.0275 329.229626254
0.0115 -0.0265 328.551004299
0.0115 -0.0255 328.018989072
0.0115 -0.0245 323.820320684
0.0115 -0.0235 315.54105181
0.0115 -0.0225 307.261782935
0.0115 -0.0215 302.372666557
0.0115 -0.0205 298.158032056
0.0115 -0.0195 295.175563969
0.0115 -0.0185 294.267388686
0.0115 -0.0175 293.506448584
0.0115 -0.0165 293.4124155
0.0115 -0.0155 293.322789915
0.0115 -0.0145 293.258516906
0.0115 -0.0135 293.359338269
0.0115 -0.0125 293.460159631
0.0115 -0.0115 294.023757571
0.0115 -0.0105 295.423547484
0.0115 -0.0095 296.823337397
0.0115 -0.0085 301.286579033
0.0115 -0.0075 307.486074454
0.0115 -0.0065 313.720359763
0.0115 -0.0055 321.981145744
0.0115 -0.0045 329.480994677
0.0115 -0.0035 335.716444258
0.0115 -0.0025 336.559098472
0.0115 -0.0015 337.238143831
0.0115 -0.0005 339.525041323
0.0115 0.0005 343.878296203
0.0115 0.0015 348.231551084
0.0115 0.0025 355.110361697
0.0115 0.0035 364.004713522
0.0115 0.0045 372.899065348
0.0115 0.0055 382.375667728
0.0115 0.0065 392.433655257
0.0115 0.0075 402.491642785
0.0115 0.0085 409.04612895
0.0115 0.0095 414.902149111
0.0115 0.0105 420.758169273
0.0115 0.0115 422.099177358
0.0115 0.0125 422.858802221
0.0115 0.0135 423.618427083
0.0115 0.0145 422.395323772
0.0115 0.0155 421.117284443
0.0115 0.0165 419.837458949
0.0115 0.0175 418.497509139
0.0115 0.0185 417.140620808
0.0115 0.0195 415.952520623
0.0115 0.0205 415.856423389
0.0115 0.0215 415.760326155
0.0115 0.0225 416.539214378
0.0115 0.0235 419.133368386
0.0115 0.0245 421.727522393
0.0115 0.0255 426.026866015
0.0115 0.0265 431.267669167
0.0115 0.0275 436.890530456
0.0115 0.0285 442.897149123
0.0115 0.0295 448.905899676
0.0115 0.0305 451.751187606
0.0115 0.0315 454.037130908
0.0125 -0.0315 333.865042291
0.0125 -0.0305 332.66393629
0.0125 -0.0295 331.496076468
0.0125 -0.0285 330.183507972
0.0125 -0.0275 328.90899327
0.0125 -0.0265 328.23867268
0.0125 -0.0255 327.709095083
0.0125 -0.0245 323.976042524
0.0125 -0.0235 316.039763709
0.0125 -0.0225 308.434599679
0.0125 -0.0215 303.106285574
0.0125 -0.0205 298.431581958
0.0125 -0.0195 295.717528026
0.0125 -0.0185 294.720099974
0.0125 -0.0175 293.668169012
0.0125 -0.0165 293.423174715
0.0125 -0.0155 293.332894659
0.0125 -0.0145 293.285081488
0.0125 -0.0135 293.363481365
0.0125 -0.0125 293.467363
0.0125 -0.0115 293.833591297
0.0125 -0.0105 295.196833146
0.0125 -0.0095 296.622811417
0.0125 -0.0085 299.779310196
0.0125 -0.0075 305.993637023
0.0125 -0.0065 312.552289621
0.0125 -0.0055 320.140167186
0.0125 -0.0045 327.627583284
0.0125 -0.0035 333.695942221
0.0125 -0.0025 335.724019272
0.0125 -0.0015 336.403769561
0.0125 -0.0005 336.90966917
0.0125 0.0005 340.540778801
0.0125 0.0015 344.89445552
0.0125 0.0025 348.979666219
0.0125 0.0035 357.68440652
0.0125 0.0045 366.574275976
0.0125 0.0055 375.093740254
0.0125 0.0065 385.134613268
0.0125 0.0075 395.177325945
0.0125 0.0085 404.475312064
0.0125 0.0095 410.311280626
0.0125 0.0105 416.272469391
0.0125 0.0115 421.215062344
0.0125 0.0125 421.961402023
0.0125 0.0135 422.933417861
0.0125 0.0145 423.471593384
0.0125 0.0155 422.159688155
0.0125 0.0165 420.948894435
0.0125 0.0175 419.793571768
0.0125 0.0185 418.436683437
0.0125 0.0195 417.585617318
0.0125 0.0205 417.199586674
0.0125 0.0215 417.178655396
0.0125 0.0225 417.828204512
0.0125 0.0235 420.020687963
0.0125 0.0245 422.506897143
0.0125 0.0255 426.901139669
0.0125 0.0265 432.020426084
0.0125 0.0275 437.177975055
0.0125 0.0285 442.664448973
0.0125 0.0295 448.601907483
0.0125 0.0305 451.392211686
0.0125 0.0315 453.769447551
0.0135 -0.0315 333.594216553
0.0135 -0.0305 332.387285612
0.0135 -0.0295 331.159057667
0.0135 -0.0285 329.883951259
0.0135 -0.0275 328.609436557
0.0135 -0.0265 327.92206629
0.0135 -0.0255 327.404070458
0.0135 -0.0245 324.568126581
0.0135 -0.0235 317.24744568
0.0135 -0.0225 309.64228165
0.0135 -0.0215 304.411898856
0.0135 -0.0205 299.375607108
0.0135 -0.0195 295.988650639
0.0135 -0.0185 294.806412827
0.0135 -0.0175 293.881939927
0.0135 -0.0165 293.548223916
0.0135 -0.0155 293.353619309
0.0135 -0.0145 293.325520322
0.0135 -0.0135 293.343584666
0.0135 -0.0125 293.58516295
0.0135 -0.0115 293.997878972
0.0135 -0.0105 294.747275288
0.0135 -0.0095 296.808022795
0.0135 -0.0085 299.346350412
0.0135 -0.0075 303.940233036
0.0135 -0.0065 311.302233319
0.0135 -0.0055 318.960216299
0.0135 -0.0045 326.457340941
0.0135 -0.0035 330.794161499
0.0135 -0.0025 335.048327861
0.0135 -0.0015 335.672343443
0.0135 -0.0005 336.085529229
0.0135 0.0005 337.251226988
0.0135 0.0015 341.476405814
0.0135 0.0025 345.502632592
0.0135 0.0035 351.146647931
0.0135 0.0045 359.750439961
0.0135 0.0055 368.124862356
0.0135 0.0065 377.239380778
0.0135 0.0075 387.292738485
0.0135 0.0085 397.35159751
0.0135 0.0095 405.107781086
0.0135 0.0105 411.407020581
0.0135 0.0115 417.805005285
0.0135 0.0125 420.744667107
0.0135 0.0135 422.138269642
0.0135 0.0145 423.603556736
0.0135 0.0155 423.140261672
0.0135 0.0165 422.040773135
0.0135 0.0175 420.962545611
0.0135 0.0185 420.006281866
0.0135 0.0195 419.242095046
0.0135 0.0205 418.653967807
0.0135 0.0215 418.784003958
0.0135 0.0225 419.290058466
0.0135 0.0235 421.482541917
0.0135 0.0245 423.670664278
0.0135 0.0255 427.515368046
0.0135 0.0265 432.568724621
0.0135 0.0275 437.736964131
0.0135 0.0285 443.223438049
0.0135 0.0295 448.590421887
0.0135 0.0305 451.187581407
0.0135 0.0315 453.574828198
0.0145 -0.0315 333.316107874
0.0145 -0.0305 332.092124843
0.0145 -0.0295 330.861263953
0.0145 -0.0285 329.585669085
0.0145 -0.0275 328.310074217
0.0145 -0.0265 327.683081469
0.0145 -0.0255 327.264711367
0.0145 -0.0245 324.469307266
0.0145 -0.0235 317.635756133
0.0145 -0.0225 310.802204999
0.0145 -0.0215 305.32354666
0.0145 -0.0205 299.91707932
0.0145 -0.0195 296.690887878
0.0145 -0.0185 295.150355226
0.0145 -0.0175 294.058698889
0.0145 -0.0165 293.667445505
0.0145 -0.0155 293.409731516
0.0145 -0.0145 293.375382944
0.0145 -0.0135 293.336170609
0.0145 -0.0125 293.688164443
0.0145 -0.0115 294.080206604
0.0145 -0.0105 294.530029153
0.0145 -0.0095 296.606197086
0.0145 -0.0085 299.148988754
0.0145 -0.0075 302.151429914
0.0145 -0.0065 309.680313399
0.0145 -0.0055 317.356228833
0.0145 -0.0045 324.258606725
0.0145 -0.0035 328.596459103
0.0145 -0.0025 332.934311481
0.0145 -0.0015 334.852026376
0.0145 -0.0005 335.265350227
0.0145 0.0005 335.678674078
0.0145 0.0015 338.12949625
0.0145 0.0025 342.159356402
0.0145 0.0035 346.071589536
0.0145 0.0045 352.900764534
0.0145 0.0055 361.274946934
0.0145 0.0065 369.176549944
0.0145 0.0075 378.586714173
0.0145 0.0085 388.624721058
0.0145 0.0095 398.366416101
0.0145 0.0105 404.996718526
0.0145 0.0115 411.387775271
0.0145 0.0125 418.30172478
0.0145 0.0135 419.928292519
0.0145 0.0145 421.554860258
0.0145 0.0155 423.789138553
0.0145 0.0165 422.995964932
0.0145 0.0175 421.863106689
0.0145 0.0185 421.601645483
0.0145 0.0195 420.954196699
0.0145 0.0205 420.560304622
0.0145 0.0215 420.530680394
0.0145 0.0225 420.751912419
0.0145 0.0235 422.931996598
0.0145 0.0245 425.112056548
0.0145 0.0255 428.9226897
0.0145 0.0265 433.44841078
0.0145 0.0275 438.249561208
0.0145 0.0285 443.515586033
0.0145 0.0295 448.781610858
0.0145 0.0305 451.316361542
0.0145 0.0315 453.476725915
0.0155 -0.0315 333.077555688
0.0155 -0.0305 331.798341073
0.0155 -0.0295 330.563470239
0.0155 -0.0285 329.297210161
0.0155 -0.0275 328.049387963
0.0155 -0.0265 327.483642776
0.0155 -0.0255 327.125352275
0.0155 -0.0245 324.370487952
0.0155 -0.0235 318.074660289
0.0155 -0.0225 312.179113777
0.0155 -0.0215 306.244737701
0.0155 -0.0205 300.458551533
0.0155 -0.0195 297.383701386
0.0155 -0.0185 295.555298256
0.0155 -0.0175 294.253094406
0.0155 -0.0165 293.747996384
0.0155 -0.0155 293.470652253
0.0155 -0.0145 293.415891714
0.0155 -0.0135 293.387479785
0.0155 -0.0125 293.560313732
0.0155 -0.0115 293.952355892
0.0155 -0.0105 294.661432811
0.0155 -0.0095 295.69108247
0.0155 -0.0085 298.233874138
0.0155 -0.0075 301.958092996
0.0155 -0.0065 307.289730989
0.0155 -0.0055 314.951887222
0.0155 -0.0045 322.517828702
0.0155 -0.0035 328.030353896
0.0155 -0.0025 331.652776506
0.0155 -0.0015 333.697405582
0.0155 -0.0005 334.453592877
0.0155 0.0005 334.860337156
0.0155 0.0015 335.261063763
0.0155 0.0025 339.06401081
0.0155 0.0035 342.485420212
0.0155 0.0045 346.035042641
0.0155 0.0055 354.409225042
0.0155 0.0065 361.335032025
0.0155 0.0075 368.640330907
0.0155 0.0085 378.663699866
0.0155 0.0095 388.002741511
0.0155 0.0105 396.444915873
0.0155 0.0115 403.086235337
0.0155 0.0125 410.935362825
0.0155 0.0135 415.310414577
0.0155 0.0145 417.82755219
0.0155 0.0155 421.982012169
0.0155 0.0165 422.690224956
0.0155 0.0175 422.973916181
0.0155 0.0185 422.849840345
0.0155 0.0195 422.666298352
0.0155 0.0205 422.471037029
0.0155 0.0215 422.472481561
0.0155 0.0225 422.682716678
0.0155 0.0235 424.533993179
0.0155 0.0245 426.553448818
0.0155 0.0255 430.352779348
0.0155 0.0265 434.614955597
0.0155 0.0275 439.01077059
0.0155 0.0285 443.833613987
0.0155 0.0295 448.97279983
0.0155 0.0305 451.492472359
0.0155 0.0315 453.628715073
0.0165 -0.0315 332.870773468
0.0165 -0.0305 331.591558854
0.0165 -0.0295 330.294093142
0.0165 -0.0285 329.044683856
0.0165 -0.0275 327.796861658
0.0165 -0.0265 327.225021713
0.0165 -0.0255 326.895899951
0.0165 -0.0245 324.926600673
0.0165 -0.0235 319.493230121
0.0165 -0.0225 313.597683609
0.0165 -0.0215 307.66274818
0.0165 -0.0205 301.530559612
0.0165 -0.0195 297.793186459
0.0165 -0.0185 295.832396333
0.0165 -0.0175 294.483754649
0.0165 -0.0165 293.968947049
0.0165 -0.0155 293.516033692
0.0165 -0.0145 293.436975174
0.0165 -0.0135 293.443119179