% Model:              SIMBench260525.mph
% Version:            COMSOL 6.2.0.339
% Date:               May 27 2026, 18:13
% Dimension:          2
% Nodes:              4096
% Expressions:        1
% Description:        温度
% Length unit:        m
% x                       y                        T (K)
5.0E-4                    -0.0315                  414.6013262572913
5.0E-4                    -0.0305                  412.5823280296272
5.0E-4                    -0.0295                  410.5548409582631
5.0E-4                    -0.0285                  406.66812607150314
5.0E-4                    -0.0275                  402.330055439396
5.0E-4                    -0.0265                  397.99021645289406
5.0E-4                    -0.0255                  393.72633613253726
5.0E-4                    -0.0245                  389.876604915295
5.0E-4                    -0.0235                  386.1296758197461
5.0E-4                    -0.0225                  383.51703625652027
5.0E-4                    -0.0215                  381.09743354594644
5.0E-4                    -0.0205                  378.79709747488727
5.0E-4                    -0.0195                  377.0579560820928
5.0E-4                    -0.0185                  375.3392137198971
5.0E-4                    -0.0175                  373.67673859246656
5.0E-4                    -0.0165                  372.2110510122403
5.0E-4                    -0.0155                  370.7700882928193
5.0E-4                    -0.0145                  369.2513380427222
5.0E-4                    -0.0135                  367.88697808784747
5.0E-4                    -0.0125                  366.624683318886
5.0E-4                    -0.0115                  365.08180179693
5.0E-4                    -0.0105                  363.6099232444884
5.0E-4                    -0.0095                  362.22218021553
5.0E-4                    -0.0085                  360.23893531476864
5.0E-4                    -0.0075                  357.2996350412421
5.0E-4                    -0.0065                  354.32271600687176
5.0E-4                    -0.0055                  351.0396893242017
5.0E-4                    -0.0045                  338.95170658855795
5.0E-4                    -0.0035                  326.86372385291423
5.0E-4                    -0.0025                  317.3212075051167
5.0E-4                    -0.0015                  310.919587150344
5.0E-4                    -5.0E-4                  304.51796679557134
5.0E-4                    5.0E-4                   298.219679547503
5.0E-4                    0.0015                   295.853634828695
5.0E-4                    0.0025                   293.6624282981161
5.0E-4                    0.0035                   293.1724993798963
5.0E-4                    0.0045                   293.13775630662974
5.0E-4                    0.0055                   293.13736498391324
5.0E-4                    0.0065                   293.1500055903508
5.0E-4                    0.0075                   293.159017298327
5.0E-4                    0.0085                   293.1569614638377
5.0E-4                    0.0095                   293.143419181516
5.0E-4                    0.0105                   293.1328189539014
5.0E-4                    0.0115                   293.25193260720494
5.0E-4                    0.0125                   293.46121044526853
5.0E-4                    0.0135                   295.11669949922117
5.0E-4                    0.0145                   300.9983370786798
5.0E-4                    0.0155                   307.2099249802761
5.0E-4                    0.0165                   322.91845600376195
5.0E-4                    0.0175                   344.7707385541827
5.0E-4                    0.0185                   364.9075423473656
5.0E-4                    0.0195                   372.8237196737167
5.0E-4                    0.0205                   379.7077986282493
5.0E-4                    0.0215                   385.73997549787117
5.0E-4                    0.0225                   389.7537563711543
5.0E-4                    0.0235                   393.6484538547827
5.0E-4                    0.0245                   397.9346470187163
5.0E-4                    0.0255                   401.5368797670533
5.0E-4                    0.0265                   405.25121325843344
5.0E-4                    0.0275                   408.9200542355505
5.0E-4                    0.0285                   412.054822688532
5.0E-4                    0.0295                   415.1811114449907
5.0E-4                    0.0305                   416.71537307655717
5.0E-4                    0.0315                   418.18579324568157
0.0015                    -0.0315                  414.08400252580805
0.0015                    -0.0305                  412.5293379033243
0.0015                    -0.0295                  409.8079189550024
0.0015                    -0.0285                  405.59798709404924
0.0015                    -0.0275                  401.3147658760976
0.0015                    -0.0265                  396.86594977894964
0.0015                    -0.0255                  392.3621870867828
0.0015                    -0.0245                  388.3402418828008
0.0015                    -0.0235                  385.28383094591277
0.0015                    -0.0225                  382.50091034227387
0.0015                    -0.0215                  380.030659463657
0.0015                    -0.0205                  378.14734604349746
0.0015                    -0.0195                  376.38220436311417
0.0015                    -0.0185                  374.66131858681564
0.0015                    -0.0175                  373.13019051077913
0.0015                    -0.0165                  371.62149332187687
0.0015                    -0.0155                  370.18053060245586
0.0015                    -0.0145                  368.5258296362479
0.0015                    -0.0135                  366.92147242335454
0.0015                    -0.0125                  365.61324380557613
0.0015                    -0.0115                  363.72565685719815
0.0015                    -0.0105                  361.94918618885754
0.0015                    -0.0095                  360.3842047694866
0.0015                    -0.0085                  357.89009052334325
0.0015                    -0.0075                  355.2454844934258
0.0015                    -0.0065                  352.1925669809808
0.0015                    -0.0055                  348.91028062204487
0.0015                    -0.0045                  342.0832903722254
0.0015                    -0.0035                  331.0734334051235
0.0015                    -0.0025                  322.1453596827482
0.0015                    -0.0015                  314.48962539808235
0.0015                    -5.0E-4                  307.4635808853334
0.0015                    5.0E-4                   299.64613401556676
0.0015                    0.0015                   295.59476365387724
0.0015                    0.0025                   294.1901957249129
0.0015                    0.0035                   293.1350376815736
0.0015                    0.0045                   293.0988568388836
0.0015                    0.0055                   293.1387303503499
0.0015                    0.0065                   293.1689160215402
0.0015                    0.0075                   293.1738897173772
0.0015                    0.0085                   293.1720843111708
0.0015                    0.0095                   293.16274851807236
0.0015                    0.0105                   293.16595383453443
0.0015                    0.0115                   293.1761758561998
0.0015                    0.0125                   293.5083977843191
0.0015                    0.0135                   296.8756291912796
0.0015                    0.0145                   301.14924729491764
0.0015                    0.0155                   311.4232779822403
0.0015                    0.0165                   328.1355871626478
0.0015                    0.0175                   348.274840365375
0.0015                    0.0185                   360.77567799327846
0.0015                    0.0195                   369.9716595154411
0.0015                    0.0205                   376.6800523790894
0.0015                    0.0215                   381.7791162107362
0.0015                    0.0225                   386.4325193126682
0.0015                    0.0235                   390.68407918250125
0.0015                    0.0245                   395.35927836566475
0.0015                    0.0255                   399.2910988044693
0.0015                    0.0265                   403.466536603494
0.0015                    0.0275                   407.779477816506
0.0015                    0.0285                   410.94253134067435
0.0015                    0.0295                   414.06049709236345
0.0015                    0.0305                   416.2375281631604
0.0015                    0.0315                   417.1461795893915
0.0025                    -0.0315                  413.56667879432496
0.0025                    -0.0305                  411.7630356378157
0.0025                    -0.0295                  408.9386691872627
0.0025                    -0.0285                  404.6797833005536
0.0025                    -0.0275                  400.1527867682604
0.0025                    -0.0265                  395.62278421179167
0.0025                    -0.0255                  391.133826337551
0.0025                    -0.0245                  387.2870351609007
0.0025                    -0.0235                  384.49795593568115
0.0025                    -0.0225                  381.70887671046177
0.0025                    -0.0215                  379.46416871645397
0.0025                    -0.0205                  377.6958158841254
0.0025                    -0.0195                  375.92746305179685
0.0025                    -0.0185                  374.36093364977364
0.0025                    -0.0175                  372.84428377718837
0.0025                    -0.0165                  371.3276339046029
0.0025                    -0.0155                  369.6451000254795
0.0025                    -0.0145                  367.9850199449347
0.0025                    -0.0135                  366.3249398643899
0.0025                    -0.0125                  364.1931170245965
0.0025                    -0.0115                  362.30604367670844
0.0025                    -0.0105                  360.4189703288203
0.0025                    -0.0095                  357.7293494593679
0.0025                    -0.0085                  355.2359443351336
0.0025                    -0.0075                  352.7425392108993
0.0025                    -0.0065                  349.5183009943999
0.0025                    -0.0055                  346.23398264680776
0.0025                    -0.0045                  342.9496642992157
0.0025                    -0.0035                  335.3613354760273
0.0025                    -0.0025                  326.4364112878933
0.0025                    -0.0015                  317.5139556714571
0.0025                    -5.0E-4                  309.564978818571
0.0025                    5.0E-4                   301.71400251094553
0.0025                    0.0015                   295.638853127357
0.0025                    0.0025                   294.5794603617321
0.0025                    0.0035                   293.5200675961073
0.0025                    0.0045                   293.100832382569
0.0025                    0.0055                   293.1407175780598
0.0025                    0.0065                   293.18060277355056
0.0025                    0.0075                   293.1881848031714
0.0025                    0.0085                   293.1863965637953
0.0025                    0.0095                   293.1804423258043
0.0025                    0.0105                   293.1905981212779
0.0025                    0.0115                   293.2007539167515
0.0025                    0.0125                   294.8798369998807
0.0025                    0.0135                   298.24491455279053
0.0025                    0.0145                   301.60999210570026
0.0025                    0.0155                   316.6449480793699
0.0025                    0.0165                   333.3388434690607
0.0025                    0.0175                   347.66382591005964
0.0025                    0.0185                   356.9050634313845
0.0025                    0.0195                   366.14630095270957
0.0025                    0.0205                   372.09250907160396
0.0025                    0.0215                   377.18237964451396
0.0025                    0.0225                   382.2833104163471
0.0025                    0.0235                   387.0038779033794
0.0025                    0.0245                   391.6318766929387
0.0025                    0.0255                   396.7462285296365
0.0025                    0.0265                   400.96105499342076
0.0025                    0.0275                   405.17588145720504
0.0025                    0.0285                   409.4231871207636
0.0025                    0.0295                   412.4318244496902
0.0025                    0.0305                   414.66466195921055
0.0025                    0.0315                   416.10656593310136
0.0035                    -0.0315                  412.6717982141091
0.0035                    -0.0305                  410.5463682564745
0.0035                    -0.0295                  408.27035168140696
0.0035                    -0.0285                  403.88003163131697
0.0035                    -0.0275                  398.90631918252876
0.0035                    -0.0265                  394.080934178286
0.0035                    -0.0255                  389.7039043643426
0.0035                    -0.0245                  386.79899219860397
0.0035                    -0.0235                  383.95604733747734
0.0035                    -0.0225                  381.2923554017596
0.0035                    -0.0215                  379.91365752424736
0.0035                    -0.0205                  378.2818005157257
0.0035                    -0.0195                  376.6197611361336
0.0035                    -0.0185                  375.4391311004706
0.0035                    -0.0175                  374.0093698605941
0.0035                    -0.0165                  372.3477959700377
0.0035                    -0.0155                  370.27179422639165
0.0035                    -0.0145                  368.5400869876069
0.0035                    -0.0135                  366.21819256965034
0.0035                    -0.0125                  362.53143686453075
0.0035                    -0.0115                  360.4929462242613
0.0035                    -0.0105                  357.5708100279314
0.0035                    -0.0095                  353.1502406057999
0.0035                    -0.0085                  350.6568354815657
0.0035                    -0.0075                  347.64672662211376
0.0035                    -0.0065                  344.1315307616458
0.0035                    -0.0055                  340.84721241405373
0.0035                    -0.0045                  338.14026704367006
0.0035                    -0.0035                  334.603155368648
0.0035                    -0.0025                  325.678231180514
0.0035                    -0.0015                  316.77844107201713
0.0035                    -5.0E-4                  308.24558824088734
0.0035                    5.0E-4                   300.3946119332619
0.0035                    0.0015                   296.4433891872584
0.0035                    0.0025                   294.27344837706715
0.0035                    0.0035                   293.40032800459755
0.0035                    0.0045                   293.14546027134156
0.0035                    0.0055                   293.1455626229223
0.0035                    0.0065                   293.18219671767173
0.0035                    0.0075                   293.20993226810515
0.0035                    0.0085                   293.20814402872907
0.0035                    0.0095                   293.186371212494
0.0035                    0.0105                   293.1788890886314
0.0035                    0.0115                   293.478958972889
0.0035                    0.0125                   294.933157325738
0.0035                    0.0135                   297.98651506695984
0.0035                    0.0145                   305.3879189839113
0.0035                    0.0155                   317.23228364678135
0.0035                    0.0165                   333.92617903647226
0.0035                    0.0175                   344.4494145109339
0.0035                    0.0185                   354.0374998977581
0.0035                    0.0195                   361.5019802618716
0.0035                    0.0205                   365.2624285784964
0.0035                    0.0215                   370.2782135170209
0.0035                    0.0225                   375.4544836942631
0.0035                    0.0235                   380.47835931975715
0.0035                    0.0245                   385.24613057022066
0.0035                    0.0255                   391.7403232702028
0.0035                    0.0265                   396.8305300342808
0.0035                    0.0275                   401.4985285716304
0.0035                    0.0285                   406.66980169316736
0.0035                    0.0295                   410.40244765800037
0.0035                    0.0305                   412.3108930123344
0.0035                    0.0315                   413.86196092969766
0.0045                    -0.0315                  412.18381372277145
0.0045                    -0.0305                  409.8393617553775
0.0045                    -0.0295                  407.50516630712303
0.0045                    -0.0285                  402.6848372156329
0.0045                    -0.0275                  397.7028338767482
0.0045                    -0.0265                  392.72083053786343
0.0045                    -0.0255                  389.22944214468
0.0045                    -0.0245                  386.3245299789413
0.0045                    -0.0235                  383.4196178132026
0.0045                    -0.0225                  381.6431635734945
0.0045                    -0.0215                  380.26446569598227
0.0045                    -0.0205                  378.86778514732606
0.0045                    -0.0195                  377.5812426327824
0.0045                    -0.0185                  376.40061259711933
0.0045                    -0.0175                  375.17445594399993
0.0045                    -0.0165                  373.1560377247796
0.0045                    -0.0155                  371.0800359811335
0.0045                    -0.0145                  369.09515403027916
0.0045                    -0.0135                  365.50068305732333
0.0045                    -0.0125                  361.8139273522038
0.0045                    -0.0115                  358.5996737710827
0.0045                    -0.0105                  354.1695335261796
0.0045                    -0.0095                  349.73939328127653
0.0045                    -0.0085                  345.9538645644751
0.0045                    -0.0075                  342.41483873690777
0.0045                    -0.0065                  338.8758129093404
0.0045                    -0.0055                  335.6669462177792
0.0045                    -0.0045                  333.3674397592938
0.0045                    -0.0035                  331.0679333008085
0.0045                    -0.0025                  324.93160027342486
0.0045                    -0.0015                  316.04292647257716
0.0045                    -5.0E-4                  307.15425267172935
0.0045                    5.0E-4                   301.3668300648018
0.0045                    0.0015                   297.6411570246812
0.0045                    0.0025                   293.9674363924023
0.0045                    0.0035                   293.57300677379556
0.0045                    0.0045                   293.3181390405396
0.0045                    0.0055                   293.14964756236753
0.0045                    0.0065                   293.18352672485844
0.0045                    0.0075                   293.21740588734934
0.0045                    0.0085                   293.21959338044064
0.0045                    0.0095                   293.19472484491234
0.0045                    0.0105                   293.169856309384
0.0045                    0.0115                   294.30253478305474
0.0045                    0.0125                   295.7567331359037
0.0045                    0.0135                   298.6785540424937
0.0045                    0.0145                   309.34529070662734
0.0045                    0.0155                   320.0120273707609
0.0045                    0.0165                   331.0949904264709
0.0045                    0.0175                   341.1432759359375
0.0045                    0.0185                   351.16993636413156
0.0045                    0.0195                   355.3049675099882
0.0045                    0.0205                   359.06541582661305
0.0045                    0.0215                   363.413260849936
0.0045                    0.0225                   368.62565697217906
0.0045                    0.0235                   373.83805309442215
0.0045                    0.0245                   379.8878798857115
0.0045                    0.0255                   386.3820725856936
0.0045                    0.0265                   392.7876121969889
0.0045                    0.0275                   397.95284871269087
0.0045                    0.0285                   403.1180852283927
0.0045                    0.0295                   408.26508755834544
0.0045                    0.0305                   409.78807444876776
0.0045                    0.0315                   411.25836014640606
0.0055                    -0.0315                  411.6958292314337
0.0055                    -0.0305                  409.4988791984122
0.0055                    -0.0295                  407.2611404269629
0.0055                    -0.0285                  402.3054756327792
0.0055                    -0.0275                  397.3241759214053
0.0055                    -0.0265                  392.91376290665085
0.0055                    -0.0255                  389.5738007878971
0.0055                    -0.0245                  386.6029311484564
0.0055                    -0.0235                  384.2303884853748
0.0055                    -0.0225                  383.0910512246289
0.0055                    -0.0215                  381.7159615634787
0.0055                    -0.0205                  380.6254904898541
0.0055                    -0.0195                  379.67854131341187
0.0055                    -0.0185                  378.4933720404109
0.0055                    -0.0175                  376.48857749884513
0.0055                    -0.0165                  374.11429217788793
0.0055                    -0.0155                  372.0368647031667
0.0055                    -0.0145                  367.86421255861006
0.0055                    -0.0135                  363.4122394009356
0.0055                    -0.0125                  359.73116599511394
0.0055                    -0.0115                  354.59769827787824
0.0055                    -0.0105                  349.7267405646188
0.0055                    -0.0095                  345.2977025215003
0.0055                    -0.0085                  341.25117116776
0.0055                    -0.0075                  337.6338711818346
0.0055                    -0.0065                  334.09522252922847
0.0055                    -0.0055                  332.3600934109023
0.0055                    -0.0045                  330.17581429617314
0.0055                    -0.0035                  327.883950232493
0.0055                    -0.0025                  323.8684298210934
0.0055                    -0.0015                  314.97656483833987
0.0055                    -5.0E-4                  306.5210582997282
0.0055                    5.0E-4                   300.7594332654139
0.0055                    0.0015                   297.0134885789121
0.0055                    0.0025                   294.3323138532612
0.0055                    0.0035                   293.5255948110315
0.0055                    0.0045                   293.268790573131
0.0055                    0.0055                   293.1808863274322
0.0055                    0.0065                   293.1995164252163
0.0055                    0.0075                   293.2324308205028
0.0055                    0.0085                   293.2295679004397
0.0055                    0.0095                   293.2047048470032
0.0055                    0.0105                   293.4119318687922
0.0055                    0.0115                   294.3292298233097
0.0055                    0.0125                   295.7825447754288
0.0055                    0.0135                   300.3233839598991
0.0055                    0.0145                   309.5485058064098
0.0055                    0.0155                   320.3590967722529
0.0055                    0.0165                   333.04733163962806
0.0055                    0.0175                   343.149151411439
0.0055                    0.0185                   348.9243277050811
0.0055                    0.0195                   351.40038329636087
0.0055                    0.0205                   355.16291316525144
0.0055                    0.0215                   358.45519326807175
0.0055                    0.0225                   363.47471463004695
0.0055                    0.0235                   368.73510294184723
0.0055                    0.0245                   374.4275112350607
0.0055                    0.0255                   380.9170199948624
0.0055                    0.0265                   387.7136772561838
0.0055                    0.0275                   393.87307641675943
0.0055                    0.0285                   399.0383129324614
0.0055                    0.0295                   404.35112234270224
0.0055                    0.0305                   406.6630755797582
0.0055                    0.0315                   408.6547593631144
0.0065                    -0.0315                  411.52583360434966
0.0065                    -0.0305                  409.30990014010837
0.0065                    -0.0295                  406.858701036649
0.0065                    -0.0285                  401.9030362424651
0.0065                    -0.0275                  396.94551796606237
0.0065                    -0.0265                  393.50292277389696
0.0065                    -0.0255                  390.06143603013294
0.0065                    -0.0245                  386.963591694445
0.0065                    -0.0235                  385.7107828391671
0.0065                    -0.0225                  384.6949758271851
0.0065                    -0.0215                  383.47942482661796
0.0065                    -0.0205                  382.7231933070791
0.0065                    -0.0195                  381.96696178754013
0.0065                    -0.0185                  380.5661663006346
0.0065                    -0.0175                  377.8663507606444
0.0065                    -0.0165                  375.1665352206543
0.0065                    -0.0155                  372.25120101452444
0.0065                    -0.0145                  366.59828259488967
0.0065                    -0.0135                  360.9453641752549
0.0065                    -0.0125                  356.64419531078494
0.0065                    -0.0115                  350.7462324020664
0.0065                    -0.0105                  344.9826011113359
0.0065                    -0.0095                  340.74235024387787
0.0065                    -0.0085                  336.82847448662994
0.0065                    -0.0075                  332.983829637858
0.0065                    -0.0065                  330.43595122980264
0.0065                    -0.0055                  329.0604071546153
0.0065                    -0.0045                  327.42719444378554
0.0065                    -0.0035                  324.10640386659924
0.0065                    -0.0025                  320.01292262777577
0.0065                    -0.0015                  313.82654237403784
0.0065                    -5.0E-4                  306.96184682031446
0.0065                    5.0E-4                   300.6636316792478
0.0065                    0.0015                   296.06688266990466
0.0065                    0.0025                   294.81391236304864
0.0065                    0.0035                   293.56094205619263
0.0065                    0.0045                   293.2521696479765
0.0065                    0.0055                   293.2309552595302
0.0065                    0.0065                   293.21790230515256
0.0065                    0.0075                   293.2296758995459
0.0065                    0.0085                   293.2273824437093
0.0065                    0.0095                   293.2149252732391
0.0065                    0.0105                   293.7980759555437
0.0065                    0.0115                   294.4253810710563