% Model:              SIMBench260525.mph
% Version:            COMSOL 6.2.0.339
% Date:               May 27 2026, 18:15
% Dimension:          2
% Nodes:              4096
% Expressions:        1
% Description:        温度
% Length unit:        m
% x                       y                        T (K)
% mirrored_by_python_y_to_minus_y, coord_match_decimals=12
0.0005 -0.0315 352.631979897
0.0005 -0.0305 350.813358224
0.0005 -0.0295 348.936201935
0.0005 -0.0285 345.849528555
0.0005 -0.0275 343.044484622
0.0005 -0.0265 339.906529308
0.0005 -0.0255 337.39730577
0.0005 -0.0245 335.08092379
0.0005 -0.0235 331.415348507
0.0005 -0.0225 327.142618662
0.0005 -0.0215 323.019612579
0.0005 -0.0205 318.27364005
0.0005 -0.0195 311.719465031
0.0005 -0.0185 306.324666478
0.0005 -0.0175 302.77256563
0.0005 -0.0165 299.276560441
0.0005 -0.0155 296.168611863
0.0005 -0.0145 294.788921513
0.0005 -0.0135 293.492546271
0.0005 -0.0125 293.174606438
0.0005 -0.0115 293.150027677
0.0005 -0.0105 293.142882727
0.0005 -0.0095 293.148371624
0.0005 -0.0085 293.152660854
0.0005 -0.0075 293.151475828
0.0005 -0.0065 293.145781428
0.0005 -0.0055 293.137862861
0.0005 -0.0045 293.137969869
0.0005 -0.0035 293.159195655
0.0005 -0.0025 293.525978963
0.0005 -0.0015 295.034062837
0.0005 -0.0005 296.65089095
0.0005 0.0005 300.076245015
0.0005 0.0015 302.687264524
0.0005 0.0025 305.298284034
0.0005 0.0035 310.723658529
0.0005 0.0045 318.329362683
0.0005 0.0055 325.935066838
0.0005 0.0065 328.68661756
0.0005 0.0075 330.386757382
0.0005 0.0085 332.078033862
0.0005 0.0095 333.28166413
0.0005 0.0105 334.039853752
0.0005 0.0115 334.797429005
0.0005 0.0125 335.464817603
0.0005 0.0135 336.061429981
0.0005 0.0145 336.569030962
0.0005 0.0155 337.111148209
0.0005 0.0165 337.816681942
0.0005 0.0175 338.348655411
0.0005 0.0185 339.097377156
0.0005 0.0195 340.047544422
0.0005 0.0205 340.784245943
0.0005 0.0215 341.947976137
0.0005 0.0225 343.267380544
0.0005 0.0235 344.467527325
0.0005 0.0245 346.695304247
0.0005 0.0255 349.043886107
0.0005 0.0265 351.836024999
0.0005 0.0275 355.030757115
0.0005 0.0285 358.227060745
0.0005 0.0295 361.410379316
0.0005 0.0305 363.13216233
0.0005 0.0315 364.847206672
0.0015 -0.0315 352.111450988
0.0015 -0.0305 350.699889843
0.0015 -0.0295 348.215544233
0.0015 -0.0285 344.852445428
0.0015 -0.0275 341.927062767
0.0015 -0.0265 338.387610888
0.0015 -0.0255 335.085014266
0.0015 -0.0245 332.248952889
0.0015 -0.0235 328.240476912
0.0015 -0.0225 324.088288418
0.0015 -0.0215 320.769990413
0.0015 -0.0205 318.013042223
0.0015 -0.0195 311.82050557
0.0015 -0.0185 307.863031115
0.0015 -0.0175 304.060777841
0.0015 -0.0165 300.538999095
0.0015 -0.0155 296.96557233
0.0015 -0.0145 294.736932109
0.0015 -0.0135 293.845618099
0.0015 -0.0125 293.181220792
0.0015 -0.0115 293.130575174
0.0015 -0.0105 293.144528765
0.0015 -0.0095 293.15563845
0.0015 -0.0085 293.157825745
0.0015 -0.0075 293.156241576
0.0015 -0.0065 293.15208337
0.0015 -0.0055 293.133401492
0.0015 -0.0045 293.108762164
0.0015 -0.0035 293.13092506
0.0015 -0.0025 293.9273003
0.0015 -0.0015 294.944411406
0.0015 -0.0005 297.427203942
0.0015 0.0005 301.820959786
0.0015 0.0015 305.220473601
0.0015 0.0025 308.973793835
0.0015 0.0035 313.892099286
0.0015 0.0045 320.588472604
0.0015 0.0055 325.606966392
0.0015 0.0065 328.8973399
0.0015 0.0075 330.990602709
0.0015 0.0085 332.612378354
0.0015 0.0095 334.198615044
0.0015 0.0105 335.088694504
0.0015 0.0115 335.844044441
0.0015 0.0125 336.598579941
0.0015 0.0135 337.206527914
0.0015 0.0145 337.504818556
0.0015 0.0155 337.761292315
0.0015 0.0165 338.466826049
0.0015 0.0175 338.696748048
0.0015 0.0185 338.975270275
0.0015 0.0195 339.90232412
0.0015 0.0205 340.367482674
0.0015 0.0215 340.9868883
0.0015 0.0225 342.275002111
0.0015 0.0235 343.369949949
0.0015 0.0245 344.786283351
0.0015 0.0255 347.319308129
0.0015 0.0265 350.368362765
0.0015 0.0275 353.466247947
0.0015 0.0285 356.828499083
0.0015 0.0295 360.412487883
0.0015 0.0305 362.727892985
0.0015 0.0315 364.074336987
0.0025 -0.0315 351.590922079
0.0025 -0.0305 349.941687426
0.0025 -0.0295 347.49296692
0.0025 -0.0285 344.130281194
0.0025 -0.0275 339.946505061
0.0025 -0.0265 336.462516925
0.0025 -0.0255 332.97852879
0.0025 -0.0245 328.746965937
0.0025 -0.0235 324.753744381
0.0025 -0.0225 320.9908592
0.0025 -0.0215 318.258285141
0.0025 -0.0205 315.506584977
0.0025 -0.0195 312.81645222
0.0025 -0.0185 308.911870779
0.0025 -0.0175 305.007289338
0.0025 -0.0165 301.511960668
0.0025 -0.0155 297.940648821
0.0025 -0.0145 294.774028324
0.0025 -0.0135 294.110441376
0.0025 -0.0125 293.446854427
0.0025 -0.0115 293.131732235
0.0025 -0.0105 293.14568914
0.0025 -0.0095 293.159646045
0.0025 -0.0085 293.162623109
0.0025 -0.0075 293.16102861
0.0025 -0.0065 293.153579312
0.0025 -0.0055 293.128939986
0.0025 -0.0045 293.104300661
0.0025 -0.0035 293.434559331
0.0025 -0.0025 294.233614944
0.0025 -0.0015 295.032670557
0.0025 -0.0005 298.577802143
0.0025 0.0005 302.986058512
0.0025 0.0015 307.431084097
0.0025 0.0025 312.340620735
0.0025 0.0035 317.257972822
0.0025 0.0045 321.764078268
0.0025 0.0055 325.055939539
0.0025 0.0065 328.347800811
0.0025 0.0075 331.622049463
0.0025 0.0085 333.208527852
0.0025 0.0095 334.795006242
0.0025 0.0105 336.427361459
0.0025 0.0115 337.183956954
0.0025 0.0125 337.940552448
0.0025 0.0135 338.576158795
0.0025 0.0145 338.842932989
0.0025 0.0155 339.109707183
0.0025 0.0165 339.211563954
0.0025 0.0175 339.425893254
0.0025 0.0185 339.640222554
0.0025 0.0195 339.774484538
0.0025 0.0205 340.242786561
0.0025 0.0215 340.711088585
0.0025 0.0225 341.388290298
0.0025 0.0235 342.50737158
0.0025 0.0245 343.626452863
0.0025 0.0255 345.773592708
0.0025 0.0265 348.81154621
0.0025 0.0275 351.883020348
0.0025 0.0285 355.387451714
0.0025 0.0295 358.934247471
0.0025 0.0305 361.518567485
0.0025 0.0315 363.301467302
0.0035 -0.0315 350.510290775
0.0035 -0.0305 348.835432474
0.0035 -0.0295 346.768875616
0.0035 -0.0285 342.851620123
0.0035 -0.0275 337.832419802
0.0035 -0.0265 333.621037246
0.0035 -0.0255 329.528065502
0.0035 -0.0245 324.458227925
0.0035 -0.0235 320.384505277
0.0035 -0.0225 317.378486004
0.0035 -0.0215 314.778634756
0.0035 -0.0205 312.11862244
0.0035 -0.0195 311.055329666
0.0035 -0.0185 308.04101393
0.0035 -0.0175 304.497541195
0.0035 -0.0165 301.391035077
0.0035 -0.0155 297.81972323
0.0035 -0.0145 295.455478284
0.0035 -0.0135 294.009506729
0.0035 -0.0125 293.415584262
0.0035 -0.0115 293.181433301
0.0035 -0.0105 293.1447757
0.0035 -0.0095 293.158974546
0.0035 -0.0085 293.171302343
0.0035 -0.0075 293.169707844
0.0035 -0.0065 293.1490988
0.0035 -0.0055 293.12447785
0.0035 -0.0045 293.13675261
0.0035 -0.0035 293.389724079
0.0035 -0.0025 294.062133552
0.0035 -0.0015 295.601743114
0.0035 -0.0005 298.280719113
0.0035 0.0005 302.688975482
0.0035 0.0015 307.35798924
0.0035 0.0025 312.197816301
0.0035 0.0035 317.115168387
0.0035 0.0045 320.375058153
0.0035 0.0055 323.426121621
0.0035 0.0065 326.717982892
0.0035 0.0075 331.160059571
0.0035 0.0085 334.201989373
0.0035 0.0095 335.788467763
0.0035 0.0105 338.729134866
0.0035 0.0115 340.375147125
0.0035 0.0125 341.145417571
0.0035 0.0135 342.064595283
0.0035 0.0145 342.543585811
0.0035 0.0155 342.676413805
0.0035 0.0165 342.183976367
0.0035 0.0175 342.213999023
0.0035 0.0185 342.168517326
0.0035 0.0195 341.391407344
0.0035 0.0205 341.633711011
0.0035 0.0215 341.850925567
0.0035 0.0225 341.603231196
0.0035 0.0235 342.600805125
0.0035 0.0245 343.504715133
0.0035 0.0255 344.161092817
0.0035 0.0265 347.030766185
0.0035 0.0275 350.343474765
0.0035 0.0285 353.777320128
0.0035 0.0295 357.303347861
0.0035 0.0305 359.519758322
0.0035 0.0315 361.724169364
0.0045 -0.0315 349.212199336
0.0045 -0.0305 347.599370935
0.0045 -0.0295 345.923558477
0.0045 -0.0285 340.913192785
0.0045 -0.0275 335.909598978
0.0045 -0.0265 330.90600517
0.0045 -0.0255 325.832350679
0.0045 -0.0245 320.762513102
0.0045 -0.0235 316.301574054
0.0045 -0.0225 313.766112809
0.0045 -0.0215 311.230651564
0.0045 -0.0205 309.53598181
0.0045 -0.0195 308.472689036
0.0045 -0.0185 307.170157081
0.0045 -0.0175 304.083207772
0.0045 -0.0165 301.016333325
0.0045 -0.0155 298.248493
0.0045 -0.0145 296.171333446
0.0045 -0.0135 294.094173891
0.0045 -0.0125 293.558332017
0.0045 -0.0115 293.324181055
0.0045 -0.0105 293.143898685
0.0045 -0.0095 293.158336742
0.0045 -0.0085 293.172774799
0.0045 -0.0075 293.169222297
0.0045 -0.0065 293.144616827
0.0045 -0.0055 293.120011357
0.0045 -0.0045 293.290205581
0.0045 -0.0035 293.54317705
0.0045 -0.0025 293.89065216
0.0045 -0.0015 296.425815076
0.0045 -0.0005 298.998942998
0.0045 0.0005 302.478947615
0.0045 0.0015 307.284894382
0.0045 0.0025 312.090841149
0.0045 0.0035 316.126806741
0.0045 0.0045 319.003402768
0.0045 0.0055 321.879998796
0.0045 0.0065 325.742917897
0.0045 0.0075 330.302602319
0.0045 0.0085 334.86228674
0.0045 0.0095 337.603277586
0.0045 0.0105 340.551193429
0.0045 0.0115 343.499109271
0.0045 0.0125 344.435623263
0.0045 0.0135 345.354800974
0.0045 0.0145 346.244238633
0.0045 0.0155 345.915470342
0.0045 0.0165 345.423032904
0.0045 0.0175 345.002104792
0.0045 0.0185 344.354858344
0.0045 0.0195 343.577748363
0.0045 0.0205 343.02463546
0.0045 0.0215 342.809475571
0.0045 0.0225 342.5617812
0.0045 0.0235 342.672350883
0.0045 0.0245 343.328728566
0.0045 0.0255 343.98510625
0.0045 0.0265 345.385033149
0.0045 0.0275 348.822451266
0.0045 0.0285 352.259869384
0.0045 0.0295 355.645588805
0.0045 0.0305 358.074896951
0.0045 0.0315 360.517361891
0.0055 -0.0315 347.914107897
0.0055 -0.0305 345.67814293
0.0055 -0.0295 343.116617405
0.0055 -0.0285 337.609579783
0.0055 -0.0275 332.605985975
0.0055 -0.0265 327.297058986
0.0055 -0.0255 321.938727053
0.0055 -0.0245 316.877569082
0.0055 -0.0235 313.913000667
0.0055 -0.0225 311.519957629
0.0055 -0.0215 309.147614001
0.0055 -0.0205 308.304282194
0.0055 -0.0195 307.236256567
0.0055 -0.0185 306.304759654
0.0055 -0.0175 304.326748223
0.0055 -0.0165 301.254588638
0.0055 -0.0155 298.183486316
0.0055 -0.0145 296.040411112
0.0055 -0.0135 294.294085803
0.0055 -0.0125 293.542630364
0.0055 -0.0115 293.308563887
0.0055 -0.0105 293.179482675
0.0055 -0.0095 293.1628111
0.0055 -0.0085 293.177228637
0.0055 -0.0075 293.171672719
0.0055 -0.0065 293.147619655
0.0055 -0.0055 293.145191686
0.0055 -0.0045 293.257381782
0.0055 -0.0035 293.512088548
0.0055 -0.0025 294.223589337
0.0055 -0.0015 296.170069729
0.0055 -0.0005 298.755575835
0.0055 0.0005 302.566830062
0.0055 0.0015 307.262613444
0.0055 0.0025 312.068078579
0.0055 0.0035 313.997409537
0.0055 0.0045 316.878724509
0.0055 0.0055 319.857501322
0.0055 0.0065 323.756854949
0.0055 0.0075 328.317590626
0.0055 0.0085 333.241189125
0.0055 0.0095 338.656289597
0.0055 0.0105 341.601687487
0.0055 0.0115 344.801417042
0.0055 0.0125 347.6084
0.0055 0.0135 348.526919575
0.0055 0.0145 349.398810682
0.0055 0.0155 349.666337252
0.0055 0.0165 349.17929984
0.0055 0.0175 348.355300893
0.0055 0.0185 347.3574736
0.0055 0.0195 346.582133159
0.0055 0.0205 345.315204822
0.0055 0.0215 344.41874927
0.0055 0.0225 344.168684853
0.0055 0.0235 343.49286071
0.0055 0.0245 343.706176887
0.0055 0.0255 344.411040141
0.0055 0.0265 345.195641874
0.0055 0.0275 347.656865819
0.0055 0.0285 351.101121546
0.0055 0.0295 354.79359172
0.0055 0.0305 357.057301102
0.0055 0.0315 359.310554417
0.0065 -0.0315 345.252098064
0.0065 -0.0305 343.141819289
0.0065 -0.0295 340.281624383
0.0065 -0.0285 334.753816699
0.0065 -0.0275 329.217838466
0.0065 -0.0265 323.645153071
0.0065 -0.0255 318.072467675
0.0065 -0.0245 313.64798627
0.0065 -0.0235 311.533249598
0.0065 -0.0225 309.405897426
0.0065 -0.0215 307.899724728
0.0065 -0.0205 307.077927342
0.0065 -0.0195 306.151195295
0.0065 -0.0185 305.346136126
0.0065 -0.0175 304.541076957
0.0065 -0.0165 301.573143725
0.0065 -0.0155 298.502127933
0.0065 -0.0145 295.796674223
0.0065 -0.0135 294.676758956
0.0065 -0.0125 293.707637939
0.0065 -0.0115 293.306218268
0.0065 -0.0105 293.234468217
0.0065 -0.0095 293.168026833
0.0065 -0.0085 293.17124989
0.0065 -0.0075 293.165102448
0.0065 -0.0065 293.151842022
0.0065 -0.0055 293.195860453
0.0065 -0.0045 293.252267691
0.0065 -0.0035 293.545918546
0.0065 -0.0025 294.633225997
0.0065 -0.0015 295.720533448
0.0065 -0.0005 298.823038712
0.0065 0.0005 302.964180761
0.0065 0.0015 307.253360089
0.0065 0.0025 310.404050594
0.0065 0.0035 312.2568046
0.0065 0.0045 314.538465787
0.0065 0.0055 318.035776691
0.0065 0.0065 321.795819675
0.0065 0.0075 325.995197632
0.0065 0.0085 331.969437158
0.0065 0.0095 338.267998655
0.0065 0.0105 342.425854565
0.0065 0.0115 346.139144953
0.0065 0.0125 349.930483729
0.0065 0.0135 351.666212194
0.0065 0.0145 352.466212042
0.0065 0.0155 353.26621189
0.0065 0.0165 352.99487753
0.0065 0.0175 351.80735031
0.0065 0.0185 350.61982309
0.0065 0.0195 349.626066037
0.0065 0.0205 347.971145527
0.0065 0.0215 346.316225016
0.0065 0.0225 345.749132656
0.0065 0.0235 344.850220121
0.0065 0.0245 344.144094323
0.0065 0.0255 344.876302705
0.0065 0.0265 345.68290574
0.0065 0.0275 346.491280372
0.0065 0.0285 350.165848547
0.0065 0.0295 353.858318721
0.0065 0.0305 356.23404998
0.0065 0.0315 358.54177997
0.0075 -0.0315 342.154695984
0.0075 -0.0305 340.267636215
0.0075 -0.0295 337.185883515
0.0075 -0.0285 331.040384412
0.0075 -0.0275 324.941050799
0.0075 -0.0265 319.552482229
0.0075 -0.0255 314.163913659
0.0075 -0.0245 311.669772825
0.0075 -0.0235 309.693936676
0.0075 -0.0225 307.758343034
0.0075 -0.0215 307.045893712
0.0075 -0.0205 306.223742098
0.0075 -0.0195 305.894661031
0.0075 -0.0185 305.135139625
0.0075 -0.0175 304.254500728
0.0075 -0.0165 301.645865661
0.0075 -0.0155 298.578394592
0.0075 -0.0145 295.964548132
0.0075 -0.0135 294.789960099
0.0075 -0.0125 293.820562861
0.0075 -0.0115 293.325237069
0.0075 -0.0105 293.253636194
0.0075 -0.0095 293.187469414
0.0075 -0.0085 293.170977448
0.0075 -0.0075 293.164765171
0.0075 -0.0065 293.164040731
0.0075 -0.0055 293.211028544
0.0075 -0.0045 293.268079193
0.0075 -0.0035 293.635933467
0.0075 -0.0025 294.731192579
0.0075 -0.0015 295.826451692
0.0075 -0.0005 298.780002175
0.0075 0.0005 302.933287719
0.0075 0.0015 306.98778586
0.0075 0.0025 309.434195057
0.0075 0.0035 311.271845999
0.0075 0.0045 312.82823741
0.0075 0.0055 315.984303373
0.0075 0.0065 319.746627209
0.0075 0.0075 323.898715332
0.0075 0.0085 330.073279236
0.0075 0.0095 336.369249941
0.0075 0.0105 343.288685518
0.0075 0.0115 347.074491633
0.0075 0.0125 350.860297749
0.0075 0.0135 354.141240983
0.0075 0.0145 354.929344593
0.0075 0.0155 355.717448204
0.0075 0.0165 355.920076791
0.0075 0.0175 354.722491552
0.0075 0.0185 353.524906312
0.0075 0.0195 352.02869077
0.0075 0.0205 350.369139414
0.0075 0.0215 348.709588058
0.0075 0.0225 347.128032368
0.0075 0.0235 346.224014233
0.0075 0.0245 345.319996098
0.0075 0.0255 345.167399954
0.0075 0.0265 345.828893447
0.0075 0.0275 346.65514235
0.0075 0.0285 349.866464127
0.0075 0.0295 353.077785903
0.0075 0.0305 355.550062096
0.0075 0.0315 357.935879159
0.0085 -0.0315 338.975420181
0.0085 -0.0305 336.330710956
0.0085 -0.0295 332.872718329
0.0085 -0.0285 326.779700557
0.0085 -0.0275 320.657467231
0.0085 -0.0265 316.016733137
0.0085 -0.0255 312.555483419
0.0085 -0.0245 310.141742171
0.0085 -0.0235 308.450945934
0.0085 -0.0225 307.033311888
0.0085 -0.0215 306.408078704
0.0085 -0.0205 305.74482914
0.0085 -0.0195 305.726665615
0.0085 -0.0185 305.424053943
0.0085 -0.0175 303.731799389
0.0085 -0.0165 301.446340762
0.0085 -0.0155 298.467307882
0.0085 -0.0145 296.450368896
0.0085 -0.0135 294.687762267
0.0085 -0.0125 293.913636166
0.0085 -0.0115 293.47052743
0.0085 -0.0105 293.24388058
0.0085 -0.0095 293.203962703
0.0085 -0.0085 293.177887578
0.0085 -0.0075 293.169729924
0.0085 -0.0065 293.176499201
0.0085 -0.0055 293.194048738
0.0085 -0.0045 293.346362703
0.0085 -0.0035 293.752950115
0.0085 -0.0025 294.507337259
0.0085 -0.0015 296.260188746
0.0085 -0.0005 298.64210651
0.0085 0.0005 302.38696865
0.0085 0.0015 306.013139835
0.0085 0.0025 309.41458805
0.0085 0.0035 311.252238992
0.0085 0.0045 312.238987766
0.0085 0.0055 313.601580341
0.0085 0.0065 317.36643222
0.0085 0.0075 322.074199445
0.0085 0.0085 327.256291505
0.0085 0.0095 333.703223109
0.0085 0.0105 341.308910991
0.0085 0.0115 347.440774927
0.0085 0.0125 351.127109008
0.0085 0.0135 354.457884563
0.0085 0.0145 356.608208303
0.0085 0.0155 357.234324775
0.0085 0.0165 357.512107535
0.0085 0.0175 357.009840042
0.0085 0.0185 355.66386322
0.0085 0.0195 354.112289632
0.0085 0.0205 352.49547076
0.0085 0.0215 350.603083909
0.0085 0.0225 348.540583608
0.0085 0.0235 347.625530313
0.0085 0.0245 346.201227001
0.0085 0.0255 345.783578657
0.0085 0.0265 345.871862881
0.0085 0.0275 346.876779979
0.0085 0.0285 349.962945486
0.0085 0.0295 352.923545256
0.0085 0.0305 355.200346464
0.0085 0.0315 357.351031832
0.0095 -0.0315 334.821273248
0.0095 -0.0305 331.926724455
0.0095 -0.0295 328.551730984
0.0095 -0.0285 322.458713212
0.0095 -0.0275 317.557018945
0.0095 -0.0265 314.362268948
0.0095 -0.0255 310.964117765
0.0095 -0.0245 308.521314232
0.0095 -0.0235 307.200881819
0.0095 -0.0225 306.438204063
0.0095 -0.0215 305.791437086
0.0095 -0.0205 305.550634628
0.0095 -0.0195 305.533478011
0.0095 -0.0185 305.461462607
0.0095 -0.0175 303.43397407
0.0095 -0.0165 301.104041606
0.0095 -0.0155 298.807099808
0.0095 -0.0145 296.777277053
0.0095 -0.0135 294.747454297
0.0095 -0.0125 294.063215633
0.0095 -0.0115 293.620794993
0.0095 -0.0105 293.242666323
0.0095 -0.0095 293.216651475
0.0095 -0.0085 293.190636627
0.0095 -0.0075 293.179372432
0.0095 -0.0065 293.186304797
0.0095 -0.0055 293.193237163
0.0095 -0.0045 293.481584536
0.0095 -0.0035 293.892086747
0.0095 -0.0025 294.364593353
0.0095 -0.0015 296.648616092
0.0095 -0.0005 299.048984014
0.0095 0.0005 301.717401813
0.0095 0.0015 305.112446234
0.0095 0.0025 308.507490655
0.0095 0.0035 310.778920451
0.0095 0.0045 311.646538104
0.0095 0.0055 312.514155758
0.0095 0.0065 315.513145665
0.0095 0.0075 320.220472423
0.0095 0.0085 324.92779918
0.0095 0.0095 331.629391749
0.0095 0.0105 339.227805132
0.0095 0.0115 346.826218516
0.0095 0.0125 351.202317846
0.0095 0.0135 354.531575414
0.0095 0.0145 357.860832981
0.0095 0.0155 358.506117105
0.0095 0.0165 358.765926587
0.0095 0.0175 358.996083383
0.0095 0.0185 357.534907601
0.0095 0.0195 355.952119478
0.0095 0.0205 354.345203435
0.0095 0.0215 352.227331444
0.0095 0.0225 350.103187388
0.0095 0.0235 348.444226479
0.0095 0.0245 347.019923167
0.0095 0.0255 346.610543105
0.0095 0.0265 346.662194538
0.0095 0.0275 347.142190331
0.0095 0.0285 349.79147017
0.0095 0.0295 352.752069941
0.0095 0.0305 355.019100053
0.0095 0.0315 357.190858025
0.0105 -0.0315 330.969567266
0.0105 -0.0305 327.971012737
0.0105 -0.0295 324.941488976
0.0105 -0.0285 320.182707711
0.0105 -0.0275 315.292168379
0.0105 -0.0265 312.020338952
0.0105 -0.0255 308.98128204
0.0105 -0.0245 307.658009807
0.0105 -0.0235 306.814037728
0.0105 -0.0225 305.987311669
0.0105 -0.0215 305.4967727
0.0105 -0.0205 305.358431002
0.0105 -0.0195 305.286075272
0.0105 -0.0185 305.026619421
0.0105 -0.0175 303.739257301
0.0105 -0.0165 301.334481466
0.0105 -0.0155 298.697720567
0.0105 -0.0145 296.522144021
0.0105 -0.0135 295.027998029
0.0105 -0.0125 294.039242054
0.0105 -0.0115 293.596821414
0.0105 -0.0105 293.350645542
0.0105 -0.0095 293.216079654
0.0105 -0.0085 293.192630419
0.0105 -0.0075 293.183059224
0.0105 -0.0065 293.185708516
0.0105 -0.0055 293.246714039
0.0105 -0.0045 293.39118478
0.0105 -0.0035 293.801686991
0.0105 -0.0025 294.674906841
0.0105 -0.0015 296.178192576
0.0105 -0.0005 298.578560497
0.0105 0.0005 301.724546687
0.0105 0.0015 305.05810678
0.0105 0.0025 308.386356798
0.0105 0.0035 309.96889439
0.0105 0.0045 310.985523194
0.0105 0.0055 311.908820723
0.0105 0.0065 313.087055966
0.0105 0.0075 317.562704908
0.0105 0.0085 322.600123694
0.0105 0.0095 328.462693617
0.0105 0.0105 336.061107001
0.0105 0.0115 343.777876715
0.0105 0.0125 351.044018417
0.0105 0.0135 354.373275984
0.0105 0.0145 357.05526977
0.0105 0.0155 358.772086143
0.0105 0.0165 359.031895625
0.0105 0.0175 358.912847515
0.0105 0.0185 358.254104911
0.0105 0.0195 356.671316787
0.0105 0.0205 355.001352426
0.0105 0.0215 353.199779419
0.0105 0.0225 351.124925361
0.0105 0.0235 349.533323883
0.0105 0.0245 347.93869267
0.0105 0.0255 347.247038479
0.0105 0.0265 347.139850168
0.0105 0.0275 347.688768035
0.0105 0.0285 350.246763472
0.0105 0.0295 352.773202718
0.0105 0.0305 354.875419679
0.0105 0.0315 357.056639867
0.0115 -0.0315 327.25790993
0.0115 -0.0305 324.758611938
0.0115 -0.0295 321.928304869
0.0115 -0.0285 317.497680445
0.0115 -0.0275 313.027317813
0.0115 -0.0265 310.306336663
0.0115 -0.0255 308.367572828
0.0115 -0.0245 306.998136169
0.0115 -0.0235 306.265722966
0.0115 -0.0225 305.533309763
0.0115 -0.0215 305.343357382
0.0115 -0.0205 305.209213244
0.0115 -0.0195 304.989247843
0.0115 -0.0185 304.625465667
0.0115 -0.0175 304.044540532
0.0115 -0.0165 301.438227989
0.0115 -0.0155 298.801467091
0.0115 -0.0145 296.425308626
0.0115 -0.0135 295.350897552
0.0115 -0.0125 294.276486477
0.0115 -0.0115 293.67496874
0.0115 -0.0105 293.460320113
0.0115 -0.0095 293.245671485
0.0115 -0.0085 293.201623353
0.0115 -0.0075 293.192052158
0.0115 -0.0065 293.186539515
0.0115 -0.0055 293.318946203
0.0115 -0.0045 293.451352891
0.0115 -0.0035 293.896449353
0.0115 -0.0025 294.98522033
0.0115 -0.0015 296.073991307
0.0115 -0.0005 298.503113015
0.0115 0.0005 301.755581488
0.0115 0.0015 305.00804996
0.0115 0.0025 307.291775628
0.0115 0.0035 308.87431322
0.0115 0.0045 310.324508284
0.0115 0.0055 311.42992212
0.0115 0.0065 312.608157364
0.0115 0.0075 314.904937393
0.0115 0.0085 320.573715177
0.0115 0.0095 326.346607894
0.0115 0.0105 332.904017368
0.0115 0.0115 340.777418235
0.0115 0.0125 348.650819102
0.0115 0.0135 354.035785589
0.0115 0.0145 356.163661224
0.0115 0.0155 358.291536858
0.0115 0.0165 359.158550249
0.0115 0.0175 358.829611648
0.0115 0.0185 358.500673047
0.0115 0.0195 357.343664599
0.0115 0.0205 355.657501417
0.0115 0.0215 353.971338235
0.0115 0.0225 352.231216839
0.0115 0.0235 350.358938219
0.0115 0.0245 348.4866596
0.0115 0.0255 347.81886184
0.0115 0.0265 347.640779895
0.0115 0.0275 348.235345739
0.0115 0.0285 350.681977039
0.0115 0.0295 353.116315592
0.0115 0.0305 355.088803012
0.0115 0.0315 356.995258102
0.0125 -0.0315 324.420930274
0.0125 -0.0305 321.710489851
0.0125 -0.0295 318.915120763
0.0125 -0.0285 314.723824822
0.0125 -0.0275 311.47856455
0.0125 -0.0265 309.522643989
0.0125 -0.0255 307.780692447
0.0125 -0.0245 306.33826253
0.0125 -0.0235 305.760163217
0.0125 -0.0225 305.319484601
0.0125 -0.0215 305.181701845
0.0125 -0.0205 305.070288557
0.0125 -0.0195 304.830710189
0.0125 -0.0185 304.520317498
0.0125 -0.0175 303.934168224
0.0125 -0.0165 301.572423144
0.0125 -0.0155 298.938545591
0.0125 -0.0145 296.550966502
0.0125 -0.0135 295.217367736
0.0125 -0.0125 294.199322175
0.0125 -0.0115 293.675596811
0.0125 -0.0105 293.450329234
0.0125 -0.0095 293.27238769
0.0125 -0.0085 293.204670444
0.0125 -0.0075 293.195196113
0.0125 -0.0065 293.211689792
0.0125 -0.0055 293.304450693
0.0125 -0.0045 293.437983766
0.0125 -0.0035 293.839105236
0.0125 -0.0025 294.859437613
0.0125 -0.0015 296.037086387
0.0125 -0.0005 298.111110597
0.0125 0.0005 301.381144058
0.0125 0.0015 304.591429431
0.0125 0.0025 306.998517461
0.0125 0.0035 308.562047598
0.0125 0.0045 309.807326229
0.0125 0.0055 310.755753823
0.0125 0.0065 311.933044057
0.0125 0.0075 313.316171691
0.0125 0.0085 317.825800317
0.0125 0.0095 323.589000802
0.0125 0.0105 330.022721887
0.0125 0.0115 337.689581083
0.0125 0.0125 345.561835995
0.0125 0.0135 352.695443227
0.0125 0.0145 355.42334181
0.0125 0.0155 357.550523728
0.0125 0.0165 358.816462622
0.0125 0.0175 358.4671417
0.0125 0.0185 358.117820778
0.0125 0.0195 357.36394114
0.0125 0.0205 355.691310169
0.0125 0.0215 354.037242335
0.0125 0.0225 352.488321124
0.0125 0.0235 350.890263711
0.0125 0.0245 349.03462653
0.0125 0.0255 348.418221991
0.0125 0.0265 348.249669901
0.0125 0.0275 348.76992171
0.0125 0.0285 351.031706172
0.0125 0.0295 353.459428466
0.0125 0.0305 355.42792333
0.0125 0.0315 357.269669341
0.0135 -0.0315 321.750805865
0.0135 -0.0305 319.020887656
0.0135 -0.0295 316.740842916
0.0135 -0.0285 313.652382657
0.0135 -0.0275 310.407122385
0.0135 -0.0265 308.408452636
0.0135 -0.0255 306.821699087
0.0135 -0.0245 305.963634459
0.0135 -0.0235 305.556829087
0.0135 -0.0225 305.11615047
0.0135 -0.0215 304.991990211
0.0135 -0.0205 304.901526903
0.0135 -0.0195 304.830354002
0.0135 -0.0185 304.615544175
0.0135 -0.0175 303.687148333
0.0135 -0.0165 301.483122767
0.0135 -0.0155 299.206774675
0.0135 -0.0145 296.885114739
0.0135 -0.0135 295.057250261
0.0135 -0.0125 294.367773712
0.0135 -0.0115 293.844048349
0.0135 -0.0105 293.426613849
0.0135 -0.0095 293.320407538
0.0135 -0.0085 293.232246547
0.0135 -0.0075 293.204897819
0.0135 -0.0065 293.239527644
0.0135 -0.0055 293.275882818
0.0135 -0.0045 293.548816739
0.0135 -0.0035 293.993126122
0.0135 -0.0025 294.633257431
0.0135 -0.0015 296.33561548
0.0135 -0.0005 298.251634048
0.0135 0.0005 300.858410223
0.0135 0.0015 303.883487536
0.0135 0.0025 306.83149264
0.0135 0.0035 308.644134529
0.0135 0.0045 309.35816415
0.0135 0.0055 309.995346672
0.0135 0.0065 311.185092683
0.0135 0.0075 312.783178072
0.0135 0.0085 314.717979958
0.0135 0.0095 320.72344069
0.0135 0.0105 327.54539794
0.0135 0.0115 334.563262369
0.0135 0.0125 342.064292962
0.0135 0.0135 348.971912838
0.0135 0.0145 354.74626701
0.0135 0.0155 356.406888791
0.0135 0.0165 357.555217566
0.0135 0.0175 358.02622481
0.0135 0.0185 357.493976013
0.0135 0.0195 356.729573997
0.0135 0.0205 355.606916208
0.0135 0.0215 354.080277789
0.0135 0.0225 352.539323264
0.0135 0.0235 350.941265851
0.0135 0.0245 349.40823524
0.0135 0.0255 349.038515794
0.0135 0.0265 348.875687797
0.0135 0.0275 349.407767526
0.0135 0.0285 351.669551989
0.0135 0.0295 353.918819914
0.0135 0.0305 355.658326749
0.0135 0.0315 357.491350443
0.0145 -0.0315 319.381696403
0.0145 -0.0305 317.356458853
0.0145 -0.0295 315.207177533
0.0145 -0.0285 312.241113413
0.0145 -0.0275 309.275049293
0.0145 -0.0265 307.639584032
0.0145 -0.0255 306.479902091
0.0145 -0.0245 305.616015267
0.0145 -0.0235 305.260062844
0.0145 -0.0225 304.90531148
0.0145 -0.0215 304.843988646
0.0145 -0.0205 304.789385172
0.0145 -0.0195 304.720730151
0.0145 -0.0185 304.642036192
0.0145 -0.0175 303.557248295
0.0145 -0.0165 301.557360012
0.0145 -0.0155 299.43368903
0.0145 -0.0145 297.148328938
0.0145 -0.0135 295.039814797
0.0145 -0.0125 294.458363747
0.0145 -0.0115 293.916806948
0.0145 -0.0105 293.474342491
0.0145 -0.0095 293.341676233
0.0145 -0.0085 293.25410445
0.0145 -0.0075 293.213981649
0.0145 -0.0065 293.249208843
0.0145 -0.0055 293.28934028
0.0145 -0.0045 293.57306161
0.0145 -0.0035 294.014310126
0.0145 -0.0025 294.611818995
0.0145 -0.0015 296.28216798
0.0145 -0.0005 298.242637937
0.0145 0.0005 300.44522907
0.0145 0.0015 303.350157415
0.0145 0.0025 306.265686372
0.0145 0.0035 308.348008414
0.0145 0.0045 308.990295362
0.0145 0.0055 309.63258231
0.0145 0.0065 310.536468426
0.0145 0.0075 312.127437666
0.0145 0.0085 313.718406907
0.0145 0.0095 317.89995012
0.0145 0.0105 324.700869883
0.0145 0.0115 331.501789646
0.0145 0.0125 338.474739952
0.0145 0.0135 345.388072654
0.0145 0.0145 352.226280736
0.0145 0.0155 355.0114923
0.0145 0.0165 356.204278243
0.0145 0.0175 357.397064186
0.0145 0.0185 356.894232252
0.0145 0.0195 356.170472552
0.0145 0.0205 355.274873307
0.0145 0.0215 353.990283438
0.0145 0.0225 352.590325404
0.0145 0.0235 351.173746452
0.0145 0.0245 349.794871455
0.0145 0.0255 349.404702581
0.0145 0.0265 349.40837
0.0145 0.0275 350.041847114
0.0145 0.0285 352.278578469
0.0145 0.0295 354.515309824
0.0145 0.0305 356.196183185
0.0145 0.0315 357.807078662
0.0155 -0.0315 317.905283538
0.0155 -0.0305 315.820520239
0.0155 -0.0295 313.67351215
0.0155 -0.0285 310.906077565
0.0155 -0.0275 308.520707925
0.0155 -0.0265 307.164407072
0.0155 -0.0255 306.138105095
0.0155 -0.0245 305.268396075
0.0155 -0.0235 304.988512031
0.0155 -0.0225 304.756027264
0.0155 -0.0215 304.715672399
0.0155 -0.0205 304.677243441
0.0155 -0.0195 304.610606413
0.0155 -0.0185 304.556889009
0.0155 -0.0175 303.639040876
0.0155 -0.0165 301.759640356
0.0155 -0.0155 299.640168533
0.0155 -0.0145 297.228419376
0.0155 -0.0135 295.250618636
0.0155 -0.0125 294.447747308
0.0155 -0.0115 293.895327283
0.0155 -0.0105 293.580777103
0.0155 -0.0095 293.343216502
0.0155 -0.0085 293.271397868
0.0155 -0.0075 293.239990616
0.0155 -0.0065 293.242834832
0.0155 -0.0055 293.347363762
0.0155 -0.0045 293.488586024
0.0155 -0.0035 293.917635717
0.0155 -0.0025 294.774434856
0.0155 -0.0015 295.846152281
0.0155 -0.0005 297.896025363
0.0155 0.0005 300.463139838
0.0155 0.0015 303.219575831
0.0155 0.0025 306.078165294
0.0155 0.0035 307.844539344
0.0155 0.0045 308.893731265
0.0155 0.0055 309.478671784
0.0155 0.0065 309.879113591
0.0155 0.0075 311.150214451
0.0155 0.0085 312.933565612
0.0155 0.0095 315.011624942
0.0155 0.0105 321.10754069
0.0155 0.0115 328.060871679
0.0155 0.0125 335.118625964
0.0155 0.0135 342.032488079
0.0155 0.0145 348.459144649
0.0155 0.0155 353.358787569
0.0155 0.0165 354.614685939
0.0155 0.0175 356.5704047
0.0155 0.0185 356.290423842
0.0155 0.0195 355.679333595
0.0155 0.0205 354.739988028
0.0155 0.0215 353.560970365
0.0155 0.0225 352.530399241
0.0155 0.0235 351.440496811
0.0155 0.0245 350.18150767
0.0155 0.0255 349.744359823
0.0155 0.0265 349.948770188
0.0155 0.0275 350.745253106
0.0155 0.0285 352.896029681
0.0155 0.0295 355.111799734
0.0155 0.0305 356.788494554
0.0155 0.0315 358.325718294
0.0165 -0.0315 316.463124787
0.0165 -0.0305 314.378361487
0.0165 -0.0295 312.589384805
0.0165 -0.0285 310.31587243
0.0165 -0.0275 307.930502791
0.0165 -0.0265 306.57011284
0.0165 -0.0255 305.616516657
0.0165 -0.0245 305.050044283
0.0165 -0.0235 304.839227815
0.0165 -0.0225 304.606743048
0.0165 -0.0215 304.568970736
0.0165 -0.0205 304.572878693
0.0165 -0.0195 304.540056655
0.0165 -0.0185 304.482729523
0.0165 -0.0175 303.661175275
0.0165 -0.0165 301.771188067
0.0165 -0.0155 299.708402155
0.0165 -0.0145 297.25602735
0.0165 -0.0135 295.461422475
0.0165 -0.0125 294.63172845