% Model:              SIMBench260525.mph
% Version:            COMSOL 6.2.0.339
% Date:               May 27 2026, 18:03
% Dimension:          2
% Nodes:              4096
% Expressions:        1
% Description:        温度
% Length unit:        m
% x                       y                        T (K)
5.0E-4                    -0.0315                  398.42747563622066
5.0E-4                    -0.0305                  396.90558450710034
5.0E-4                    -0.0295                  395.37140670291535
5.0E-4                    -0.0285                  392.0307202532001
5.0E-4                    -0.0275                  387.9780300366745
5.0E-4                    -0.0265                  383.7378216303701
5.0E-4                    -0.0255                  378.0842261528409
5.0E-4                    -0.0245                  372.501479471929
5.0E-4                    -0.0235                  366.8255960899802
5.0E-4                    -0.0225                  361.5577071965032
5.0E-4                    -0.0215                  356.69161716618476
5.0E-4                    -0.0205                  352.41149280131435
5.0E-4                    -0.0195                  349.5274597759855
5.0E-4                    -0.0185                  346.7792714654592
5.0E-4                    -0.0175                  344.8336042068004
5.0E-4                    -0.0165                  343.45472281561587
5.0E-4                    -0.0155                  342.0616814671112
5.0E-4                    -0.0145                  341.22326386292536
5.0E-4                    -0.0135                  340.28721912919514
5.0E-4                    -0.0125                  339.35117439546497
5.0E-4                    -0.0115                  338.86352162292576
5.0E-4                    -0.0105                  338.146528595061
5.0E-4                    -0.0095                  337.42953556719624
5.0E-4                    -0.0085                  337.098411476353
5.0E-4                    -0.0075                  336.5275794827626
5.0E-4                    -0.0065                  335.98402739001966
5.0E-4                    -0.0055                  335.5821455414239
5.0E-4                    -0.0045                  335.0456088433088
5.0E-4                    -0.0035                  334.4683399555044
5.0E-4                    -0.0025                  333.7116742525601
5.0E-4                    -0.0015                  332.92774953978756
5.0E-4                    -5.0E-4                  331.8839604288497
5.0E-4                    5.0E-4                   329.77327321076245
5.0E-4                    0.0015                   327.47136651101823
5.0E-4                    0.0025                   324.82022313555944
5.0E-4                    0.0035                   317.4403852704902
5.0E-4                    0.0045                   309.63110169356673
5.0E-4                    0.0055                   303.7569954385252
5.0E-4                    0.0065                   301.89813712307125
5.0E-4                    0.0075                   300.0392788076172
5.0E-4                    0.0085                   296.5998961699496
5.0E-4                    0.0095                   294.9986829717825
5.0E-4                    0.0105                   293.50622172707943
5.0E-4                    0.0115                   293.1520891820809
5.0E-4                    0.0125                   293.1337091705267
5.0E-4                    0.0135                   293.1369188033167
5.0E-4                    0.0145                   293.1454637763457
5.0E-4                    0.0155                   293.1514770655343
5.0E-4                    0.0165                   293.15362949631935
5.0E-4                    0.0175                   293.15034823851954
5.0E-4                    0.0185                   293.14641074971263
5.0E-4                    0.0195                   293.1567224537224
5.0E-4                    0.0205                   293.18144242191477
5.0E-4                    0.0215                   293.42622398949413
5.0E-4                    0.0225                   294.40766522306996
5.0E-4                    0.0235                   295.4432795824668
5.0E-4                    0.0245                   297.7582163584098
5.0E-4                    0.0255                   300.2629910689716
5.0E-4                    0.0265                   302.6877148677709
5.0E-4                    0.0275                   305.23366087286706
5.0E-4                    0.0285                   308.23429968336416
5.0E-4                    0.0295                   310.37261778750803
5.0E-4                    0.0305                   311.5393608198938
5.0E-4                    0.0315                   312.7001429077162
0.0015                    -0.0315                  397.34203368847284
0.0015                    -0.0305                  396.42357158479945
0.0015                    -0.0295                  394.2604462360796
0.0015                    -0.0285                  390.91037323702824
0.0015                    -0.0275                  387.157947235802
0.0015                    -0.0265                  381.8285017229666
0.0015                    -0.0255                  376.10934314350266
0.0015                    -0.0245                  370.5089242135277
0.0015                    -0.0235                  364.593596694481
0.0015                    -0.0225                  358.67766033122473
0.0015                    -0.0215                  353.82791515966665
0.0015                    -0.0205                  350.48568324973394
0.0015                    -0.0195                  347.24509742345634
0.0015                    -0.0185                  344.73230544067013
0.0015                    -0.0175                  343.5046339096474
0.0015                    -0.0165                  342.22494521202407
0.0015                    -0.0155                  341.0880874093437
0.0015                    -0.0145                  340.55647849760703
0.0015                    -0.0135                  339.8402628608309
0.0015                    -0.0125                  339.1912985860332
0.0015                    -0.0115                  338.91628609682556
0.0015                    -0.0105                  338.3773045432133
0.0015                    -0.0095                  337.97372245966716
0.0015                    -0.0085                  337.80755258645826
0.0015                    -0.0075                  337.34217197517665
0.0015                    -0.0065                  336.9797266540593
0.0015                    -0.0055                  336.7041709236391
0.0015                    -0.0045                  336.19876882023215
0.0015                    -0.0035                  335.51511478269754
0.0015                    -0.0025                  334.80254672481027
0.0015                    -0.0015                  334.0186220120377
0.0015                    -5.0E-4                  332.5540494375611
0.0015                    5.0E-4                   330.9437104195632
0.0015                    0.0015                   328.5578896761264
0.0015                    0.0025                   325.5813257879663
0.0015                    0.0035                   321.13154492750414
0.0015                    0.0045                   314.04209722519073
0.0015                    0.0055                   308.88087344678377
0.0015                    0.0065                   305.2093476656567
0.0015                    0.0075                   302.16160492660924
0.0015                    0.0085                   297.4769471188663
0.0015                    0.0095                   294.89119975265385
0.0015                    0.0105                   293.8925687603445
0.0015                    0.0115                   293.12033459857395
0.0015                    0.0125                   293.1022182566211
0.0015                    0.0135                   293.130628142607
0.0015                    0.0145                   293.1517020155825
0.0015                    0.0155                   293.15650231350594
0.0015                    0.0165                   293.1593982069602
0.0015                    0.0175                   293.15815930793747
0.0015                    0.0185                   293.15129158858537
0.0015                    0.0195                   293.1437382747582
0.0015                    0.0205                   293.2123807898415
0.0015                    0.0215                   293.69929744648647
0.0015                    0.0225                   294.38949319416946
0.0015                    0.0235                   296.1579693393469
0.0015                    0.0245                   298.79034306831187
0.0015                    0.0255                   301.3343035219985
0.0015                    0.0265                   303.4298601054921
0.0015                    0.0275                   305.4274386407115
0.0015                    0.0285                   308.0927274593824
0.0015                    0.0295                   309.3846586375799
0.0015                    0.0305                   310.59946782751757
0.0015                    0.0315                   311.63548899645355
0.0025                    -0.0315                  396.25659174072496
0.0025                    -0.0305                  394.8306535914018
0.0025                    -0.0295                  392.5464535407763
0.0025                    -0.0285                  389.2571878921183
0.0025                    -0.0275                  384.9247539023614
0.0025                    -0.0265                  379.3347614957393
0.0025                    -0.0255                  373.73691424558336
0.0025                    -0.0245                  367.9099239709318
0.0025                    -0.0235                  361.9951538620168
0.0025                    -0.0225                  356.0803837531018
0.0025                    -0.0215                  351.8499802166443
0.0025                    -0.0205                  348.506497118239
0.0025                    -0.0195                  345.16301401983355
0.0025                    -0.0185                  343.5696817288805
0.0025                    -0.0175                  342.34163989257434
0.0025                    -0.0165                  341.1135980562682
0.0025                    -0.0155                  340.6395121530134
0.0025                    -0.0145                  340.1047342876542
0.0025                    -0.0135                  339.6300447815467
0.0025                    -0.0125                  339.4615248483297
0.0025                    -0.0115                  339.18138824598356
0.0025                    -0.0105                  339.0704617379514
0.0025                    -0.0095                  338.9020670525766
0.0025                    -0.0085                  338.7302494843184
0.0025                    -0.0075                  338.5916919990782
0.0025                    -0.0065                  338.3123431469813
0.0025                    -0.0055                  338.0329942948843
0.0025                    -0.0045                  337.48317610692294
0.0025                    -0.0035                  336.77109771927724
0.0025                    -0.0025                  336.0590193316315
0.0025                    -0.0015                  334.7046253024488
0.0025                    -5.0E-4                  333.2280994717279
0.0025                    5.0E-4                   331.7515736410071
0.0025                    0.0015                   329.08900314046514
0.0025                    0.0025                   326.1090713273022
0.0025                    0.0035                   323.12913951413935
0.0025                    0.0045                   318.67155792167114
0.0025                    0.0055                   313.50503044829674
0.0025                    0.0065                   308.3100951313716
0.0025                    0.0075                   303.42523969568026
0.0025                    0.0085                   298.7326933018159
0.0025                    0.0095                   294.95604203690175
0.0025                    0.0105                   294.1816219117865
0.0025                    0.0115                   293.40720178667124
0.0025                    0.0125                   293.0962574361672
0.0025                    0.0135                   293.1246746803032
0.0025                    0.0145                   293.15309192443925
0.0025                    0.0155                   293.1616736205435
0.0025                    0.0165                   293.16458625894586
0.0025                    0.0175                   293.16366618884473
0.0025                    0.0185                   293.15551903318
0.0025                    0.0195                   293.1473718775152
0.0025                    0.0205                   293.414554062399
0.0025                    0.0215                   293.89959611934637
0.0025                    0.0225                   294.4842755440422
0.0025                    0.0235                   296.9379690169088
0.0025                    0.0245                   299.55865843722665
0.0025                    0.0255                   302.03417343369887
0.0025                    0.0265                   304.0097327217828
0.0025                    0.0275                   305.9852920098667
0.0025                    0.0285                   307.08948325878373
0.0025                    0.0295                   308.3772233734135
0.0025                    0.0305                   309.52867457871747
0.0025                    0.0315                   310.570835085191
0.0035                    -0.0315                  394.14374789781056
0.0035                    -0.0305                  392.42511824622045
0.0035                    -0.0295                  390.5416960169704
0.0035                    -0.0285                  386.6889447806911
0.0035                    -0.0275                  381.1927274600066
0.0035                    -0.0265                  375.65949861648596
0.0035                    -0.0255                  369.9695836556294
0.0035                    -0.0245                  363.83564330762727
0.0035                    -0.0235                  357.84870010815575
0.0035                    -0.0225                  352.64668745012
0.0035                    -0.0215                  349.5590305619255
0.0035                    -0.0205                  346.2604893026844
0.0035                    -0.0195                  343.9595065655473
0.0035                    -0.0185                  343.1976962555933
0.0035                    -0.0175                  341.9819300492973
0.0035                    -0.0165                  341.4386604553006
0.0035                    -0.0155                  341.37731061427075
0.0035                    -0.0145                  340.8425327489116
0.0035                    -0.0135                  341.0169561012623
0.0035                    -0.0125                  341.3136413291502
0.0035                    -0.0115                  341.03350472680404
0.0035                    -0.0105                  341.4867066327372
0.0035                    -0.0095                  341.79416186248267
0.0035                    -0.0085                  341.62234429422443
0.0035                    -0.0075                  341.69715615492936
0.0035                    -0.0065                  341.5898886012983
0.0035                    -0.0055                  341.25214970863874
0.0035                    -0.0045                  340.12054423502036
0.0035                    -0.0035                  339.27167804611184
0.0035                    -0.0025                  338.1832533883912
0.0035                    -0.0015                  335.6085172305116
0.0035                    -5.0E-4                  333.9257608365949
0.0035                    5.0E-4                   331.7717274237375
0.0035                    0.0015                   328.29845252183657
0.0035                    0.0025                   325.29308038249866
0.0035                    0.0035                   322.44545911589955
0.0035                    0.0045                   319.51200295044407
0.0035                    0.0055                   314.3454754770696
0.0035                    0.0065                   308.6383511080215
0.0035                    0.0075                   303.0164395660094
0.0035                    0.0085                   298.32389317214506
0.0035                    0.0095                   295.557729256949
0.0035                    0.0105                   293.9935736886582
0.0035                    0.0115                   293.34560277447827
0.0035                    0.0125                   293.12400385338225
0.0035                    0.0135                   293.1202467460936
0.0035                    0.0145                   293.14805114144986
0.0035                    0.0155                   293.17019529008115
0.0035                    0.0165                   293.1731079284835
0.0035                    0.0175                   293.1654431436478
0.0035                    0.0185                   293.1571483975746
0.0035                    0.0195                   293.202767919145
0.0035                    0.0205                   293.36683563839904
0.0035                    0.0215                   293.8345317608638
0.0035                    0.0225                   295.07969387146915
0.0035                    0.0235                   296.98374779085617
0.0035                    0.0245                   299.592886265472
0.0035                    0.0255                   302.0597905872705
0.0035                    0.0265                   304.2240250195068
0.0035                    0.0275                   305.5868996239205
0.0035                    0.0285                   306.26933185196015
0.0035                    0.0295                   307.3544273299047
0.0035                    0.0305                   308.44889079431965
0.0035                    0.0315                   309.54723266497257
0.0045                    -0.0315                  392.0754696045989
0.0045                    -0.0305                  390.26373757341315
0.0045                    -0.0295                  388.4095565569063
0.0045                    -0.0285                  383.01160999964253
0.0045                    -0.0275                  377.49108883697164
0.0045                    -0.0265                  371.9705676743008
0.0045                    -0.0255                  365.95316334698816
0.0045                    -0.0245                  359.819222998986
0.0045                    -0.0235                  353.70224635429463
0.0045                    -0.0225                  350.2437558730053
0.0045                    -0.0215                  347.1560989848107
0.0045                    -0.0205                  344.0829575380908
0.0045                    -0.0195                  343.3211472281368
0.0045                    -0.0185                  342.5593369181828
0.0045                    -0.0175                  341.8558468806519
0.0045                    -0.0165                  341.85555766919856
0.0045                    -0.0155                  341.8552684577453
0.0045                    -0.0145                  341.90815307011246
0.0045                    -0.0135                  342.4038674209778
0.0045                    -0.0125                  342.89958177184315
0.0045                    -0.0115                  343.28174172870894
0.0045                    -0.0105                  343.902951527523
0.0045                    -0.0095                  344.52416132633715
0.0045                    -0.0085                  344.66121634577763
0.0045                    -0.0075                  344.75188178499775
0.0045                    -0.0065                  344.84254722421787
0.0045                    -0.0055                  344.00587408904926
0.0045                    -0.0045                  342.8742686154309
0.0045                    -0.0035                  341.77225837294645
0.0045                    -0.0025                  339.5452494783526
0.0045                    -0.0015                  336.9705133204729
0.0045                    -5.0E-4                  334.62342220146195
0.0045                    5.0E-4                   331.25534469259475
0.0045                    0.0015                   327.78206979069387
0.0045                    0.0025                   324.5028640161484
0.0045                    0.0035                   321.7939787274281
0.0045                    0.0045                   319.08509343870776
0.0045                    0.0055                   314.97448801141104
0.0045                    0.0065                   308.9666070846713
0.0045                    0.0075                   302.95872615793166
0.0045                    0.0085                   299.007541658441
0.0045                    0.0095                   296.40085810052216
0.0045                    0.0105                   293.80552546552997
0.0045                    0.0115                   293.4828861043046
0.0045                    0.0125                   293.2612871832086
0.0045                    0.0135                   293.11566434294645
0.0045                    0.0145                   293.1429880827668
0.0045                    0.0155                   293.1703118225871
0.0045                    0.0165                   293.17575163299216
0.0045                    0.0175                   293.16726039809737
0.0045                    0.0185                   293.1587777619693
0.0045                    0.0195                   293.3080361695274
0.0045                    0.0205                   293.4721038887815
0.0045                    0.0215                   294.11283875152674
0.0045                    0.0225                   295.67511219889604
0.0045                    0.0235                   297.2373856462654
0.0045                    0.0245                   299.54250314023005
0.0045                    0.0255                   302.00940746202866
0.0045                    0.0265                   304.3047475813534
0.0045                    0.0275                   304.98902193190736
0.0045                    0.0285                   305.6732962824612
0.0045                    0.0295                   306.3597198424235
0.0045                    0.0305                   307.4970365236437
0.0045                    0.0315                   308.6565109914121
0.0055                    -0.0315                  390.00719131138715
0.0055                    -0.0305                  387.9369697895138
0.0055                    -0.0295                  385.7284838240797
0.0055                    -0.0285                  379.9603516810596
0.0055                    -0.0275                  374.4312958958384
0.0055                    -0.0265                  368.6775733741705
0.0055                    -0.0255                  362.5809574860524
0.0055                    -0.0245                  356.40534751773936
0.0055                    -0.0235                  351.63273927399837
0.0055                    -0.0225                  348.59364744482355
0.0055                    -0.0215                  345.5133073469939
0.0055                    -0.0205                  344.06473401940593
0.0055                    -0.0195                  343.40166682396614
0.0055                    -0.0185                  342.63932340498855
0.0055                    -0.0175                  342.8752469396481
0.0055                    -0.0165                  342.9794799278943
0.0055                    -0.0155                  342.9768205265416
0.0055                    -0.0145                  344.091527389641
0.0055                    -0.0135                  344.6375632925829
0.0055                    -0.0125                  345.180889620274
0.0055                    -0.0115                  346.3769362060417
0.0055                    -0.0105                  346.993413161102
0.0055                    -0.0095                  347.5632088782642
0.0055                    -0.0085                  347.8749508172374
0.0055                    -0.0075                  347.9648380770646
0.0055                    -0.0065                  347.5983325092531
0.0055                    -0.0055                  346.27959046512836
0.0055                    -0.0045                  345.14938763144175
0.0055                    -0.0035                  343.02430232440264
0.0055                    -0.0025                  339.98580295171007
0.0055                    -0.0015                  337.41211465187206
0.0055                    -5.0E-4                  333.6980515290735
0.0055                    5.0E-4                   329.77444326988643
0.0055                    0.0015                   326.29617057519107
0.0055                    0.0025                   323.12066266677687
0.0055                    0.0035                   320.3213814778663
0.0055                    0.0045                   317.60855599172646
0.0055                    0.0055                   314.5803903454805
0.0055                    0.0065                   308.8174359983252
0.0055                    0.0075                   302.9819008365191
0.0055                    0.0085                   298.6917234247252
0.0055                    0.0095                   296.07662794275996
0.0055                    0.0105                   294.11595194955146
0.0055                    0.0115                   293.44765657181864
0.0055                    0.0125                   293.22439269823576
0.0055                    0.0135                   293.1350415731161
0.0055                    0.0145                   293.14578915442974
0.0055                    0.0155                   293.17192322366316
0.0055                    0.0165                   293.18162155121416
0.0055                    0.0175                   293.1731756923446
0.0055                    0.0185                   293.195834058414
0.0055                    0.0195                   293.30244626356483
0.0055                    0.0205                   293.4659370883082
0.0055                    0.0215                   294.0876157930874
0.0055                    0.0225                   295.56732246413964
0.0055                    0.0235                   297.44144704607515
0.0055                    0.0245                   299.9318459203496
0.0055                    0.0255                   302.41891595637946
0.0055                    0.0265                   303.86456107209165
0.0055                    0.0275                   304.5540828429527
0.0055                    0.0285                   305.23835719350666
0.0055                    0.0295                   305.9242551379525
0.0055                    0.0305                   306.8255374678683
0.0055                    0.0315                   307.7657893178516
0.0065                    -0.0315                  387.6524160507622
0.0065                    -0.0305                  385.3757643627553
0.0065                    -0.0295                  382.8866363630716
0.0065                    -0.0285                  377.1185042200514
0.0065                    -0.0275                  371.3413748838811
0.0065                    -0.0265                  365.28096974423414
0.0065                    -0.0255                  359.2205646045873
0.0065                    -0.0245                  353.0861591209144
0.0065                    -0.0235                  350.0832887624611
0.0065                    -0.0225                  347.0804184040079
0.0065                    -0.0215                  344.6461509707362
0.0065                    -0.0205                  344.12189908458663
0.0065                    -0.0195                  343.597647198437
0.0065                    -0.0185                  343.38463868573234
0.0065                    -0.0175                  343.84629040031047
0.0065                    -0.0165                  344.23270687658015
0.0065                    -0.0155                  344.9196181140671
0.0065                    -0.0145                  346.08996783704447
0.0065                    -0.0135                  347.04244735027396
0.0065                    -0.0125                  348.0579228153807
0.0065                    -0.0115                  349.29077338650654
0.0065                    -0.0105                  350.2382346447852
0.0065                    -0.0095                  350.6504422375492
0.0065                    -0.0085                  351.01635155815507
0.0065                    -0.0075                  351.2174614933133
0.0065                    -0.0065                  349.91623794896685
0.0065                    -0.0055                  348.50394730529956
0.0065                    -0.0045                  347.1907603484745
0.0065                    -0.0035                  343.74220717529465
0.0065                    -0.0025                  340.29365400211486
0.0065                    -0.0015                  337.24617468295963
0.0065                    -5.0E-4                  332.6392303770707
0.0065                    5.0E-4                   328.0372729973955
0.0065                    0.0015                   324.6953020147557
0.0065                    0.0025                   321.6459014343288
0.0065                    0.0035                   318.6461439952763
0.0065                    0.0045                   315.7583555174192
0.0065                    0.0055                   312.6809916767197
0.0065                    0.0065                   308.559158514928
0.0065                    0.0075                   303.5571857908142
0.0065                    0.0085                   298.9285336245213
0.0065                    0.0095                   295.51223525708565
0.0065                    0.0105                   294.499810594128
0.0065                    0.0115                   293.48822591419304